********************************************************************************
*                       GENERAL UTILITY LATTICE PROGRAM                        *
*                                 Julian Gale                                  *
*                      Nanochemistry Research Institute                        *
*                           Department of Chemistry                            *
*                    Curtin University, Western Australia                      *
********************************************************************************
* Version = 4.2.0 * Last modified =  20th January 2014                         *
********************************************************************************
*  optimise     - perform optimisation run                                     *
*  conp         - constant pressure calculation                                *
*  qok          - running with non charge neutral cell is OK                   *
*  rfo          - optimisation step to be determined by RFO method             *
********************************************************************************

  Job Started  at 01:35.15  5th January    2017                               

  Number of CPUs =     1


  Total number of configurations input =   1

********************************************************************************
*  Input for Configuration =   1                                               *
********************************************************************************

  Formula = Ge14Si46O120F6                                              

  Number of irreducible atoms/shells =     312


  Total number atoms/shells =     312

  Dimensionality = 3               :  Bulk   


  Charge on solid   =  -6.000000 =>neutralising background added


  Cartesian lattice vectors (Angstroms) :

       12.093744    0.000000    0.000000
       -6.072821   10.459826    0.000000
       -0.083591    0.007055   29.789422

  Cell parameters (Angstroms/Degrees):

  a =      12.0937    alpha =  89.9075
  b =      12.0949    beta  =  90.1608
  c =      29.7895    gamma = 120.1388

  Initial cell volume =        3768.315980 Angs**3

  Temperature of configuration =  0.000     K 

  Pressure of configuration =         0.000 GPa 

  Fractional coordinates of asymmetric unit :

--------------------------------------------------------------------------------
   No.  Atomic       x           y          z         Charge      Occupancy
        Label      (Frac)      (Frac)     (Frac)        (e)         (Frac)  
--------------------------------------------------------------------------------
      1 Ge    c    0.699600    0.375700    0.033890     4.00000    1.000000    
      2 Ge    c    0.615623 *  0.325026 *  0.366429 *   4.00000    1.000000    
      3 Ge    c    0.674345 *  0.290266 *  0.700175 *   4.00000    1.000000    
      4 Ge    c    0.284475 *  0.612890 *  0.540593 *   4.00000    1.000000    
      5 Ge    c    0.385398 *  0.666667 *  0.873248 *   4.00000    1.000000    
      6 Ge    c    0.337258 *  0.719563 *  0.210116 *   4.00000    1.000000    
      7 Si    c    0.378561 *  0.692751 *  0.308970 *   4.00000    1.000000    
      8 Si    c    0.313040 *  0.625163 *  0.971808 *   4.00000    1.000000    
      9 Si    c    0.308675 *  0.687692 *  0.640095 *   4.00000    1.000000    
     10 Si    c    0.626682 *  0.299652 *  0.802444 *   4.00000    1.000000    
     11 Si    c    0.676563 *  0.376148 *  0.468875 *   4.00000    1.000000    
     12 Si    c    0.699095 *  0.323636 *  0.136036 *   4.00000    1.000000    
     13 Si    c    0.523129 *  0.415363 *  0.968723 *   4.00000    1.000000    
     14 Si    c    0.587132 *  0.112431 *  0.302557 *   4.00000    1.000000    
     15 Si    c    0.883922 *  0.472685 *  0.636160 *   4.00000    1.000000    
     16 Si    c    0.469665 *  0.588280 *  0.475105 *   4.00000    1.000000    
     17 Si    c    0.413288 *  0.879386 *  0.807261 *   4.00000    1.000000    
     18 Ge    c    0.122382 *  0.538269 *  0.141991 *   4.00000    1.000000    
     19 Ge    c    0.434644 *  0.527173 *  0.375187 *   4.00000    1.000000    
     20 Ge    c    0.093361 *  0.567961 *  0.039929 *   4.00000    1.000000    
     21 Ge    c    0.474712 *  0.910474 *  0.706403 *   4.00000    1.000000    
     22 Ge    c    0.574089 *  0.470020 *  0.865355 *   4.00000    1.000000    
     23 Ge    c    0.896355 *  0.422138 *  0.533349 *   4.00000    1.000000    
     24 Ge    c    0.529175 *  0.102278 *  0.199499 *   4.00000    1.000000    
     25 Si    c    0.288890 *  0.395400 *  0.847771 *   4.00000    1.000000    
     26 Si    c    0.606529 *  0.894556 *  0.183198 *   4.00000    1.000000    
     27 Si    c    0.103238 *  0.705638 *  0.516002 *   4.00000    1.000000    
     28 Si    c    0.704222 *  0.609758 *  0.348927 *   4.00000    1.000000    
     29 Si    c    0.390334 *  0.098515 *  0.683158 *   4.00000    1.000000    
     30 Si    c    0.902123 *  0.294883 *  0.016063 *   4.00000    1.000000    
     31 Si    c    0.395286 *  0.300377 *  0.481989 *   4.00000    1.000000    
     32 Si    c    0.901962 *  0.607305 *  0.148649 *   4.00000    1.000000    
     33 Si    c    0.701536 *  0.094355 *  0.814717 *   4.00000    1.000000    
     34 Si    c    0.598655 *  0.701576 *  0.980582 *   4.00000    1.000000    
     35 Ge    c    0.098617 *  0.399236 *  0.648765 *   4.00000    1.000000    
     36 Si    c    0.300685 *  0.900471 *  0.314932 *   4.00000    1.000000    
     37 Si    c    0.244702 *  0.343108 *  0.950561 *   4.00000    1.000000    
     38 Si    c    0.659843 *  0.907143 *  0.286270 *   4.00000    1.000000    
     39 Si    c    0.091674 *  0.750510 *  0.618338 *   4.00000    1.000000    
     40 Si    c    0.747606 *  0.659807 *  0.452085 *   4.00000    1.000000    
     41 Si    c    0.342238 *  0.087218 *  0.786414 *   4.00000    1.000000    
     42 Si    c    0.913491 *  0.254288 *  0.119101 *   4.00000    1.000000    
     43 Si    c    0.328863 *  0.246732 *  0.380413 *   4.00000    1.000000    
     44 Si    c    0.912153 *  0.666486 *  0.046536 *   4.00000    1.000000    
     45 Si    c    0.755761 *  0.086356 *  0.713087 *   4.00000    1.000000    
     46 Si    c    0.665883 *  0.757196 *  0.878947 *   4.00000    1.000000    
     47 Si    c    0.089247 *  0.330014 *  0.546755 *   4.00000    1.000000    
     48 Si    c    0.241483 *  0.906309 *  0.212969 *   4.00000    1.000000    
     49 Si    c    0.970128 *  0.119374 *  0.965462 *   4.00000    1.000000    
     50 Si    c    0.881054 *  0.853323 *  0.298465 *   4.00000    1.000000    
     51 Si    c    0.146033 *  0.026865 *  0.631589 *   4.00000    1.000000    
     52 Si    c    0.027609 *  0.876658 *  0.464886 *   4.00000    1.000000    
     53 Si    c    0.122261 *  0.143951 *  0.798588 *   4.00000    1.000000    
     54 Si    c    0.851836 *  0.973872 *  0.131267 *   4.00000    1.000000    
     55 Si    c    0.118248 *  0.966458 *  0.364489 *   4.00000    1.000000    
     56 Si    c    0.847738 *  0.881395 *  0.030794 *   4.00000    1.000000    
     57 Si    c    0.034263 *  0.147063 *  0.698575 *   4.00000    1.000000    
     58 Si    c    0.885304 *  0.031255 *  0.864585 *   4.00000    1.000000    
     59 Si    c    0.148689 *  0.114697 *  0.530599 *   4.00000    1.000000    
     60 Si    c    0.966137 *  0.854051 *  0.197545 *   4.00000    1.000000    
     61 O2    c    0.930256 *  0.996132 *  0.996301 *   0.87073    1.000000    
     62 O2    c    0.005666 *  0.932895 *  0.329003 *   0.87073    1.000000    
     63 O2    c    0.062383 *  0.066352 *  0.661931 *   0.87073    1.000000    
     64 O2    c    0.071083 *  0.000534 *  0.495532 *   0.87073    1.000000    
     65 O2    c    0.000723 *  0.066340 *  0.830632 *   0.87073    1.000000    
     66 O2    c    0.937652 *  0.936977 *  0.162199 *   0.87073    1.000000    
     67 O3    c    0.348075 *  0.586630 *  0.344284 *   1.33043    1.000000    
     68 O3    c    0.419989 *  0.769875 *  0.672982 *   1.33043    1.000000    
     69 O3    c    0.235477 *  0.654547 *  0.006261 *   1.33043    1.000000    
     70 O3    c    0.661226 *  0.416934 *  0.834529 *   1.33043    1.000000    
     71 O3    c    0.582462 *  0.242270 *  0.168249 *   1.33043    1.000000    
     72 O3    c    0.756682 *  0.339206 *  0.500989 *   1.33043    1.000000    
     73 O3    c    0.564842 *  0.338675 *  0.001432 *   1.33043    1.000000    
     74 O3    c    0.762237 *  0.427274 *  0.667150 *   1.33043    1.000000    
     75 O3    c    0.660036 *  0.232338 *  0.334572 *   1.33043    1.000000    
     76 O3    c    0.428680 *  0.656795 *  0.510233 *   1.33043    1.000000    
     77 O1    c    0.238972 *  0.578121 *  0.179338 *   1.73396    1.000000    
     78 O3    c    0.343686 *  0.766478 *  0.840895 *   1.33043    1.000000    
     79 O2    c    0.121937 *  0.217038 *  0.971328 *   0.87073    1.000000    
     80 O2    c    0.786219 *  0.909627 *  0.306250 *   0.87073    1.000000    
     81 O2    c    0.091008 *  0.875205 *  0.637889 *   0.87073    1.000000    
     82 O2    c    0.875802 *  0.782678 *  0.471818 *   0.87073    1.000000    
     83 O2    c    0.219357 *  0.090445 *  0.806826 *   0.87073    1.000000    
     84 O2    c    0.904212 *  0.123798 *  0.138122 *   0.87073    1.000000    
     85 O2    c    0.203081 *  0.118877 *  0.362999 *   0.87073    1.000000    
     86 O2    c    0.909226 *  0.791531 *  0.028610 *   0.87073    1.000000    
     87 O2    c    0.882072 *  0.087207 *  0.695493 *   0.87073    1.000000    
     88 O2    c    0.799910 *  0.878483 *  0.862541 *   0.87073    1.000000    
     89 O2    c    0.083106 *  0.201027 *  0.527492 *   0.87073    1.000000    
     90 O2    c    0.118581 *  0.915431 *  0.196319 *   0.87073    1.000000    
     91 O2    c    0.921189 *  0.867698 *  0.246748 *   0.87073    1.000000    
     92 O2    c    0.136496 *  0.056975 *  0.579908 *   0.87073    1.000000    
     93 O2    c    0.939661 *  0.077154 *  0.914105 *   0.87073    1.000000    
     94 O2    c    0.075420 *  0.122531 *  0.747431 *   0.87073    1.000000    
     95 O2    c    0.861078 *  0.940479 *  0.079914 *   0.87073    1.000000    
     96 O2    c    0.058587 *  0.918111 *  0.413335 *   0.87073    1.000000    
     97 O2    c    0.891724 *  0.188382 *  0.980111 *   0.87073    1.000000    
     98 O2    c    0.810149 *  0.704925 *  0.312589 *   0.87073    1.000000    
     99 O2    c    0.293091 *  0.106927 *  0.647238 *   0.87073    1.000000    
    100 O2    c    0.103764 *  0.804906 *  0.479074 *   0.87073    1.000000    
    101 O2    c    0.192736 *  0.293706 *  0.810664 *   0.87073    1.000000    
    102 O2    c    0.705047 *  0.893887 *  0.146569 *   0.87073    1.000000    
    103 O2    c    0.204946 *  0.903822 *  0.352394 *   0.87073    1.000000    
    104 O2    c    0.697407 *  0.798524 *  0.018234 *   0.87073    1.000000    
    105 O3    c    0.103374 *  0.295981 *  0.689177 *   1.33043    1.000000    
    106 O2    c    0.800489 *  0.096156 *  0.851995 *   0.87073    1.000000    
    107 O2    c    0.299767 *  0.199739 *  0.519274 *   0.87073    1.000000    
    108 O2    c    0.893213 *  0.703927 *  0.184816 *   0.87073    1.000000    
    109 O3    c    0.324959 *  0.636433 *  0.260047 *   1.33043    1.000000    
    110 O3    c    0.359928 *  0.688510 *  0.590043 *   1.33043    1.000000    
    111 O3    c    0.312747 *  0.679120 *  0.922484 *   1.33043    1.000000    
    112 O3    c    0.677847 *  0.351638 *  0.752908 *   1.33043    1.000000    
    113 O3    c    0.643409 *  0.313753 *  0.086063 *   1.33043    1.000000    
    114 O3    c    0.676993 *  0.327168 *  0.418876 *   1.33043    1.000000    
    115 O2    c    0.368087 *  0.334874 *  0.966867 *   0.87073    1.000000    
    116 O2    c    0.668493 *  0.038929 *  0.302379 *   0.87073    1.000000    
    117 O2    c    0.957030 *  0.628175 *  0.633018 *   0.87073    1.000000    
    118 O2    c    0.627748 *  0.668202 *  0.471126 *   0.87073    1.000000    
    119 O2    c    0.334658 *  0.958651 *  0.804571 *   0.87073    1.000000    
    120 O3    c    0.042163 *  0.368093 *  0.137771 *   1.33043    1.000000    
    121 O3    c    0.318668 *  0.364251 *  0.362329 *   1.33043    1.000000    
    122 O3    c    0.039173 *  0.677663 *  0.027229 *   1.33043    1.000000    
    123 O3    c    0.636999 *  0.958247 *  0.695200 *   1.33043    1.000000    
    124 O3    c    0.671186 *  0.634112 *  0.861141 *   1.33043    1.000000    
    125 O3    c    0.961558 *  0.324131 *  0.527276 *   1.33043    1.000000    
    126 O3    c    0.365164 *  0.035801 *  0.195359 *   1.33043    1.000000    
    127 O3    c    0.771480 *  0.298952 *  0.009089 *   1.33043    1.000000    
    128 O3    c    0.698974 *  0.474924 *  0.342030 *   1.33043    1.000000    
    129 O3    c    0.524202 *  0.228550 *  0.675782 *   1.33043    1.000000    
    130 O3    c    0.230559 *  0.700291 *  0.508792 *   1.33043    1.000000    
    131 O3    c    0.290915 *  0.525711 *  0.839759 *   1.33043    1.000000    
    132 O3    c    0.476729 *  0.765336 *  0.176248 *   1.33043    1.000000    
    133 O2    c    0.305165 *  0.771926 *  0.323406 *   0.87073    1.000000    
    134 O2    c    0.465505 *  0.698141 *  0.987378 *   0.87073    1.000000    
    135 O3    c    0.239048 *  0.538946 *  0.656731 *   1.33043    1.000000    
    136 O2    c    0.699951 *  0.226582 *  0.820590 *   0.87073    1.000000    
    137 O2    c    0.529137 *  0.301588 *  0.486139 *   0.87073    1.000000    
    138 O2    c    0.767857 *  0.472317 *  0.151226 *   0.87073    1.000000    
    139 O3    c    0.784402 *  0.540803 *  0.029217 *   1.33043    1.000000    
    140 O3    c    0.451458 *  0.242467 *  0.360796 *   1.33043    1.000000    
    141 O3    c    0.761836 *  0.213768 *  0.692868 *   1.33043    1.000000    
    142 O3    c    0.218930 *  0.448477 *  0.528437 *   1.33043    1.000000    
    143 O3    c    0.551159 *  0.768986 *  0.858640 *   1.33043    1.000000    
    144 O3    c    0.233550 *  0.781135 *  0.193202 *   1.33043    1.000000    
    145 O2    c    0.534163 *  0.789658 *  0.307026 *   0.87073    1.000000    
    146 O2    c    0.253193 *  0.469381 *  0.970550 *   0.87073    1.000000    
    147 O2    c    0.206945 *  0.740088 *  0.640035 *   0.87073    1.000000    
    148 O2    c    0.471761 *  0.210512 *  0.804269 *   0.87073    1.000000    
    149 O2    c    0.740995 *  0.530755 *  0.470017 *   0.87073    1.000000    
    150 O2    c    0.793240 *  0.264746 *  0.138153 *   0.87073    1.000000    
    151 O2    c    0.229125 *  0.330884 *  0.896605 *   0.87073    1.000000    
    152 O2    c    0.671340 *  0.903878 *  0.232391 *   0.87073    1.000000    
    153 O2    c    0.099693 *  0.765895 *  0.564470 *   0.87073    1.000000    
    154 O2    c    0.762560 *  0.672569 *  0.398187 *   0.87073    1.000000    
    155 O2    c    0.328663 *  0.091805 *  0.732622 *   0.87073    1.000000    
    156 O2    c    0.904773 *  0.236204 *  0.065164 *   0.87073    1.000000    
    157 O2    c    0.324586 *  0.237713 *  0.435080 *   0.87073    1.000000    
    158 O2    c    0.914245 *  0.676765 *  0.101139 *   0.87073    1.000000    
    159 O2    c    0.766048 *  0.091403 *  0.767792 *   0.87073    1.000000    
    160 O2    c    0.669267 *  0.764584 *  0.933801 *   0.87073    1.000000    
    161 O3    c    0.086082 *  0.313952 *  0.600653 *   1.33043    1.000000    
    162 O2    c    0.235632 *  0.903168 *  0.267844 *   0.87073    1.000000    
    163 O2    c    0.577951 *  0.559722 *  0.987448 *   0.87073    1.000000    
    164 O2    c    0.442175 *  0.022908 *  0.320828 *   0.87073    1.000000    
    165 O3    c    0.972097 *  0.422872 *  0.658602 *   1.33043    1.000000    
    166 O2    c    0.420374 *  0.441023 *  0.491594 *   0.87073    1.000000    
    167 O2    c    0.560866 *  0.977241 *  0.823301 *   0.87073    1.000000    
    168 O3    c    0.014736 *  0.584651 *  0.161941 *   1.33043    1.000000    
    169 O3    c    0.572400 *  0.603594 *  0.339280 *   1.33043    1.000000    
    170 O3    c    0.027681 *  0.426420 *  0.005839 *   1.33043    1.000000    
    171 O3    c    0.396840 *  0.973052 *  0.672848 *   1.33043    1.000000    
    172 O3    c    0.426740 *  0.406481 *  0.839863 *   1.33043    1.000000    
    173 O3    c    0.976438 *  0.569566 *  0.507305 *   1.33043    1.000000    
    174 O3    c    0.594491 *  0.020509 *  0.174006 *   1.33043    1.000000    
    175 O3    c    0.585544 *  0.160535 *  0.252524 *   1.33043    1.000000    
    176 O3    c    0.837587 *  0.414918 *  0.586471 *   1.33043    1.000000    
    177 O3    c    0.576029 *  0.418052 *  0.919224 *   1.33043    1.000000    
    178 O3    c    0.412390 *  0.831384 *  0.756917 *   1.33043    1.000000    
    179 O1    c    0.179604 *  0.594180 *  0.089314 *   1.73396    1.000000    
    180 O3    c    0.416154 *  0.589494 *  0.426028 *   1.33043    1.000000    
    181 F     c    0.434760 *  0.879237 *  0.240090 *   0.56000    1.000000    
    182 F     c    0.109675 *  0.540048 *  0.574897 *   0.56000    1.000000    
    183 F     c    0.443697 *  0.567625 *  0.904851 *   0.56000    1.000000    
    184 F     c    0.548620 *  0.080777 *  0.738085 *   0.56000    1.000000    
    185 F     c    0.937307 *  0.472504 *  0.074963 *   0.56000    1.000000    
    186 F     c    0.528602 *  0.460731 *  0.406319 *   0.56000    1.000000    
    187 O2    s    0.925644 *  0.997254 *  0.996668 *  -2.87073    1.000000    
    188 O2    s    0.004183 *  0.927715 *  0.329527 *  -2.87073    1.000000    
    189 O2    s    0.068717 *  0.070602 *  0.662498 *  -2.87073    1.000000    
    190 O2    s    0.074834 *  0.999253 *  0.496004 *  -2.87073    1.000000    
    191 O2    s    0.001306 *  0.070997 *  0.830891 *  -2.87073    1.000000    
    192 O2    s    0.931450 *  0.931902 *  0.162714 *  -2.87073    1.000000    
    193 O3    s    0.357325 *  0.594760 *  0.342312 *  -3.33043    1.000000    
    194 O3    s    0.411005 *  0.770016 *  0.671512 *  -3.33043    1.000000    
    195 O3    s    0.235228 *  0.645615 *  0.004435 *  -3.33043    1.000000    
    196 O3    s    0.651058 *  0.408767 *  0.833530 *  -3.33043    1.000000    
    197 O3    s    0.590737 *  0.240281 *  0.167201 *  -3.33043    1.000000    
    198 O3    s    0.758477 *  0.349218 *  0.499947 *  -3.33043    1.000000    
    199 O3    s    0.570807 *  0.349200 *  0.000586 *  -3.33043    1.000000    
    200 O3    s    0.768263 *  0.421906 *  0.666441 *  -3.33043    1.000000    
    201 O3    s    0.649138 *  0.226878 *  0.333657 *  -3.33043    1.000000    
    202 O3    s    0.423671 *  0.646403 *  0.508372 *  -3.33043    1.000000    
    203 O1    s    0.235141 *  0.583671 *  0.178079 *  -3.73396    1.000000    
    204 O3    s    0.354171 *  0.772711 *  0.839207 *  -3.33043    1.000000    
    205 O2    s    0.118525 *  0.219676 *  0.968608 *  -2.87073    1.000000    
    206 O2    s    0.783248 *  0.903498 *  0.303416 *  -2.87073    1.000000    
    207 O2    s    0.096835 *  0.878229 *  0.635222 *  -2.87073    1.000000    
    208 O2    s    0.878728 *  0.779999 *  0.469077 *  -2.87073    1.000000    
    209 O2    s    0.221727 *  0.095714 *  0.803900 *  -2.87073    1.000000    
    210 O2    s    0.899470 *  0.120736 *  0.135442 *  -2.87073    1.000000    
    211 O2    s    0.206897 *  0.115255 *  0.365008 *  -2.87073    1.000000    
    212 O2    s    0.902569 *  0.788557 *  0.030722 *  -2.87073    1.000000    
    213 O2    s    0.885152 *  0.093687 *  0.697711 *  -2.87073    1.000000    
    214 O2    s    0.795500 *  0.882827 *  0.864455 *  -2.87073    1.000000    
    215 O2    s    0.090956 *  0.204389 *  0.529764 *  -2.87073    1.000000    
    216 O2    s    0.114735 *  0.907778 *  0.198187 *  -2.87073    1.000000    
    217 O2    s    0.921717 *  0.864571 *  0.247072 *  -2.87073    1.000000    
    218 O2    s    0.138867 *  0.059982 *  0.580183 *  -2.87073    1.000000    
    219 O2    s    0.937044 *  0.076769 *  0.914321 *  -2.87073    1.000000    
    220 O2    s    0.076211 *  0.127530 *  0.747882 *  -2.87073    1.000000    
    221 O2    s    0.858636 *  0.937676 *  0.080195 *  -2.87073    1.000000    
    222 O2    s    0.061696 *  0.918843 *  0.413616 *  -2.87073    1.000000    
    223 O2    s    0.901118 *  0.191525 *  0.982130 *  -2.87073    1.000000    
    224 O2    s    0.807275 *  0.711395 *  0.314716 *  -2.87073    1.000000    
    225 O2    s    0.287059 *  0.097461 *  0.649197 *  -2.87073    1.000000    
    226 O2    s    0.095486 *  0.802562 *  0.481312 *  -2.87073    1.000000    
    227 O2    s    0.194816 *  0.287824 *  0.813121 *  -2.87073    1.000000    
    228 O2    s    0.710964 *  0.902730 *  0.148659 *  -2.87073    1.000000    
    229 O2    s    0.205500 *  0.910090 *  0.349859 *  -2.87073    1.000000    
    230 O2    s    0.703183 *  0.797399 *  0.015757 *  -2.87073    1.000000    
    231 O3    s    0.095889 *  0.288212 *  0.687195 *  -3.33043    1.000000    
    232 O2    s    0.799258 *  0.089239 *  0.849490 *  -2.87073    1.000000    
    233 O2    s    0.293794 *  0.201138 *  0.516677 *  -2.87073    1.000000    
    234 O2    s    0.901704 *  0.710131 *  0.182607 *  -2.87073    1.000000    
    235 O3    s    0.331244 *  0.648224 *  0.261184 *  -3.33043    1.000000    
    236 O3    s    0.348969 *  0.682391 *  0.590847 *  -3.33043    1.000000    
    237 O3    s    0.318158 *  0.672895 *  0.923597 *  -3.33043    1.000000    
    238 O3    s    0.672477 *  0.341547 *  0.753561 *  -3.33043    1.000000    
    239 O3    s    0.653420 *  0.319891 *  0.086433 *  -3.33043    1.000000    
    240 O3    s    0.671929 *  0.331770 *  0.419481 *  -3.33043    1.000000    
    241 O2    s    0.371098 *  0.344020 *  0.965353 *  -2.87073    1.000000    
    242 O2    s    0.659259 *  0.032698 *  0.300720 *  -2.87073    1.000000    
    243 O2    s    0.963817 *  0.625408 *  0.631791 *  -2.87073    1.000000    
    244 O2    s    0.626148 *  0.659937 *  0.469425 *  -2.87073    1.000000    
    245 O2    s    0.342768 *  0.965347 *  0.802845 *  -2.87073    1.000000    
    246 O3    s    0.033810 *  0.367474 *  0.136033 *  -3.33043    1.000000    
    247 O3    s    0.327570 *  0.362801 *  0.365094 *  -3.33043    1.000000    
    248 O3    s    0.029517 *  0.668971 *  0.030104 *  -3.33043    1.000000    
    249 O3    s    0.638000 *  0.968347 *  0.697883 *  -3.33043    1.000000    
    250 O3    s    0.662845 *  0.632740 *  0.863165 *  -3.33043    1.000000    
    251 O3    s    0.968541 *  0.332579 *  0.529580 *  -3.33043    1.000000    
    252 O3    s    0.366567 *  0.028819 *  0.197334 *  -3.33043    1.000000    
    253 O3    s    0.777958 *  0.304768 *  0.011729 *  -3.33043    1.000000    
    254 O3    s    0.692768 *  0.475818 *  0.344621 *  -3.33043    1.000000    
    255 O3    s    0.523010 *  0.220709 *  0.678450 *  -3.33043    1.000000    
    256 O3    s    0.221295 *  0.694519 *  0.511810 *  -3.33043    1.000000    
    257 O3    s    0.296902 *  0.521272 *  0.842810 *  -3.33043    1.000000    
    258 O3    s    0.481331 *  0.776107 *  0.179245 *  -3.33043    1.000000    
    259 O2    s    0.311449 *  0.778752 *  0.321124 *  -2.87073    1.000000    
    260 O2    s    0.466186 *  0.691845 *  0.985195 *  -2.87073    1.000000    
    261 O3    s    0.233315 *  0.540290 *  0.654563 *  -3.33043    1.000000    
    262 O2    s    0.692677 *  0.220307 *  0.818122 *  -2.87073    1.000000    
    263 O2    s    0.529994 *  0.309048 *  0.483945 *  -2.87073    1.000000    
    264 O2    s    0.774420 *  0.470761 *  0.149401 *  -2.87073    1.000000    
    265 O3    s    0.789984 *  0.539657 *  0.031235 *  -3.33043    1.000000    
    266 O3    s    0.453362 *  0.249780 *  0.363069 *  -3.33043    1.000000    
    267 O3    s    0.754120 *  0.207741 *  0.695334 *  -3.33043    1.000000    
    268 O3    s    0.210539 *  0.448535 *  0.531120 *  -3.33043    1.000000    
    269 O3    s    0.552231 *  0.760863 *  0.861671 *  -3.33043    1.000000    
    270 O3    s    0.240849 *  0.790251 *  0.196190 *  -3.33043    1.000000    
    271 O2    s    0.533323 *  0.793760 *  0.304860 *  -2.87073    1.000000    
    272 O2    s    0.258123 *  0.470070 *  0.968392 *  -2.87073    1.000000    
    273 O2    s    0.203706 *  0.735969 *  0.637610 *  -2.87073    1.000000    
    274 O2    s    0.473826 *  0.206501 *  0.802221 *  -2.87073    1.000000    
    275 O2    s    0.735070 *  0.528674 *  0.467997 *  -2.87073    1.000000    
    276 O2    s    0.795793 *  0.269887 *  0.136026 *  -2.87073    1.000000    
    277 O2    s    0.236631 *  0.338527 *  0.897511 *  -2.87073    1.000000    
    278 O2    s    0.663664 *  0.903241 *  0.233294 *  -2.87073    1.000000    
    279 O2    s    0.099230 *  0.758220 *  0.565308 *  -2.87073    1.000000    
    280 O2    s    0.755170 *  0.665007 *  0.399065 *  -2.87073    1.000000    
    281 O2    s    0.336256 *  0.092010 *  0.733424 *  -2.87073    1.000000    
    282 O2    s    0.905493 *  0.244049 *  0.065863 *  -2.87073    1.000000    
    283 O2    s    0.332529 *  0.245342 *  0.434536 *  -2.87073    1.000000    
    284 O2    s    0.912859 *  0.668404 *  0.100644 *  -2.87073    1.000000    
    285 O2    s    0.758074 *  0.091199 *  0.767318 *  -2.87073    1.000000    
    286 O2    s    0.661378 *  0.757121 *  0.933322 *  -2.87073    1.000000    
    287 O3    s    0.087381 *  0.322401 *  0.599405 *  -3.33043    1.000000    
    288 O2    s    0.243122 *  0.903111 *  0.267389 *  -2.87073    1.000000    
    289 O2    s    0.574406 *  0.559775 *  0.984822 *  -2.87073    1.000000    
    290 O2    s    0.442029 *  0.018985 *  0.318330 *  -2.87073    1.000000    
    291 O3    s    0.974162 *  0.425840 *  0.655652 *  -3.33043    1.000000    
    292 O2    s    0.422526 *  0.439482 *  0.488904 *  -2.87073    1.000000    
    293 O2    s    0.562271 *  0.981081 *  0.820735 *  -2.87073    1.000000    
    294 O3    s    0.010181 *  0.583493 *  0.158987 *  -3.33043    1.000000    
    295 O3    s    0.576953 *  0.598952 *  0.342658 *  -3.33043    1.000000    
    296 O3    s    0.018791 *  0.422188 *  0.009199 *  -3.33043    1.000000    
    297 O3    s    0.401815 *  0.981728 *  0.676267 *  -3.33043    1.000000    
    298 O3    s    0.426049 *  0.410868 *  0.842703 *  -3.33043    1.000000    
    299 O3    s    0.982380 *  0.570766 *  0.510242 *  -3.33043    1.000000    
    300 O3    s    0.590036 *  0.015351 *  0.176940 *  -3.33043    1.000000    
    301 O3    s    0.581045 *  0.150982 *  0.253148 *  -3.33043    1.000000    
    302 O3    s    0.846935 *  0.421055 *  0.586862 *  -3.33043    1.000000    
    303 O3    s    0.570692 *  0.421997 *  0.919755 *  -3.33043    1.000000    
    304 O3    s    0.417390 *  0.842295 *  0.757868 *  -3.33043    1.000000    
    305 O1    s    0.168878 *  0.587967 *  0.089857 *  -3.73396    1.000000    
    306 O3    s    0.422855 *  0.584640 *  0.427119 *  -3.33043    1.000000    
    307 F     s    0.429071 *  0.870631 *  0.237779 *  -1.56000    1.000000    
    308 F     s    0.114095 *  0.540781 *  0.573446 *  -1.56000    1.000000    
    309 F     s    0.441059 *  0.573274 *  0.902501 *  -1.56000    1.000000    
    310 F     s    0.546587 *  0.075227 *  0.736055 *  -1.56000    1.000000    
    311 F     s    0.945162 *  0.477402 *  0.072920 *  -1.56000    1.000000    
    312 F     s    0.523614 *  0.463728 *  0.404033 *  -1.56000    1.000000    
--------------------------------------------------------------------------------



********************************************************************************
*  General input information                                                   *
********************************************************************************

  Species output for all configurations : 

--------------------------------------------------------------------------------
  Species    Type    Atomic    Atomic    Charge       Radii (Angs)     Library
                     Number     Mass       (e)     Cova   Ionic  VDW   Symbol
--------------------------------------------------------------------------------
    Si       Core       14      28.09   4.000000   1.200  0.000  2.100          
    O1       Core        8      16.00   1.733957   0.730  0.000  1.360          
    O1       Shell       8       0.00  -3.733957   0.730  0.000  1.360          
    O2       Core        8      16.00   0.870733   0.730  0.000  1.360          
    O2       Shell       8       0.00  -2.870733   0.730  0.000  1.360          
    O3       Core        8      16.00   1.330431   0.730  0.000  1.360          
    O3       Shell       8       0.00  -3.330431   0.730  0.000  1.360          
    F        Core        9      19.00   0.560000   0.710  0.000  1.300          
    F        Shell       9       0.00  -1.560000   0.710  0.000  1.300          
    Ge       Core       32      72.61   4.000000   1.170  0.000  1.750          
--------------------------------------------------------------------------------


  Lattice summation method               =    Ewald          (3-D)
                                         =    Parry          (2-D)
                                         =    Saunders et al (1-D)
  Accuracy factor for lattice sums       =   12.000


  Time limit = Infinity

  Maximum range for interatomic potentials =        16.000000 Angstroms

  Taper potentials to zero over   1.0000 Angstroms using polynomial

  General interatomic potentials :

--------------------------------------------------------------------------------
Atom  Types   Potential         A         B         C         D     Cutoffs(Ang)
  1     2                                                            Min    Max 
--------------------------------------------------------------------------------
Si   c O1   s Buckingham    0.132E+04 0.318      10.1      0.00     0.000 16.000
Si   c O2   s Buckingham    0.132E+04 0.318      10.1      0.00     0.000 16.000
Si   c O3   s Buckingham    0.132E+04 0.318      10.1      0.00     0.000 16.000
Ge   c O1   s Buckingham    0.150E+04 0.326      16.8      0.00     0.000 16.000
Ge   c O2   s Buckingham    0.150E+04 0.326      16.8      0.00     0.000 16.000
Ge   c O3   s Buckingham    0.150E+04 0.326      16.8      0.00     0.000 16.000
O1   s O1   s Buckingham    0.228E+05 0.149      10.9      0.00     0.000 16.000
O1   s O2   s Buckingham    0.228E+05 0.149      10.9      0.00     0.000 16.000
O1   s O3   s Buckingham    0.228E+05 0.149      10.9      0.00     0.000 16.000
O2   s O2   s Buckingham    0.228E+05 0.149      10.9      0.00     0.000 16.000
O2   s O3   s Buckingham    0.228E+05 0.149      10.9      0.00     0.000 16.000
O3   s O3   s Buckingham    0.228E+05 0.149      10.9      0.00     0.000 16.000
Si   c F    s Buckingham     977.     0.282      0.00      0.00     0.000 16.000
Ge   c F    s Buckingham     681.     0.320      0.00      0.00     0.000 16.000
F    s F    s Buckingham     540.     0.262      0.00      0.00     0.000 16.000
O1   s F    s Buckingham    0.168E+04 0.268      0.00      0.00     0.000 16.000
O2   s F    s Buckingham    0.168E+04 0.268      0.00      0.00     0.000 16.000
O3   s F    s Buckingham    0.168E+04 0.268      0.00      0.00     0.000 16.000
O2   c O2   s Spring (c-s)   76.0      0.00      0.00      0.00     0.000  0.800
O3   c O3   s Spring (c-s)   128.      0.00      0.00      0.00     0.000  0.800
O1   c O1   s Spring (c-s)   180.      0.00      0.00      0.00     0.000  0.800
F    c F    s Spring (c-s)   33.5      0.00      0.00      0.00     0.000  0.800
--------------------------------------------------------------------------------

  General Three-body potentials :

  Harmonic form:

--------------------------------------------------------------------------------
Atom    Atom    Atom           Force Constants            Theta     Cutoffs  
  1       2       3     (eVrad**-2/eVrad**-3/eVrad**-4)   (deg)  1-2  1-3  2-3
--------------------------------------------------------------------------------
Si    c O1    s O1    s  1.261        0.0000    0.0000   109.470 0.00 0.00 0.00
                                                                 1.90 1.90 3.50
Si    c O1    s O2    s  1.261        0.0000    0.0000   109.470 0.00 0.00 0.00
                                                                 1.90 1.90 3.50
Si    c O2    s O2    s  1.261        0.0000    0.0000   109.470 0.00 0.00 0.00
                                                                 1.90 1.90 3.50
--------------------------------------------------------------------------------

********************************************************************************
*  Output for configuration   1                                                *
********************************************************************************


  Components of energy : 

--------------------------------------------------------------------------------
  Interatomic potentials     =        2051.08946406 eV
  Three-body potentials      =           0.20565095 eV
  Monopole - monopole (real) =       -6305.85828195 eV
  Monopole - monopole (recip)=       -3394.18823519 eV
  Monopole - monopole (total)=       -9700.04651714 eV
  Neutralising energy        =          -6.39567187 eV
--------------------------------------------------------------------------------
  Total lattice energy       =       -7655.14707400 eV
--------------------------------------------------------------------------------
  Total lattice energy       =         -738604.6730 kJ/(mole unit cells)
--------------------------------------------------------------------------------


  Number of variables =      939

  Maximum number of calculations  =          1000
  Maximum Hessian update interval =            10
  Maximum step size               =   1.000000000
  Maximum parameter tolerance     =   0.000010000
  Maximum function  tolerance     =   0.000010000
  Maximum gradient  tolerance     =   0.001000000
  Maximum gradient  component     =   0.010000000

  Symmetry not applied to optimisation

  Cell parameters to be optimised using strains

  RFO method to be used

  DFP hessian update to be used

  Dumpfile to be written after every cycle

  Start of bulk optimisation :

  Cycle:      0 Energy:     -7655.147074  Gnorm:      0.028470  CPU:    1.230
  ** Hessian has wrong structure
  ** Imaginary eigenvectors =   2
  Cycle:      1 Energy:     -7655.206018  Gnorm:      0.030200  CPU:    5.775
  ** Hessian has required structure
  Cycle:      2 Energy:     -7655.340966  Gnorm:      0.015638  CPU:    9.934
  ** Hessian has required structure
  Cycle:      3 Energy:     -7655.350250  Gnorm:      0.006488  CPU:   13.281
  ** Hessian has required structure
  Cycle:      4 Energy:     -7655.352031  Gnorm:      0.001756  CPU:   16.230
  ** Hessian has required structure
  Cycle:      5 Energy:     -7655.352351  Gnorm:      0.000891  CPU:   19.180
  ** Hessian has required structure
  Cycle:      6 Energy:     -7655.352384  Gnorm:      0.000331  CPU:   22.133
  ** Hessian has required structure
  Cycle:      7 Energy:     -7655.352387  Gnorm:      0.000110  CPU:   25.108
  ** Hessian has required structure
  Cycle:      8 Energy:     -7655.352387  Gnorm:      0.000036  CPU:   28.084
  ** Hessian has required structure


  **** Optimisation achieved ****


  Final energy =   -7655.35238747 eV
  Final Gnorm  =       0.00001027

  Components of energy : 

--------------------------------------------------------------------------------
  Interatomic potentials     =        2052.22173213 eV
  Three-body potentials      =           0.21609311 eV
  Monopole - monopole (real) =       -6305.94612274 eV
  Monopole - monopole (recip)=       -3395.44604663 eV
  Monopole - monopole (total)=       -9701.39216937 eV
  Neutralising energy        =          -6.39804333 eV
--------------------------------------------------------------------------------
  Total lattice energy       =       -7655.35238747 eV
--------------------------------------------------------------------------------
  Total lattice energy       =         -738624.4826 kJ/(mole unit cells)
--------------------------------------------------------------------------------

  Final fractional coordinates of atoms :

--------------------------------------------------------------------------------
   No.  Atomic        x           y          z          Radius
        Label       (Frac)      (Frac)     (Frac)       (Angs) 
--------------------------------------------------------------------------------
     1  Ge    c     0.699600    0.375700    0.033890    0.000000
     2  Ge    c     0.597066    0.311622    0.367163    0.000000
     3  Ge    c     0.663863    0.275557    0.700499    0.000000
     4  Ge    c     0.276675    0.601513    0.547009    0.000000
     5  Ge    c     0.371531    0.654786    0.878812    0.000000
     6  Ge    c     0.321704    0.696978    0.216031    0.000000
     7  Si    c     0.367105    0.680393    0.314947    0.000000
     8  Si    c     0.302556    0.611066    0.977521    0.000000
     9  Si    c     0.302289    0.676173    0.645206    0.000000
    10  Si    c     0.616044    0.288516    0.803611    0.000000
    11  Si    c     0.664143    0.357914    0.469839    0.000000
    12  Si    c     0.682420    0.309430    0.136445    0.000000
    13  Si    c     0.516387    0.406109    0.969451    0.000000
    14  Si    c     0.567288    0.098688    0.302180    0.000000
    15  Si    c     0.877127    0.457050    0.636826    0.000000
    16  Si    c     0.458097    0.570013    0.482513    0.000000
    17  Si    c     0.405450    0.868278    0.813291    0.000000
    18  Ge    c     0.105285    0.524446    0.149158    0.000000
    19  Ge    c     0.419253    0.514652    0.382326    0.000000
    20  Ge    c     0.087709    0.560091    0.046928    0.000000
    21  Ge    c     0.464363    0.894046    0.713254    0.000000
    22  Ge    c     0.563685    0.462079    0.865662    0.000000
    23  Ge    c     0.888410    0.407345    0.532870    0.000000
    24  Ge    c     0.507951    0.082119    0.198396    0.000000
    25  Si    c     0.276405    0.385942    0.850883    0.000000
    26  Si    c     0.587163    0.872244    0.185966    0.000000
    27  Si    c     0.100959    0.694990    0.518598    0.000000
    28  Si    c     0.686876    0.598464    0.352808    0.000000
    29  Si    c     0.377388    0.076934    0.685937    0.000000
    30  Si    c     0.899545    0.289291    0.019650    0.000000
    31  Si    c     0.385156    0.282291    0.486441    0.000000
    32  Si    c     0.882062    0.590437    0.153092    0.000000
    33  Si    c     0.693031    0.085421    0.818382    0.000000
    34  Si    c     0.589606    0.690384    0.983552    0.000000
    35  Ge    c     0.092989    0.385918    0.651416    0.000000
    36  Si    c     0.283303    0.884749    0.316948    0.000000
    37  Si    c     0.237051    0.331324    0.954092    0.000000
    38  Si    c     0.644655    0.895568    0.289252    0.000000
    39  Si    c     0.084040    0.735433    0.621336    0.000000
    40  Si    c     0.734629    0.642329    0.456289    0.000000
    41  Si    c     0.332324    0.073760    0.789533    0.000000
    42  Si    c     0.899156    0.241953    0.122966    0.000000
    43  Si    c     0.311608    0.233932    0.384824    0.000000
    44  Si    c     0.909279    0.662372    0.051125    0.000000
    45  Si    c     0.744809    0.069051    0.716517    0.000000
    46  Si    c     0.653245    0.748425    0.881497    0.000000
    47  Si    c     0.086126    0.318196    0.548543    0.000000
    48  Si    c     0.221221    0.881031    0.214595    0.000000
    49  Si    c     0.962891    0.109716    0.968773    0.000000
    50  Si    c     0.865912    0.842504    0.301922    0.000000
    51  Si    c     0.133727    0.009060    0.634939    0.000000
    52  Si    c     0.014905    0.859002    0.468161    0.000000
    53  Si    c     0.113262    0.132534    0.802168    0.000000
    54  Si    c     0.836386    0.960850    0.135019    0.000000
    55  Si    c     0.102545    0.952989    0.367853    0.000000
    56  Si    c     0.838114    0.871959    0.034452    0.000000
    57  Si    c     0.025492    0.133270    0.701883    0.000000
    58  Si    c     0.876282    0.021945    0.867878    0.000000
    59  Si    c     0.137440    0.096771    0.533809    0.000000
    60  Si    c     0.947941    0.837383    0.200735    0.000000
    61  O2    c     0.919270    0.985707    0.999527    0.000000
    62  O2    c     0.990738    0.921967    0.332315    0.000000
    63  O2    c     0.051370    0.049339    0.665801    0.000000
    64  O2    c     0.058324    0.983246    0.498678    0.000000
    65  O2    c     0.991482    0.053414    0.834063    0.000000
    66  O2    c     0.922576    0.923698    0.165758    0.000000
    67  O3    c     0.336727    0.580483    0.352745    0.000000
    68  O3    c     0.407377    0.752046    0.680836    0.000000
    69  O3    c     0.230786    0.642684    0.013941    0.000000
    70  O3    c     0.649740    0.408838    0.834042    0.000000
    71  O3    c     0.560254    0.219856    0.165881    0.000000
    72  O3    c     0.750465    0.323466    0.500238    0.000000
    73  O3    c     0.564681    0.333029    0.001034    0.000000
    74  O3    c     0.752636    0.410123    0.666919    0.000000
    75  O3    c     0.639421    0.220886    0.333311    0.000000
    76  O3    c     0.422642    0.640402    0.518647    0.000000
    77  O1    c     0.217522    0.554231    0.187621    0.000000
    78  O3    c     0.333823    0.760485    0.848825    0.000000
    79  O2    c     0.115251    0.203821    0.974601    0.000000
    80  O2    c     0.773294    0.901914    0.308938    0.000000
    81  O2    c     0.078733    0.857536    0.641237    0.000000
    82  O2    c     0.864129    0.763053    0.476235    0.000000
    83  O2    c     0.211223    0.080110    0.810315    0.000000
    84  O2    c     0.886470    0.110057    0.142393    0.000000
    85  O2    c     0.185548    0.105404    0.368260    0.000000
    86  O2    c     0.905686    0.787362    0.033873    0.000000
    87  O2    c     0.873902    0.075648    0.699021    0.000000
    88  O2    c     0.787357    0.869915    0.865408    0.000000
    89  O2    c     0.075661    0.186490    0.530000    0.000000
    90  O2    c     0.098830    0.890956    0.197868    0.000000
    91  O2    c     0.907174    0.854692    0.250278    0.000000
    92  O2    c     0.121723    0.038834    0.583310    0.000000
    93  O2    c     0.931540    0.067386    0.917392    0.000000
    94  O2    c     0.066992    0.110534    0.750916    0.000000
    95  O2    c     0.847846    0.931776    0.083259    0.000000
    96  O2    c     0.041158    0.898771    0.416246    0.000000
    97  O2    c     0.888768    0.183020    0.983488    0.000000
    98  O2    c     0.792724    0.694716    0.316650    0.000000
    99  O2    c     0.281211    0.087472    0.649998    0.000000
   100  O2    c     0.095633    0.791449    0.481786    0.000000
   101  O2    c     0.180620    0.282025    0.814340    0.000000
   102  O2    c     0.689338    0.876672    0.149735    0.000000
   103  O2    c     0.189651    0.891815    0.354553    0.000000
   104  O2    c     0.689022    0.785714    0.021318    0.000000
   105  O3    c     0.096542    0.281670    0.691675    0.000000
   106  O2    c     0.795010    0.090853    0.855241    0.000000
   107  O2    c     0.289285    0.178935    0.523156    0.000000
   108  O2    c     0.869814    0.686705    0.188691    0.000000
   109  O3    c     0.315574    0.617189    0.266596    0.000000
   110  O3    c     0.358783    0.685256    0.595553    0.000000
   111  O3    c     0.296319    0.663139    0.928446    0.000000
   112  O3    c     0.663657    0.335122    0.753260    0.000000
   113  O3    c     0.638069    0.308178    0.085537    0.000000
   114  O3    c     0.660767    0.311194    0.419213    0.000000
   115  O2    c     0.361589    0.323313    0.968994    0.000000
   116  O2    c     0.652077    0.028641    0.302815    0.000000
   117  O2    c     0.947331    0.611763    0.633140    0.000000
   118  O2    c     0.615951    0.650538    0.476466    0.000000
   119  O2    c     0.325143    0.946019    0.808349    0.000000
   120  O3    c     0.026866    0.354771    0.142126    0.000000
   121  O3    c     0.300787    0.352489    0.368530    0.000000
   122  O3    c     0.037545    0.673549    0.033435    0.000000
   123  O3    c     0.627189    0.939915    0.699862    0.000000
   124  O3    c     0.658689    0.626079    0.862401    0.000000
   125  O3    c     0.961897    0.317281    0.527551    0.000000
   126  O3    c     0.343519    0.009680    0.195468    0.000000
   127  O3    c     0.773544    0.299794    0.009982    0.000000
   128  O3    c     0.679065    0.462799    0.343946    0.000000
   129  O3    c     0.512402    0.205921    0.677554    0.000000
   130  O3    c     0.227635    0.689522    0.511537    0.000000
   131  O3    c     0.275993    0.515313    0.844204    0.000000
   132  O3    c     0.459363    0.740827    0.180535    0.000000
   133  O2    c     0.289410    0.757667    0.326809    0.000000
   134  O2    c     0.456430    0.686174    0.991251    0.000000
   135  O3    c     0.233642    0.524158    0.659114    0.000000
   136  O2    c     0.692085    0.218637    0.822286    0.000000
   137  O2    c     0.518558    0.281345    0.488822    0.000000
   138  O2    c     0.747014    0.456285    0.153824    0.000000
   139  O3    c     0.783673    0.539549    0.030743    0.000000
   140  O3    c     0.433099    0.231277    0.362980    0.000000
   141  O3    c     0.745659    0.193502    0.695473    0.000000
   142  O3    c     0.216770    0.436002    0.532158    0.000000
   143  O3    c     0.537236    0.759174    0.862532    0.000000
   144  O3    c     0.214029    0.754864    0.196652    0.000000
   145  O2    c     0.521758    0.781056    0.312483    0.000000
   146  O2    c     0.245261    0.455800    0.975747    0.000000
   147  O2    c     0.194820    0.721957    0.645358    0.000000
   148  O2    c     0.462054    0.197595    0.806699    0.000000
   149  O2    c     0.728375    0.512018    0.472839    0.000000
   150  O2    c     0.778001    0.252527    0.141144    0.000000
   151  O2    c     0.220092    0.321432    0.900136    0.000000
   152  O2    c     0.652053    0.884843    0.235425    0.000000
   153  O2    c     0.100077    0.755531    0.567583    0.000000
   154  O2    c     0.747542    0.656865    0.402328    0.000000
   155  O2    c     0.318414    0.076443    0.735614    0.000000
   156  O2    c     0.893380    0.226257    0.068821    0.000000
   157  O2    c     0.312666    0.223738    0.439472    0.000000
   158  O2    c     0.902224    0.664105    0.105796    0.000000
   159  O2    c     0.754587    0.077706    0.771293    0.000000
   160  O2    c     0.658054    0.753868    0.936492    0.000000
   161  O3    c     0.076605    0.301498    0.602721    0.000000
   162  O2    c     0.216426    0.882155    0.269667    0.000000
   163  O2    c     0.569844    0.548767    0.989463    0.000000
   164  O2    c     0.424041    0.008521    0.321549    0.000000
   165  O3    c     0.966386    0.410935    0.660676    0.000000
   166  O2    c     0.413720    0.422963    0.498046    0.000000
   167  O2    c     0.552869    0.970149    0.828809    0.000000
   168  O3    c     0.991389    0.564001    0.168141    0.000000
   169  O3    c     0.555597    0.594194    0.345118    0.000000
   170  O3    c     0.027730    0.419707    0.011949    0.000000
   171  O3    c     0.382239    0.950759    0.677169    0.000000
   172  O3    c     0.415302    0.400335    0.841432    0.000000
   173  O3    c     0.973456    0.558346    0.510510    0.000000
   174  O3    c     0.570261    0.994797    0.175293    0.000000
   175  O3    c     0.562138    0.141581    0.251635    0.000000
   176  O3    c     0.834565    0.398363    0.587092    0.000000
   177  O3    c     0.567000    0.410030    0.919423    0.000000
   178  O3    c     0.404363    0.812230    0.764341    0.000000
   179  O1    c     0.169051    0.586875    0.097631    0.000000
   180  O3    c     0.399872    0.571680    0.434248    0.000000
   181  F     c     0.413587    0.854954    0.243830    0.000000
   182  F     c     0.118092    0.536467    0.578568    0.000000
   183  F     c     0.431602    0.558028    0.908631    0.000000
   184  F     c     0.529282    0.052881    0.743047    0.000000
   185  F     c     0.929811    0.465403    0.079147    0.000000
   186  F     c     0.513467    0.447187    0.410823    0.000000
   187  O2    s     0.915208    0.987025    0.999942    0.000000
   188  O2    s     0.989129    0.916497    0.332843    0.000000
   189  O2    s     0.057840    0.053844    0.666219    0.000000
   190  O2    s     0.062214    0.981909    0.499156    0.000000
   191  O2    s     0.992173    0.058698    0.834296    0.000000
   192  O2    s     0.915979    0.918315    0.166239    0.000000
   193  O3    s     0.345728    0.587399    0.350413    0.000000
   194  O3    s     0.399300    0.753157    0.678993    0.000000
   195  O3    s     0.229554    0.633646    0.011934    0.000000
   196  O3    s     0.639801    0.400425    0.833274    0.000000
   197  O3    s     0.568793    0.218636    0.165318    0.000000
   198  O3    s     0.751927    0.333305    0.499552    0.000000
   199  O3    s     0.570031    0.343750    0.000314    0.000000
   200  O3    s     0.758434    0.404724    0.666440    0.000000
   201  O3    s     0.628789    0.215195    0.332680    0.000000
   202  O3    s     0.416998    0.630045    0.516479    0.000000
   203  O1    s     0.214804    0.561030    0.186204    0.000000
   204  O3    s     0.344216    0.765443    0.846851    0.000000
   205  O2    s     0.111734    0.206962    0.971921    0.000000
   206  O2    s     0.769903    0.895084    0.306221    0.000000
   207  O2    s     0.085060    0.860858    0.638532    0.000000
   208  O2    s     0.866877    0.760887    0.473360    0.000000
   209  O2    s     0.213259    0.084990    0.807356    0.000000
   210  O2    s     0.882257    0.107067    0.139638    0.000000
   211  O2    s     0.189580    0.101912    0.369962    0.000000
   212  O2    s     0.898467    0.783683    0.035750    0.000000
   213  O2    s     0.876628    0.081272    0.701209    0.000000
   214  O2    s     0.783341    0.874197    0.867331    0.000000
   215  O2    s     0.083567    0.189795    0.532258    0.000000
   216  O2    s     0.094963    0.884024    0.199904    0.000000
   217  O2    s     0.907104    0.851424    0.250548    0.000000
   218  O2    s     0.124805    0.041961    0.583548    0.000000
   219  O2    s     0.928857    0.067038    0.917615    0.000000
   220  O2    s     0.067662    0.115424    0.751338    0.000000
   221  O2    s     0.845507    0.928344    0.083579    0.000000
   222  O2    s     0.045050    0.900380    0.416654    0.000000
   223  O2    s     0.897854    0.185638    0.985498    0.000000
   224  O2    s     0.790052    0.701013    0.318680    0.000000
   225  O2    s     0.274974    0.078035    0.651975    0.000000
   226  O2    s     0.087490    0.788921    0.484084    0.000000
   227  O2    s     0.183056    0.276526    0.816738    0.000000
   228  O2    s     0.694779    0.885331    0.151883    0.000000
   229  O2    s     0.189904    0.897660    0.352123    0.000000
   230  O2    s     0.694711    0.785165    0.018871    0.000000
   231  O3    s     0.088884    0.274005    0.689751    0.000000
   232  O2    s     0.793106    0.083150    0.852801    0.000000
   233  O2    s     0.283408    0.180944    0.520530    0.000000
   234  O2    s     0.879101    0.692885    0.186441    0.000000
   235  O3    s     0.321200    0.629269    0.267710    0.000000
   236  O3    s     0.347109    0.678184    0.596751    0.000000
   237  O3    s     0.302402    0.657358    0.929598    0.000000
   238  O3    s     0.658991    0.325751    0.753979    0.000000
   239  O3    s     0.647408    0.313779    0.086333    0.000000
   240  O3    s     0.656015    0.315822    0.420040    0.000000
   241  O2    s     0.364543    0.332673    0.967494    0.000000
   242  O2    s     0.642665    0.021898    0.301342    0.000000
   243  O2    s     0.954431    0.608936    0.632280    0.000000
   244  O2    s     0.614608    0.642306    0.474802    0.000000
   245  O2    s     0.333259    0.953001    0.806727    0.000000
   246  O3    s     0.018252    0.353916    0.140492    0.000000
   247  O3    s     0.309731    0.350548    0.371154    0.000000
   248  O3    s     0.027212    0.664825    0.036203    0.000000
   249  O3    s     0.629104    0.950800    0.702535    0.000000
   250  O3    s     0.650478    0.624364    0.864450    0.000000
   251  O3    s     0.967510    0.324729    0.529921    0.000000
   252  O3    s     0.345359    0.003504    0.197473    0.000000
   253  O3    s     0.779443    0.305009    0.012830    0.000000
   254  O3    s     0.673167    0.463411    0.346650    0.000000
   255  O3    s     0.511829    0.199285    0.680202    0.000000
   256  O3    s     0.217538    0.684188    0.514653    0.000000
   257  O3    s     0.282124    0.510543    0.847128    0.000000
   258  O3    s     0.464239    0.752088    0.183391    0.000000
   259  O2    s     0.295818    0.764679    0.324611    0.000000
   260  O2    s     0.457124    0.679789    0.989127    0.000000
   261  O3    s     0.227366    0.525196    0.657207    0.000000
   262  O2    s     0.684478    0.211994    0.819997    0.000000
   263  O2    s     0.519535    0.289206    0.486656    0.000000
   264  O2    s     0.754089    0.454987    0.151996    0.000000
   265  O3    s     0.788617    0.537471    0.032913    0.000000
   266  O3    s     0.435294    0.238305    0.365349    0.000000
   267  O3    s     0.738769    0.188602    0.697803    0.000000
   268  O3    s     0.206939    0.434465    0.534788    0.000000
   269  O3    s     0.539149    0.751321    0.865507    0.000000
   270  O3    s     0.220799    0.764593    0.199459    0.000000
   271  O2    s     0.520701    0.784483    0.310086    0.000000
   272  O2    s     0.250078    0.456723    0.973457    0.000000
   273  O2    s     0.192445    0.718886    0.642643    0.000000
   274  O2    s     0.464236    0.193903    0.804608    0.000000
   275  O2    s     0.722415    0.509913    0.470816    0.000000
   276  O2    s     0.780411    0.257343    0.138844    0.000000
   277  O2    s     0.227418    0.328842    0.901012    0.000000
   278  O2    s     0.644833    0.884719    0.236286    0.000000
   279  O2    s     0.098521    0.747394    0.568400    0.000000
   280  O2    s     0.740165    0.649552    0.403207    0.000000
   281  O2    s     0.325694    0.076208    0.736467    0.000000
   282  O2    s     0.894610    0.234247    0.069553    0.000000
   283  O2    s     0.320299    0.231055    0.438962    0.000000
   284  O2    s     0.900908    0.656180    0.105234    0.000000
   285  O2    s     0.746990    0.077645    0.770846    0.000000
   286  O2    s     0.650215    0.746511    0.936084    0.000000
   287  O3    s     0.078818    0.309950    0.601592    0.000000
   288  O2    s     0.224023    0.882283    0.269277    0.000000
   289  O2    s     0.566352    0.548979    0.986795    0.000000
   290  O2    s     0.423943    0.004662    0.319070    0.000000
   291  O3    s     0.967991    0.413434    0.657634    0.000000
   292  O2    s     0.415014    0.421277    0.495226    0.000000
   293  O2    s     0.554471    0.973558    0.826125    0.000000
   294  O3    s     0.987770    0.563787    0.165106    0.000000
   295  O3    s     0.560658    0.589306    0.348299    0.000000
   296  O3    s     0.017937    0.415124    0.015056    0.000000
   297  O3    s     0.387164    0.960653    0.680384    0.000000
   298  O3    s     0.414801    0.404303    0.844319    0.000000
   299  O3    s     0.978566    0.558710    0.513139    0.000000
   300  O3    s     0.566504    0.990606    0.178187    0.000000
   301  O3    s     0.558273    0.132543    0.252347    0.000000
   302  O3    s     0.843063    0.404726    0.587457    0.000000
   303  O3    s     0.561723    0.413867    0.920020    0.000000
   304  O3    s     0.408994    0.823893    0.765360    0.000000
   305  O1    s     0.158232    0.580161    0.097979    0.000000
   306  O3    s     0.407083    0.567120    0.435115    0.000000
   307  F     s     0.407128    0.844457    0.241453    0.000000
   308  F     s     0.126681    0.539024    0.576569    0.000000
   309  F     s     0.428342    0.564236    0.906231    0.000000
   310  F     s     0.525918    0.043986    0.740670    0.000000
   311  F     s     0.938539    0.470771    0.077041    0.000000
   312  F     s     0.508001    0.450583    0.408553    0.000000
--------------------------------------------------------------------------------

  Final Cartesian lattice vectors (Angstroms) :

       12.091591    0.009891    0.011210
       -6.063185   10.463315   -0.002990
       -0.055957    0.014507   29.737541


  Final cell parameters and derivatives :

--------------------------------------------------------------------------------
       a           12.091600 Angstrom     dE/de1(xx)    -0.000073 eV/strain
       b           12.093105 Angstrom     dE/de2(yy)    -0.000406 eV/strain
       c           29.737597 Angstrom     dE/de3(zz)     0.000275 eV/strain
       alpha       89.935929 Degrees      dE/de4(yz)    -0.000107 eV/strain
       beta        90.054671 Degrees      dE/de5(xz)    -0.000119 eV/strain
       gamma      120.044168 Degrees      dE/de6(xy)    -0.000048 eV/strain
--------------------------------------------------------------------------------

  Primitive cell volume =          3764.127304 Angs**3

  Density of cell =      1.915797 g/cm**3

  Non-primitive cell volume =          3764.127304 Angs**3


  Final internal derivatives :

--------------------------------------------------------------------------------
   No.  Atomic          a             b             c           Radius
        Label          (eV)          (eV)          (eV)        (eV/Angs)
--------------------------------------------------------------------------------
      1 Ge    c       0.000000      0.000000      0.000000      0.000000
      2 Ge    c      -0.000132      0.000049     -0.000614      0.000000
      3 Ge    c       0.000084     -0.000095      0.000061      0.000000
      4 Ge    c       0.000190     -0.000203     -0.000148      0.000000
      5 Ge    c      -0.000410      0.000622     -0.001008      0.000000
      6 Ge    c      -0.000253      0.000316     -0.000432      0.000000
      7 Si    c       0.000013      0.000224     -0.000102      0.000000
      8 Si    c      -0.000616      0.000326      0.000827      0.000000
      9 Si    c      -0.000124      0.000011     -0.000374      0.000000
     10 Si    c      -0.000013     -0.000058      0.000336      0.000000
     11 Si    c       0.000076      0.000006      0.000363      0.000000
     12 Si    c       0.000107     -0.000425      0.000695      0.000000
     13 Si    c      -0.000028     -0.000267      0.000137      0.000000
     14 Si    c      -0.000017     -0.000015      0.000051      0.000000
     15 Si    c      -0.000142      0.000243     -0.000045      0.000000
     16 Si    c       0.000086     -0.000023      0.000378      0.000000
     17 Si    c      -0.000158      0.000073      0.001231      0.000000
     18 Ge    c      -0.000095     -0.000102      0.000112      0.000000
     19 Ge    c      -0.000090     -0.000002     -0.000372      0.000000
     20 Ge    c       0.000885     -0.000156     -0.001091      0.000000
     21 Ge    c      -0.000019      0.000156     -0.000229      0.000000
     22 Ge    c      -0.000278      0.000305     -0.000146      0.000000
     23 Ge    c      -0.000088      0.000247     -0.000459      0.000000
     24 Ge    c       0.000124      0.000081     -0.000947      0.000000
     25 Si    c       0.000076      0.000219      0.000397      0.000000
     26 Si    c      -0.000564      0.000205      0.000887      0.000000
     27 Si    c       0.000084     -0.000148      0.000076      0.000000
     28 Si    c      -0.000073     -0.000051      0.000191      0.000000
     29 Si    c       0.000061     -0.000138      0.000323      0.000000
     30 Si    c       0.000407     -0.000080      0.001043      0.000000
     31 Si    c       0.000082      0.000104      0.000190      0.000000
     32 Si    c      -0.000076     -0.000272      0.000732      0.000000
     33 Si    c      -0.000044      0.000021      0.000142      0.000000
     34 Si    c       0.000050      0.000011      0.000019      0.000000
     35 Ge    c      -0.000088      0.000228      0.000566      0.000000
     36 Si    c       0.000204     -0.000084     -0.000333      0.000000
     37 Si    c      -0.000060      0.000064     -0.000120      0.000000
     38 Si    c       0.000008     -0.000102      0.000222      0.000000
     39 Si    c      -0.000084      0.000011      0.000385      0.000000
     40 Si    c       0.000105     -0.000079      0.000401      0.000000
     41 Si    c       0.000080      0.000053      0.000046      0.000000
     42 Si    c      -0.000094     -0.000027      0.000255      0.000000
     43 Si    c      -0.000003      0.000091     -0.000172      0.000000
     44 Si    c       0.000028      0.000111     -0.000486      0.000000
     45 Si    c      -0.000267      0.000072      0.000458      0.000000
     46 Si    c      -0.000216     -0.000053      0.000236      0.000000
     47 Si    c       0.000249     -0.000136     -0.000401      0.000000
     48 Si    c       0.000239     -0.000195      0.000076      0.000000
     49 Si    c      -0.000033      0.000045      0.000567      0.000000
     50 Si    c      -0.000011      0.000050     -0.000013      0.000000
     51 Si    c      -0.000026     -0.000082      0.000109      0.000000
     52 Si    c      -0.000095      0.000026     -0.000133      0.000000
     53 Si    c      -0.000028     -0.000026      0.000053      0.000000
     54 Si    c       0.000256      0.000111      0.000043      0.000000
     55 Si    c      -0.000004      0.000118     -0.000021      0.000000
     56 Si    c      -0.000007     -0.000147     -0.000135      0.000000
     57 Si    c       0.000025      0.000062      0.000163      0.000000
     58 Si    c       0.000042     -0.000041     -0.000492      0.000000
     59 Si    c      -0.000052      0.000019      0.000170      0.000000
     60 Si    c      -0.000241      0.000045      0.000313      0.000000
     61 O2    c      -0.000147      0.000239     -0.000354      0.000000
     62 O2    c      -0.000027      0.000012      0.000049      0.000000
     63 O2    c       0.000065     -0.000109     -0.000174      0.000000
     64 O2    c      -0.000004      0.000048      0.000107      0.000000
     65 O2    c      -0.000183      0.000098      0.000345      0.000000
     66 O2    c      -0.000035      0.000127     -0.000138      0.000000
     67 O3    c      -0.000232      0.000014      0.000313      0.000000
     68 O3    c       0.000150     -0.000118      0.000233      0.000000
     69 O3    c       0.000447     -0.000646     -0.000484      0.000000
     70 O3    c      -0.000063      0.000021      0.000014      0.000000
     71 O3    c      -0.000400     -0.000443      0.001599      0.000000
     72 O3    c       0.000052      0.000029      0.000293      0.000000
     73 O3    c       0.000074      0.000030     -0.001462      0.000000
     74 O3    c       0.000044      0.000045     -0.000231      0.000000
     75 O3    c      -0.000264      0.000269      0.000370      0.000000
     76 O3    c      -0.000470      0.000414      0.000615      0.000000
     77 O1    c       0.000578      0.000629      0.001383      0.000000
     78 O3    c       0.000218     -0.000266     -0.000666      0.000000
     79 O2    c      -0.000210     -0.000065     -0.000134      0.000000
     80 O2    c      -0.000088      0.000086     -0.000037      0.000000
     81 O2    c      -0.000020     -0.000021     -0.000013      0.000000
     82 O2    c       0.000010      0.000015     -0.000113      0.000000
     83 O2    c      -0.000103      0.000073      0.000051      0.000000
     84 O2    c       0.000046     -0.000080      0.000121      0.000000
     85 O2    c      -0.000015     -0.000100     -0.000076      0.000000
     86 O2    c       0.000037      0.000370      0.000612      0.000000
     87 O2    c       0.000196     -0.000137     -0.000236      0.000000
     88 O2    c       0.000144      0.000152      0.000018      0.000000
     89 O2    c       0.000052     -0.000100     -0.000025      0.000000
     90 O2    c       0.000161      0.000097      0.000024      0.000000
     91 O2    c      -0.000000     -0.000008     -0.000209      0.000000
     92 O2    c      -0.000055      0.000048     -0.000555      0.000000
     93 O2    c       0.000028     -0.000029     -0.000150      0.000000
     94 O2    c      -0.000020      0.000020     -0.000130      0.000000
     95 O2    c       0.000072     -0.000138     -0.001218      0.000000
     96 O2    c      -0.000030     -0.000024      0.000561      0.000000
     97 O2    c       0.000366     -0.000265     -0.000387      0.000000
     98 O2    c       0.000027      0.000016     -0.000071      0.000000
     99 O2    c       0.000054     -0.000022      0.000064      0.000000
    100 O2    c      -0.000059      0.000092     -0.000205      0.000000
    101 O2    c      -0.000044     -0.000168     -0.000546      0.000000
    102 O2    c       0.000120     -0.000106     -0.000618      0.000000
    103 O2    c       0.000038     -0.000042      0.000060      0.000000
    104 O2    c       0.000131     -0.000078     -0.000081      0.000000
    105 O3    c      -0.000002      0.000081      0.000054      0.000000
    106 O2    c       0.000071     -0.000085      0.000007      0.000000
    107 O2    c      -0.000144     -0.000029      0.000231      0.000000
    108 O2    c      -0.000032      0.000178      0.000303      0.000000
    109 O3    c      -0.000091     -0.000036     -0.000491      0.000000
    110 O3    c       0.000178     -0.000205     -0.000205      0.000000
    111 O3    c       0.000064     -0.000094      0.000558      0.000000
    112 O3    c      -0.000049      0.000070      0.000102      0.000000
    113 O3    c       0.000031     -0.000419     -0.001991      0.000000
    114 O3    c       0.000054     -0.000086     -0.000269      0.000000
    115 O2    c      -0.000132      0.000024      0.000037      0.000000
    116 O2    c      -0.000132      0.000303      0.000186      0.000000
    117 O2    c      -0.000064      0.000055     -0.000042      0.000000
    118 O2    c      -0.000138      0.000041      0.000202      0.000000
    119 O2    c       0.000038     -0.000015      0.000216      0.000000
    120 O3    c      -0.000093      0.000687      0.000709      0.000000
    121 O3    c      -0.000030      0.000130      0.000177      0.000000
    122 O3    c      -0.000166      0.000318     -0.000333      0.000000
    123 O3    c       0.000100      0.000163      0.000287      0.000000
    124 O3    c      -0.000151     -0.000053      0.000118      0.000000
    125 O3    c      -0.000819      0.000102     -0.001244      0.000000
    126 O3    c      -0.000490      0.000146     -0.000490      0.000000
    127 O3    c      -0.000405      0.000271      0.000114      0.000000
    128 O3    c      -0.000137      0.000033      0.000101      0.000000
    129 O3    c      -0.000263      0.000087     -0.000154      0.000000
    130 O3    c      -0.000025      0.000066     -0.000505      0.000000
    131 O3    c       0.000134     -0.000131      0.000407      0.000000
    132 O3    c       0.000151      0.000356     -0.000408      0.000000
    133 O2    c      -0.000325      0.000359      0.000003      0.000000
    134 O2    c      -0.000192      0.000017      0.000111      0.000000
    135 O3    c       0.000142     -0.000288      0.000225      0.000000
    136 O2    c      -0.000085      0.000184     -0.000077      0.000000
    137 O2    c      -0.000061      0.000046      0.000065      0.000000
    138 O2    c       0.000073     -0.000301     -0.000211      0.000000
    139 O3    c       0.000378     -0.000139     -0.000960      0.000000
    140 O3    c       0.000320     -0.000056     -0.000091      0.000000
    141 O3    c       0.000144     -0.000229      0.000245      0.000000
    142 O3    c       0.000311      0.000636     -0.000604      0.000000
    143 O3    c       0.000042     -0.000087      0.000628      0.000000
    144 O3    c       0.000326     -0.000418     -0.000279      0.000000
    145 O2    c      -0.000005     -0.000009      0.000092      0.000000
    146 O2    c       0.000021     -0.000104     -0.000116      0.000000
    147 O2    c       0.000076     -0.000039      0.000188      0.000000
    148 O2    c      -0.000037     -0.000032     -0.000124      0.000000
    149 O2    c      -0.000024     -0.000006     -0.000065      0.000000
    150 O2    c      -0.000221      0.000208     -0.000471      0.000000
    151 O2    c       0.000046      0.000022      0.000018      0.000000
    152 O2    c      -0.000050      0.000056     -0.001403      0.000000
    153 O2    c      -0.000130      0.000195     -0.000352      0.000000
    154 O2    c       0.000028     -0.000049     -0.000831      0.000000
    155 O2    c       0.000026      0.000026     -0.000152      0.000000
    156 O2    c      -0.000097      0.000245     -0.001709      0.000000
    157 O2    c      -0.000039      0.000018      0.000244      0.000000
    158 O2    c      -0.000070     -0.000106      0.000302      0.000000
    159 O2    c       0.000088     -0.000058     -0.000973      0.000000
    160 O2    c      -0.000002      0.000038     -0.000622      0.000000
    161 O3    c       0.000130     -0.000416      0.001014      0.000000
    162 O2    c       0.000149     -0.000096      0.000667      0.000000
    163 O2    c      -0.000079      0.000159     -0.000134      0.000000
    164 O2    c      -0.000378     -0.000133      0.000033      0.000000
    165 O3    c       0.000329     -0.000281      0.000594      0.000000
    166 O2    c       0.000052     -0.000077     -0.000124      0.000000
    167 O2    c      -0.000160      0.000033     -0.000080      0.000000
    168 O3    c       0.000204     -0.000259     -0.000992      0.000000
    169 O3    c       0.000130     -0.000055      0.000023      0.000000
    170 O3    c      -0.000459     -0.000080      0.001649      0.000000
    171 O3    c       0.000113     -0.000127      0.000186      0.000000
    172 O3    c       0.000227      0.000050      0.000381      0.000000
    173 O3    c       0.000005     -0.000078     -0.000057      0.000000
    174 O3    c       0.000435     -0.000634     -0.000011      0.000000
    175 O3    c       0.000106      0.000103      0.001297      0.000000
    176 O3    c      -0.000130      0.000039      0.000205      0.000000
    177 O3    c      -0.000182      0.000080      0.000740      0.000000
    178 O3    c       0.000130     -0.000283     -0.001056      0.000000
    179 O1    c      -0.000514      0.000045      0.000293      0.000000
    180 O3    c      -0.000158      0.000093     -0.000397      0.000000
    181 F     c       0.000073      0.000013     -0.000273      0.000000
    182 F     c      -0.000022     -0.000078      0.000080      0.000000
    183 F     c       0.000118     -0.000120     -0.000051      0.000000
    184 F     c       0.000086      0.000106     -0.000264      0.000000
    185 F     c      -0.000079     -0.000037     -0.000375      0.000000
    186 F     c       0.000067     -0.000072     -0.000091      0.000000
    187 O2    s      -0.000024      0.000008      0.000069      0.000000
    188 O2    s       0.000078     -0.000041     -0.000227      0.000000
    189 O2    s      -0.000003      0.000020      0.000012      0.000000
    190 O2    s      -0.000002     -0.000008     -0.000057      0.000000
    191 O2    s       0.000019      0.000024     -0.000079      0.000000
    192 O2    s       0.000003     -0.000175      0.000081      0.000000
    193 O3    s       0.000302     -0.000176     -0.000227      0.000000
    194 O3    s       0.000027      0.000116      0.000182      0.000000
    195 O3    s      -0.000066      0.000307      0.000213      0.000000
    196 O3    s       0.000018      0.000061     -0.000034      0.000000
    197 O3    s       0.000276      0.000407     -0.000378      0.000000
    198 O3    s      -0.000107      0.000136     -0.000347      0.000000
    199 O3    s      -0.000155      0.000209      0.000493      0.000000
    200 O3    s      -0.000119      0.000036      0.000203      0.000000
    201 O3    s       0.000194     -0.000120     -0.000094      0.000000
    202 O3    s       0.000260     -0.000476      0.000001      0.000000
    203 O1    s      -0.000598     -0.000482     -0.001029      0.000000
    204 O3    s      -0.000070      0.000151      0.000426      0.000000
    205 O2    s      -0.000064      0.000030     -0.000045      0.000000
    206 O2    s       0.000169     -0.000127      0.000190      0.000000
    207 O2    s       0.000024      0.000095      0.000083      0.000000
    208 O2    s       0.000066     -0.000013      0.000007      0.000000
    209 O2    s       0.000006      0.000023     -0.000062      0.000000
    210 O2    s      -0.000043      0.000065     -0.000149      0.000000
    211 O2    s      -0.000068      0.000053     -0.000010      0.000000
    212 O2    s      -0.000290     -0.000019      0.000071      0.000000
    213 O2    s      -0.000164      0.000072      0.000057      0.000000
    214 O2    s      -0.000070      0.000074     -0.000049      0.000000
    215 O2    s       0.000265     -0.000276     -0.000132      0.000000
    216 O2    s      -0.000178     -0.000066      0.000137      0.000000
    217 O2    s       0.000043     -0.000062      0.000040      0.000000
    218 O2    s       0.000050      0.000063      0.000104      0.000000
    219 O2    s      -0.000045      0.000097      0.000259      0.000000
    220 O2    s       0.000038     -0.000008      0.000184      0.000000
    221 O2    s      -0.000123     -0.000032      0.000075      0.000000
    222 O2    s       0.000062     -0.000012     -0.000068      0.000000
    223 O2    s       0.000143      0.000059      0.000320      0.000000
    224 O2    s      -0.000017     -0.000029      0.000079      0.000000
    225 O2    s      -0.000007      0.000047     -0.000068      0.000000
    226 O2    s      -0.000045     -0.000026     -0.000156      0.000000
    227 O2    s       0.000027      0.000028      0.000352      0.000000
    228 O2    s      -0.000113     -0.000003      0.000540      0.000000
    229 O2    s       0.000053     -0.000004     -0.000409      0.000000
    230 O2    s       0.000274     -0.000179      0.000105      0.000000
    231 O3    s       0.000064     -0.000061      0.000034      0.000000
    232 O2    s       0.000166     -0.000173      0.000305      0.000000
    233 O2    s      -0.000000      0.000012     -0.000154      0.000000
    234 O2    s       0.000234     -0.000132     -0.000520      0.000000
    235 O3    s      -0.000032     -0.000061     -0.000598      0.000000
    236 O3    s       0.000036      0.000300     -0.000454      0.000000
    237 O3    s       0.000109     -0.000139      0.000441      0.000000
    238 O3    s       0.000092     -0.000025      0.000040      0.000000
    239 O3    s       0.000118      0.000849      0.001155      0.000000
    240 O3    s      -0.000024      0.000074      0.000152      0.000000
    241 O2    s       0.000084      0.000087     -0.000134      0.000000
    242 O2    s       0.000114      0.000083      0.000289      0.000000
    243 O2    s      -0.000134      0.000122      0.000530      0.000000
    244 O2    s      -0.000040      0.000019     -0.000310      0.000000
    245 O2    s      -0.000025     -0.000034     -0.000408      0.000000
    246 O3    s       0.000120     -0.000064     -0.001014      0.000000
    247 O3    s      -0.000173      0.000040     -0.000307      0.000000
    248 O3    s       0.000159     -0.000182      0.001016      0.000000
    249 O3    s       0.000143     -0.000150     -0.000187      0.000000
    250 O3    s       0.000097      0.000106      0.000113      0.000000
    251 O3    s       0.000007     -0.000190      0.000101      0.000000
    252 O3    s       0.000299      0.000151      0.000455      0.000000
    253 O3    s       0.000374     -0.000140      0.000075      0.000000
    254 O3    s       0.000101      0.000013      0.000067      0.000000
    255 O3    s       0.000126      0.000029     -0.000311      0.000000
    256 O3    s       0.000163     -0.000057      0.000075      0.000000
    257 O3    s      -0.000040     -0.000007     -0.000131      0.000000
    258 O3    s      -0.000040     -0.000108      0.000633      0.000000
    259 O2    s      -0.000085      0.000215      0.000134      0.000000
    260 O2    s      -0.000023     -0.000013     -0.000687      0.000000
    261 O3    s      -0.000013      0.000081      0.000735      0.000000
    262 O2    s       0.000056      0.000062      0.000162      0.000000
    263 O2    s      -0.000049      0.000027     -0.000159      0.000000
    264 O2    s       0.000121      0.000147     -0.000424      0.000000
    265 O3    s      -0.000312     -0.000210      0.000857      0.000000
    266 O3    s       0.000033     -0.000154     -0.000239      0.000000
    267 O3    s      -0.000142     -0.000008     -0.000086      0.000000
    268 O3    s       0.000466     -0.000455     -0.000880      0.000000
    269 O3    s       0.000298     -0.000131     -0.000430      0.000000
    270 O3    s      -0.000422      0.000286      0.000433      0.000000
    271 O2    s       0.000128     -0.000264      0.000318      0.000000
    272 O2    s       0.000189     -0.000076     -0.000406      0.000000
    273 O2    s       0.000087      0.000128      0.000104      0.000000
    274 O2    s      -0.000098      0.000067      0.000185      0.000000
    275 O2    s       0.000063     -0.000092      0.000085      0.000000
    276 O2    s       0.000029     -0.000061      0.000337      0.000000
    277 O2    s       0.000039      0.000057      0.000337      0.000000
    278 O2    s       0.000019     -0.000086     -0.000351      0.000000
    279 O2    s       0.000006      0.000072     -0.000036      0.000000
    280 O2    s      -0.000070     -0.000003      0.000242      0.000000
    281 O2    s      -0.000037     -0.000033      0.000124      0.000000
    282 O2    s       0.000012      0.000083      0.000327      0.000000
    283 O2    s       0.000050     -0.000020      0.000263      0.000000
    284 O2    s       0.000142     -0.000353     -0.000204      0.000000
    285 O2    s       0.000007      0.000007     -0.000097      0.000000
    286 O2    s      -0.000013     -0.000123      0.000173      0.000000
    287 O3    s       0.000251     -0.000206      0.000524      0.000000
    288 O2    s      -0.000043      0.000076      0.000129      0.000000
    289 O2    s       0.000120     -0.000250      0.000088      0.000000
    290 O2    s      -0.000032     -0.000006      0.000184      0.000000
    291 O3    s      -0.000155      0.000060      0.000168      0.000000
    292 O2    s      -0.000057      0.000082     -0.000065      0.000000
    293 O2    s       0.000053     -0.000222      0.000332      0.000000
    294 O3    s       0.000080      0.000210     -0.000314      0.000000
    295 O3    s      -0.000005      0.000051      0.000088      0.000000
    296 O3    s       0.000266     -0.000169     -0.001403      0.000000
    297 O3    s      -0.000203      0.000125     -0.000235      0.000000
    298 O3    s      -0.000183     -0.000070     -0.000289      0.000000
    299 O3    s      -0.000125      0.000155     -0.000615      0.000000
    300 O3    s      -0.000146      0.000175      0.000424      0.000000
    301 O3    s      -0.000032      0.000074     -0.001052      0.000000
    302 O3    s      -0.000190     -0.000027     -0.000102      0.000000
    303 O3    s       0.000055     -0.000012      0.000009      0.000000
    304 O3    s      -0.000103      0.000295      0.000515      0.000000
    305 O1    s      -0.000116     -0.000150      0.000141      0.000000
    306 O3    s       0.000242     -0.000149      0.000349      0.000000
    307 F     s      -0.000067     -0.000415     -0.000036      0.000000
    308 F     s      -0.000140      0.000289      0.000215      0.000000
    309 F     s       0.000278     -0.000290      0.000679      0.000000
    310 F     s      -0.000048     -0.000185      0.000268      0.000000
    311 F     s      -0.000175     -0.000013      0.000933      0.000000
    312 F     s       0.000242     -0.000125      0.000461      0.000000
--------------------------------------------------------------------------------
  Maximum abs         0.000885      0.000849      0.001991      0.000000
--------------------------------------------------------------------------------


  Time to end of optimisation =      31.0615 seconds


  Peak dynamic memory used =      19.13 MB 


  Timing analysis for GULP :

--------------------------------------------------------------------------------
  Task / Subroutine                                          Time (Seconds)
--------------------------------------------------------------------------------
  Calculation of reciprocal space energy and derivatives          0.7465
  Calculation of real space energy and derivatives               17.5830
  Calculation of three-body energy and derivatives                1.0244
--------------------------------------------------------------------------------
  Total CPU time                                                 31.0616
--------------------------------------------------------------------------------


  Dump file written as 14.2.res                                                
  CIF file written as 14.2.cif                                                


  Job Finished at 01:35.47  5th January    2017                               

