********************************************************************************
*                       GENERAL UTILITY LATTICE PROGRAM                        *
*                                 Julian Gale                                  *
*                      Nanochemistry Research Institute                        *
*                           Department of Chemistry                            *
*                    Curtin University, Western Australia                      *
********************************************************************************
* Version = 4.2.0 * Last modified =  20th January 2014                         *
********************************************************************************
*  optimise     - perform optimisation run                                     *
*  conp         - constant pressure calculation                                *
*  qok          - running with non charge neutral cell is OK                   *
*  rfo          - optimisation step to be determined by RFO method             *
********************************************************************************

  Job Started  at 07:51.18  5th January    2017                               

  Number of CPUs =     1


  Total number of configurations input =   1

********************************************************************************
*  Input for Configuration =   1                                               *
********************************************************************************

  Formula = Ge25Si35O120F6                                              

  Number of irreducible atoms/shells =     312


  Total number atoms/shells =     312

  Dimensionality = 3               :  Bulk   


  Charge on solid   =  -6.000000 =>neutralising background added


  Cartesian lattice vectors (Angstroms) :

       12.157387    0.000000    0.000000
       -6.084671   10.527858    0.000000
       -0.707703   -0.191235   29.851742

  Cell parameters (Angstroms/Degrees):

  a =      12.1574    alpha =  89.6382
  b =      12.1597    beta  =  91.3580
  c =      29.8607    gamma = 120.0262

  Initial cell volume =        3820.761409 Angs**3

  Temperature of configuration =  0.000     K 

  Pressure of configuration =         0.000 GPa 

  Fractional coordinates of asymmetric unit :

--------------------------------------------------------------------------------
   No.  Atomic       x           y          z         Charge      Occupancy
        Label      (Frac)      (Frac)     (Frac)        (e)         (Frac)  
--------------------------------------------------------------------------------
      1 Ge    c    0.699600    0.375700    0.033890     4.00000    1.000000    
      2 Ge    c    0.630821 *  0.296780 *  0.371324 *   4.00000    1.000000    
      3 Ge    c    0.682582 *  0.302099 *  0.700762 *   4.00000    1.000000    
      4 Si    c    0.344075 *  0.635289 *  0.548621 *   4.00000    1.000000    
      5 Si    c    0.372757 *  0.688594 *  0.879583 *   4.00000    1.000000    
      6 Si    c    0.298567 *  0.665390 *  0.211652 *   4.00000    1.000000    
      7 Ge    c    0.378887 *  0.691515 *  0.314162 *   4.00000    1.000000    
      8 Ge    c    0.331174 *  0.612930 *  0.981539 *   4.00000    1.000000    
      9 Ge    c    0.282975 *  0.660984 *  0.644098 *   4.00000    1.000000    
     10 Ge    c    0.636329 *  0.300180 *  0.800082 *   4.00000    1.000000    
     11 Ge    c    0.683599 *  0.367642 *  0.470836 *   4.00000    1.000000    
     12 Ge    c    0.682351 *  0.310109 *  0.138763 *   4.00000    1.000000    
     13 Ge    c    0.524144 *  0.422648 *  0.963890 *   4.00000    1.000000    
     14 Ge    c    0.572619 *  0.076259 *  0.301097 *   4.00000    1.000000    
     15 Ge    c    0.901193 *  0.474925 *  0.634528 *   4.00000    1.000000    
     16 Ge    c    0.504684 *  0.573685 *  0.486379 *   4.00000    1.000000    
     17 Ge    c    0.420474 *  0.912462 *  0.818203 *   4.00000    1.000000    
     18 Ge    c    0.070182 *  0.495757 *  0.147301 *   4.00000    1.000000    
     19 Ge    c    0.440140 *  0.525088 *  0.380825 *   4.00000    1.000000    
     20 Ge    c    0.115142 *  0.567294 *  0.048783 *   4.00000    1.000000    
     21 Ge    c    0.450052 *  0.884062 *  0.712262 *   4.00000    1.000000    
     22 Ge    c    0.577924 *  0.461940 *  0.862353 *   4.00000    1.000000    
     23 Si    c    0.913199 *  0.423805 *  0.531354 *   4.00000    1.000000    
     24 Ge    c    0.513988 *  0.086235 *  0.201051 *   4.00000    1.000000    
     25 Ge    c    0.288984 *  0.406090 *  0.859686 *   4.00000    1.000000    
     26 Ge    c    0.584654 *  0.864519 *  0.194189 *   4.00000    1.000000    
     27 Ge    c    0.134961 *  0.707162 *  0.529097 *   4.00000    1.000000    
     28 Si    c    0.724138 *  0.589886 *  0.366242 *   4.00000    1.000000    
     29 Si    c    0.391806 *  0.111819 *  0.699497 *   4.00000    1.000000    
     30 Si    c    0.898174 *  0.281098 *  0.031910 *   4.00000    1.000000    
     31 Si    c    0.418452 *  0.280441 *  0.498338 *   4.00000    1.000000    
     32 Si    c    0.884624 *  0.587743 *  0.163183 *   4.00000    1.000000    
     33 Si    c    0.716682 *  0.116138 *  0.828673 *   4.00000    1.000000    
     34 Si    c    0.616749 *  0.694269 *  0.994688 *   4.00000    1.000000    
     35 Si    c    0.099452 *  0.386525 *  0.662213 *   4.00000    1.000000    
     36 Si    c    0.300348 *  0.895616 *  0.328874 *   4.00000    1.000000    
     37 Si    c    0.243230 *  0.324672 *  0.961514 *   4.00000    1.000000    
     38 Si    c    0.667659 *  0.891922 *  0.296856 *   4.00000    1.000000    
     39 Si    c    0.101382 *  0.761958 *  0.630451 *   4.00000    1.000000    
     40 Si    c    0.786433 *  0.651246 *  0.468656 *   4.00000    1.000000    
     41 Si    c    0.347693 *  0.122941 *  0.802296 *   4.00000    1.000000    
     42 Si    c    0.885443 *  0.218802 *  0.133836 *   4.00000    1.000000    
     43 Si    c    0.352973 *  0.239849 *  0.395698 *   4.00000    1.000000    
     44 Si    c    0.919320 *  0.655192 *  0.061055 *   4.00000    1.000000    
     45 Si    c    0.740774 *  0.082275 *  0.726224 *   4.00000    1.000000    
     46 Ge    c    0.656305 *  0.746224 *  0.891182 *   4.00000    1.000000    
     47 Ge    c    0.119082 *  0.350029 *  0.559014 *   4.00000    1.000000    
     48 Si    c    0.238528 *  0.886335 *  0.226314 *   4.00000    1.000000    
     49 Si    c    0.969156 *  0.107192 *  0.980158 *   4.00000    1.000000    
     50 Si    c    0.888453 *  0.837185 *  0.314465 *   4.00000    1.000000    
     51 Si    c    0.141555 *  0.031603 *  0.645983 *   4.00000    1.000000    
     52 Si    c    0.059311 *  0.882607 *  0.479605 *   4.00000    1.000000    
     53 Si    c    0.110910 *  0.156978 *  0.812071 *   4.00000    1.000000    
     54 Si    c    0.835115 *  0.941606 *  0.146775 *   4.00000    1.000000    
     55 Si    c    0.128755 *  0.968182 *  0.379001 *   4.00000    1.000000    
     56 Si    c    0.861914 *  0.873673 *  0.046750 *   4.00000    1.000000    
     57 Si    c    0.012418 *  0.133672 *  0.711706 *   4.00000    1.000000    
     58 Si    c    0.881600 *  0.027666 *  0.878101 *   4.00000    1.000000    
     59 Si    c    0.164911 *  0.120620 *  0.544291 *   4.00000    1.000000    
     60 Si    c    0.960474 *  0.832242 *  0.212875 *   4.00000    1.000000    
     61 O2    c    0.939970 *  0.991776 *  0.013746 *   0.87073    1.000000    
     62 O2    c    0.009469 *  0.930668 *  0.345556 *   0.87073    1.000000    
     63 O2    c    0.049768 *  0.057705 *  0.676815 *   0.87073    1.000000    
     64 O2    c    0.087212 *  0.998181 *  0.512591 *   0.87073    1.000000    
     65 O2    c    0.003442 *  0.070640 *  0.847302 *   0.87073    1.000000    
     66 O2    c    0.926634 *  0.920840 *  0.181956 *   0.87073    1.000000    
     67 O1    c    0.348825 *  0.566262 *  0.348678 *   1.73396    1.000000    
     68 O1    c    0.408864 *  0.754159 *  0.681988 *   1.73396    1.000000    
     69 O1    c    0.242717 *  0.650576 *  0.014851 *   1.73396    1.000000    
     70 O1    c    0.672776 *  0.441033 *  0.827552 *   1.73396    1.000000    
     71 O1    c    0.543902 *  0.207294 *  0.164809 *   1.73396    1.000000    
     72 O3    c    0.794958 *  0.337118 *  0.501166 *   1.33043    1.000000    
     73 O1    c    0.585901 *  0.339431 *  0.995901 *   1.73396    1.000000    
     74 O1    c    0.755721 *  0.408512 *  0.658917 *   1.73396    1.000000    
     75 O1    c    0.660766 *  0.218353 *  0.332811 *   1.73396    1.000000    
     76 O3    c    0.465789 *  0.664335 *  0.520296 *   1.33043    1.000000    
     77 O3    c    0.202768 *  0.543159 *  0.185654 *   1.33043    1.000000    
     78 O3    c    0.338632 *  0.783851 *  0.854027 *   1.33043    1.000000    
     79 O2    c    0.120200 *  0.200886 *  0.981639 *   0.87073    1.000000    
     80 O2    c    0.790101 *  0.887592 *  0.317500 *   0.87073    1.000000    
     81 O2    c    0.086287 *  0.880844 *  0.647022 *   0.87073    1.000000    
     82 O2    c    0.912253 *  0.778678 *  0.486431 *   0.87073    1.000000    
     83 O2    c    0.223905 *  0.124938 *  0.820092 *   0.87073    1.000000    
     84 O2    c    0.867757 *  0.086531 *  0.153319 *   0.87073    1.000000    
     85 O2    c    0.222638 *  0.119076 *  0.375840 *   0.87073    1.000000    
     86 O2    c    0.924740 *  0.784749 *  0.043313 *   0.87073    1.000000    
     87 O2    c    0.860532 *  0.071573 *  0.707778 *   0.87073    1.000000    
     88 O3    c    0.786600 *  0.881793 *  0.869419 *   1.33043    1.000000    
     89 O3    c    0.117534 *  0.218945 *  0.534695 *   1.33043    1.000000    
     90 O2    c    0.108036 *  0.875931 *  0.206668 *   0.87073    1.000000    
     91 O2    c    0.935070 *  0.846706 *  0.264145 *   0.87073    1.000000    
     92 O2    c    0.139203 *  0.078376 *  0.595887 *   0.87073    1.000000    
     93 O2    c    0.923068 *  0.052546 *  0.930331 *   0.87073    1.000000    
     94 O2    c    0.053733 *  0.117798 *  0.761739 *   0.87073    1.000000    
     95 O2    c    0.872191 *  0.923699 *  0.097061 *   0.87073    1.000000    
     96 O2    c    0.079381 *  0.931897 *  0.428900 *   0.87073    1.000000    
     97 O2    c    0.898698 *  0.182714 *  0.995124 *   0.87073    1.000000    
     98 O2    c    0.821875 *  0.691414 *  0.330192 *   0.87073    1.000000    
     99 O2    c    0.286261 *  0.106456 *  0.663835 *   0.87073    1.000000    
    100 O3    c    0.144309 *  0.819268 *  0.489878 *   1.33043    1.000000    
    101 O3    c    0.169868 *  0.305158 *  0.820887 *   1.33043    1.000000    
    102 O3    c    0.687691 *  0.853052 *  0.156092 *   1.33043    1.000000    
    103 O2    c    0.202226 *  0.894196 *  0.365326 *   0.87073    1.000000    
    104 O2    c    0.713915 *  0.793203 *  0.032656 *   0.87073    1.000000    
    105 O2    c    0.081131 *  0.282503 *  0.700126 *   0.87073    1.000000    
    106 O2    c    0.813602 *  0.109029 *  0.865135 *   0.87073    1.000000    
    107 O2    c    0.315499 *  0.187114 *  0.534640 *   0.87073    1.000000    
    108 O2    c    0.874032 *  0.685802 *  0.197560 *   0.87073    1.000000    
    109 O3    c    0.303223 *  0.630341 *  0.263939 *   1.33043    1.000000    
    110 O3    c    0.384380 *  0.671310 *  0.600060 *   1.33043    1.000000    
    111 O3    c    0.351116 *  0.694818 *  0.932217 *   1.33043    1.000000    
    112 O1    c    0.715884 *  0.378013 *  0.750941 *   1.73396    1.000000    
    113 O1    c    0.639647 *  0.335402 *  0.087165 *   1.73396    1.000000    
    114 O1    c    0.679948 *  0.281028 *  0.424021 *   1.73396    1.000000    
    115 O3    c    0.364700 *  0.321254 *  0.980519 *   1.33043    1.000000    
    116 O3    c    0.679269 *  0.019963 *  0.314971 *   1.33043    1.000000    
    117 O3    c    0.978972 *  0.635495 *  0.648433 *   1.33043    1.000000    
    118 O3    c    0.668675 *  0.652095 *  0.491975 *   1.33043    1.000000    
    119 O3    c    0.345662 *  0.000710 *  0.824637 *   1.33043    1.000000    
    120 O3    c    0.006713 *  0.331146 *  0.158753 *   1.33043    1.000000    
    121 O3    c    0.340371 *  0.362526 *  0.386884 *   1.33043    1.000000    
    122 O3    c    0.055613 *  0.671881 *  0.052275 *   1.33043    1.000000    
    123 O3    c    0.615710 *  0.949978 *  0.718838 *   1.33043    1.000000    
    124 O1    c    0.675396 *  0.626806 *  0.874027 *   1.73396    1.000000    
    125 O3    c    0.977119 *  0.336507 *  0.543564 *   1.33043    1.000000    
    126 O3    c    0.349537 *  0.017583 *  0.208619 *   1.33043    1.000000    
    127 O3    c    0.767602 *  0.279427 *  0.025173 *   1.33043    1.000000    
    128 O3    c    0.727265 *  0.462665 *  0.360028 *   1.33043    1.000000    
    129 O3    c    0.518969 *  0.241925 *  0.690198 *   1.33043    1.000000    
    130 O3    c    0.283625 *  0.720301 *  0.529915 *   1.33043    1.000000    
    131 O3    c    0.280076 *  0.543920 *  0.863124 *   1.33043    1.000000    
    132 O3    c    0.443199 *  0.722644 *  0.194249 *   1.33043    1.000000    
    133 O3    c    0.314163 *  0.773207 *  0.339725 *   1.33043    1.000000    
    134 O3    c    0.478337 *  0.670046 *  0.007842 *   1.33043    1.000000    
    135 O3    c    0.218371 *  0.519540 *  0.676899 *   1.33043    1.000000    
    136 O3    c    0.719386 *  0.246206 *  0.836384 *   1.33043    1.000000    
    137 O3    c    0.549570 *  0.284382 *  0.507067 *   1.33043    1.000000    
    138 O3    c    0.757857 *  0.452526 *  0.168751 *   1.33043    1.000000    
    139 O3    c    0.819071 *  0.534631 *  0.032517 *   1.33043    1.000000    
    140 O3    c    0.469321 *  0.251998 *  0.368766 *   1.33043    1.000000    
    141 O3    c    0.731577 *  0.189835 *  0.697882 *   1.33043    1.000000    
    142 O3    c    0.248327 *  0.484128 *  0.538974 *   1.33043    1.000000    
    143 O3    c    0.518705 *  0.735999 *  0.868402 *   1.33043    1.000000    
    144 O2    c    0.259113 *  0.775037 *  0.206604 *   0.87073    1.000000    
    145 O3    c    0.543343 *  0.767987 *  0.315567 *   1.33043    1.000000    
    146 O3    c    0.240708 *  0.449156 *  0.978697 *   1.33043    1.000000    
    147 O3    c    0.227720 *  0.772761 *  0.652069 *   1.33043    1.000000    
    148 O3    c    0.471228 *  0.250648 *  0.817122 *   1.33043    1.000000    
    149 O3    c    0.798857 *  0.533155 *  0.483883 *   1.33043    1.000000    
    150 O3    c    0.757206 *  0.220048 *  0.144851 *   1.33043    1.000000    
    151 O3    c    0.232152 *  0.314789 *  0.907547 *   1.33043    1.000000    
    152 O3    c    0.673815 *  0.887430 *  0.243009 *   1.33043    1.000000    
    153 O3    c    0.103450 *  0.767543 *  0.576305 *   1.33043    1.000000    
    154 O2    c    0.778082 *  0.661322 *  0.414186 *   0.87073    1.000000    
    155 O2    c    0.330936 *  0.105196 *  0.747808 *   0.87073    1.000000    
    156 O2    c    0.906578 *  0.221590 *  0.079949 *   0.87073    1.000000    
    157 O2    c    0.357920 *  0.216721 *  0.449231 *   0.87073    1.000000    
    158 O2    c    0.885072 *  0.645688 *  0.113593 *   0.87073    1.000000    
    159 O2    c    0.771668 *  0.115798 *  0.779257 *   0.87073    1.000000    
    160 O3    c    0.665871 *  0.771703 *  0.948504 *   1.33043    1.000000    
    161 O3    c    0.127152 *  0.334921 *  0.616440 *   1.33043    1.000000    
    162 O2    c    0.229506 *  0.880638 *  0.280342 *   0.87073    1.000000    
    163 O3    c    0.620165 *  0.564923 *  0.996415 *   1.33043    1.000000    
    164 O3    c    0.433309 *  0.022889 *  0.334194 *   1.33043    1.000000    
    165 O3    c    0.970334 *  0.393751 *  0.659237 *   1.33043    1.000000    
    166 O3    c    0.430866 *  0.418411 *  0.504971 *   1.33043    1.000000    
    167 O3    c    0.577968 *  0.993236 *  0.836132 *   1.33043    1.000000    
    168 O3    c    0.009147 *  0.581779 *  0.176233 *   1.33043    1.000000    
    169 O3    c    0.581893 *  0.563408 *  0.356063 *   1.33043    1.000000    
    170 O3    c    0.015716 *  0.420379 *  0.023093 *   1.33043    1.000000    
    171 O3    c    0.418841 *  0.998323 *  0.690159 *   1.33043    1.000000    
    172 O1    c    0.433372 *  0.442265 *  0.841386 *   1.73396    1.000000    
    173 O3    c    0.028061 *  0.555863 *  0.511605 *   1.33043    1.000000    
    174 O1    c    0.556425 *  0.982627 *  0.177930 *   1.73396    1.000000    
    175 O1    c    0.592176 *  0.154910 *  0.250260 *   1.73396    1.000000    
    176 O3    c    0.873110 *  0.460122 *  0.578109 *   1.33043    1.000000    
    177 O1    c    0.564212 *  0.387830 *  0.912894 *   1.73396    1.000000    
    178 O1    c    0.392083 *  0.848448 *  0.765863 *   1.73396    1.000000    
    179 O1    c    0.168692 *  0.556566 *  0.100785 *   1.73396    1.000000    
    180 O1    c    0.462595 *  0.592135 *  0.432968 *   1.73396    1.000000    
    181 F     c    0.473259 *  0.918388 *  0.267207 *   0.56000    1.000000    
    182 F     c    0.143727 *  0.574590 *  0.603011 *   0.56000    1.000000    
    183 F     c    0.464124 *  0.524878 *  0.931683 *   0.56000    1.000000    
    184 F     c    0.563009 *  0.146073 *  0.769275 *   0.56000    1.000000    
    185 F     c    0.927431 *  0.446866 *  0.105806 *   0.56000    1.000000    
    186 F     c    0.591053 *  0.429743 *  0.439127 *   0.56000    1.000000    
    187 O2    s    0.934693 *  0.991407 *  0.013704 *  -2.87073    1.000000    
    188 O2    s    0.009436 *  0.924675 *  0.345842 *  -2.87073    1.000000    
    189 O2    s    0.055605 *  0.063073 *  0.677250 *  -2.87073    1.000000    
    190 O2    s    0.092762 *  0.999126 *  0.512487 *  -2.87073    1.000000    
    191 O2    s    0.001918 *  0.075276 *  0.846815 *  -2.87073    1.000000    
    192 O2    s    0.920746 *  0.913448 *  0.181621 *  -2.87073    1.000000    
    193 O1    s    0.358113 *  0.572412 *  0.348587 *  -3.73396    1.000000    
    194 O1    s    0.404113 *  0.759271 *  0.682123 *  -3.73396    1.000000    
    195 O1    s    0.240056 *  0.641445 *  0.014796 *  -3.73396    1.000000    
    196 O1    s    0.662559 *  0.433110 *  0.828524 *  -3.73396    1.000000    
    197 O1    s    0.551914 *  0.205879 *  0.165583 *  -3.73396    1.000000    
    198 O3    s    0.800857 *  0.348729 *  0.502584 *  -3.33043    1.000000    
    199 O1    s    0.592494 *  0.347738 *  0.997441 *  -3.73396    1.000000    
    200 O1    s    0.761065 *  0.405305 *  0.660311 *  -3.73396    1.000000    
    201 O1    s    0.652527 *  0.216291 *  0.334216 *  -3.73396    1.000000    
    202 O3    s    0.456859 *  0.654562 *  0.520468 *  -3.33043    1.000000    
    203 O3    s    0.205071 *  0.554005 *  0.186134 *  -3.33043    1.000000    
    204 O3    s    0.348074 *  0.784045 *  0.853878 *  -3.33043    1.000000    
    205 O2    s    0.116253 *  0.203282 *  0.979439 *  -2.87073    1.000000    
    206 O2    s    0.788479 *  0.882393 *  0.315049 *  -2.87073    1.000000    
    207 O2    s    0.093805 *  0.885134 *  0.645247 *  -2.87073    1.000000    
    208 O2    s    0.915015 *  0.776618 *  0.483865 *  -2.87073    1.000000    
    209 O2    s    0.224954 *  0.128124 *  0.817431 *  -2.87073    1.000000    
    210 O2    s    0.866075 *  0.084872 *  0.150621 *  -2.87073    1.000000    
    211 O2    s    0.225558 *  0.114907 *  0.378159 *  -2.87073    1.000000    
    212 O2    s    0.917489 *  0.781240 *  0.045449 *  -2.87073    1.000000    
    213 O2    s    0.864978 *  0.079288 *  0.710016 *  -2.87073    1.000000    
    214 O3    s    0.786893 *  0.887142 *  0.871961 *  -3.33043    1.000000    
    215 O3    s    0.122518 *  0.218787 *  0.537502 *  -3.33043    1.000000    
    216 O2    s    0.105617 *  0.872257 *  0.209350 *  -2.87073    1.000000    
    217 O2    s    0.932737 *  0.844001 *  0.263955 *  -2.87073    1.000000    
    218 O2    s    0.142215 *  0.077737 *  0.595847 *  -2.87073    1.000000    
    219 O2    s    0.923715 *  0.055896 *  0.930212 *  -2.87073    1.000000    
    220 O2    s    0.055341 *  0.123701 *  0.761675 *  -2.87073    1.000000    
    221 O2    s    0.867040 *  0.920099 *  0.096890 *  -2.87073    1.000000    
    222 O2    s    0.082741 *  0.930568 *  0.428843 *  -2.87073    1.000000    
    223 O2    s    0.906215 *  0.184367 *  0.997174 *  -2.87073    1.000000    
    224 O2    s    0.819367 *  0.697020 *  0.332067 *  -2.87073    1.000000    
    225 O2    s    0.281120 *  0.098767 *  0.665533 *  -2.87073    1.000000    
    226 O3    s    0.135124 *  0.817357 *  0.491729 *  -3.33043    1.000000    
    227 O3    s    0.172459 *  0.297638 *  0.822761 *  -3.33043    1.000000    
    228 O3    s    0.695053 *  0.862589 *  0.157820 *  -3.33043    1.000000    
    229 O2    s    0.204309 *  0.902144 *  0.363104 *  -2.87073    1.000000    
    230 O2    s    0.720193 *  0.792032 *  0.030412 *  -2.87073    1.000000    
    231 O2    s    0.075620 *  0.277069 *  0.697543 *  -2.87073    1.000000    
    232 O2    s    0.810768 *  0.101297 *  0.862729 *  -2.87073    1.000000    
    233 O2    s    0.310331 *  0.189537 *  0.532023 *  -2.87073    1.000000    
    234 O2    s    0.884105 *  0.691569 *  0.195787 *  -2.87073    1.000000    
    235 O3    s    0.309263 *  0.638811 *  0.263400 *  -3.33043    1.000000    
    236 O3    s    0.373271 *  0.666863 *  0.597937 *  -3.33043    1.000000    
    237 O3    s    0.351619 *  0.687616 *  0.931114 *  -3.33043    1.000000    
    238 O1    s    0.708106 *  0.366790 *  0.750174 *  -3.73396    1.000000    
    239 O1    s    0.647501 *  0.336322 *  0.087478 *  -3.73396    1.000000    
    240 O1    s    0.676328 *  0.288260 *  0.423327 *  -3.73396    1.000000    
    241 O3    s    0.363344 *  0.328744 *  0.977438 *  -3.33043    1.000000    
    242 O3    s    0.670630 *  0.010629 *  0.312141 *  -3.33043    1.000000    
    243 O3    s    0.984579 *  0.635022 *  0.645687 *  -3.33043    1.000000    
    244 O3    s    0.666893 *  0.645729 *  0.489316 *  -3.33043    1.000000    
    245 O3    s    0.351771 *  0.005317 *  0.822037 *  -3.33043    1.000000    
    246 O3    s    0.998796 *  0.331220 *  0.155440 *  -3.33043    1.000000    
    247 O3    s    0.349341 *  0.362766 *  0.387308 *  -3.33043    1.000000    
    248 O3    s    0.046308 *  0.662505 *  0.052925 *  -3.33043    1.000000    
    249 O3    s    0.616983 *  0.959226 *  0.719158 *  -3.33043    1.000000    
    250 O1    s    0.667520 *  0.626639 *  0.874820 *  -3.73396    1.000000    
    251 O3    s    0.983646 *  0.345413 *  0.543837 *  -3.33043    1.000000    
    252 O3    s    0.350138 *  0.009091 *  0.209911 *  -3.33043    1.000000    
    253 O3    s    0.776130 *  0.286539 *  0.026511 *  -3.33043    1.000000    
    254 O3    s    0.720500 *  0.464925 *  0.361476 *  -3.33043    1.000000    
    255 O3    s    0.517969 *  0.233213 *  0.691930 *  -3.33043    1.000000    
    256 O3    s    0.277428 *  0.711692 *  0.531560 *  -3.33043    1.000000    
    257 O3    s    0.289362 *  0.546772 *  0.864396 *  -3.33043    1.000000    
    258 O3    s    0.441796 *  0.728995 *  0.195785 *  -3.33043    1.000000    
    259 O3    s    0.317946 *  0.778574 *  0.336692 *  -3.33043    1.000000    
    260 O3    s    0.479739 *  0.667728 *  0.004526 *  -3.33043    1.000000    
    261 O3    s    0.210655 *  0.515705 *  0.673177 *  -3.33043    1.000000    
    262 O3    s    0.713564 *  0.236273 *  0.833176 *  -3.33043    1.000000    
    263 O3    s    0.544716 *  0.289366 *  0.503847 *  -3.33043    1.000000    
    264 O3    s    0.764362 *  0.454689 *  0.165925 *  -3.33043    1.000000    
    265 O3    s    0.820143 *  0.534574 *  0.035494 *  -3.33043    1.000000    
    266 O3    s    0.469347 *  0.254280 *  0.371751 *  -3.33043    1.000000    
    267 O3    s    0.728618 *  0.187809 *  0.700867 *  -3.33043    1.000000    
    268 O3    s    0.246283 *  0.486656 *  0.541440 *  -3.33043    1.000000    
    269 O3    s    0.515475 *  0.732273 *  0.871187 *  -3.33043    1.000000    
    270 O2    s    0.260999 *  0.776069 *  0.209183 *  -2.87073    1.000000    
    271 O3    s    0.542008 *  0.773623 *  0.313726 *  -3.33043    1.000000    
    272 O3    s    0.248257 *  0.450524 *  0.977301 *  -3.33043    1.000000    
    273 O3    s    0.218791 *  0.764758 *  0.649492 *  -3.33043    1.000000    
    274 O3    s    0.467628 *  0.240913 *  0.814946 *  -3.33043    1.000000    
    275 O3    s    0.790684 *  0.535357 *  0.481588 *  -3.33043    1.000000    
    276 O3    s    0.763912 *  0.226821 *  0.143374 *  -3.33043    1.000000    
    277 O3    s    0.237779 *  0.322895 *  0.908924 *  -3.33043    1.000000    
    278 O3    s    0.666168 *  0.886132 *  0.244287 *  -3.33043    1.000000    
    279 O3    s    0.105735 *  0.762104 *  0.577641 *  -3.33043    1.000000    
    280 O2    s    0.773287 *  0.652949 *  0.414672 *  -2.87073    1.000000    
    281 O2    s    0.338973 *  0.107609 *  0.748172 *  -2.87073    1.000000    
    282 O2    s    0.903743 *  0.227445 *  0.080451 *  -2.87073    1.000000    
    283 O2    s    0.363396 *  0.225256 *  0.448592 *  -2.87073    1.000000    
    284 O2    s    0.888542 *  0.640897 *  0.113069 *  -2.87073    1.000000    
    285 O2    s    0.763162 *  0.112543 *  0.778730 *  -2.87073    1.000000    
    286 O3    s    0.660379 *  0.762317 *  0.948336 *  -3.33043    1.000000    
    287 O3    s    0.124017 *  0.341002 *  0.616131 *  -3.33043    1.000000    
    288 O2    s    0.237556 *  0.882722 *  0.279558 *  -2.87073    1.000000    
    289 O3    s    0.613558 *  0.568554 *  0.994130 *  -3.33043    1.000000    
    290 O3    s    0.428921 *  0.013337 *  0.331490 *  -3.33043    1.000000    
    291 O3    s    0.977201 *  0.399505 *  0.657590 *  -3.33043    1.000000    
    292 O3    s    0.435729 *  0.417977 *  0.502853 *  -3.33043    1.000000    
    293 O3    s    0.578425 *  0.998414 *  0.833992 *  -3.33043    1.000000    
    294 O3    s    0.000501 *  0.576463 *  0.172922 *  -3.33043    1.000000    
    295 O3    s    0.583958 *  0.562751 *  0.358987 *  -3.33043    1.000000    
    296 O3    s    0.011673 *  0.417946 *  0.025918 *  -3.33043    1.000000    
    297 O3    s    0.418728 *  0.000760 *  0.692824 *  -3.33043    1.000000    
    298 O1    s    0.431493 *  0.440787 *  0.844321 *  -3.73396    1.000000    
    299 O3    s    0.026695 *  0.556540 *  0.514797 *  -3.33043    1.000000    
    300 O1    s    0.555499 *  0.980688 *  0.180875 *  -3.73396    1.000000    
    301 O1    s    0.584795 *  0.144003 *  0.249978 *  -3.73396    1.000000    
    302 O3    s    0.879271 *  0.458134 *  0.578642 *  -3.33043    1.000000    
    303 O1    s    0.562133 *  0.395885 *  0.912844 *  -3.73396    1.000000    
    304 O1    s    0.398542 *  0.856101 *  0.766074 *  -3.73396    1.000000    
    305 O1    s    0.157777 *  0.553248 *  0.099781 *  -3.73396    1.000000    
    306 O1    s    0.464106 *  0.585636 *  0.433084 *  -3.73396    1.000000    
    307 F     s    0.478936 *  0.926598 *  0.268936 *  -1.56000    1.000000    
    308 F     s    0.151920 *  0.580014 *  0.605513 *  -1.56000    1.000000    
    309 F     s    0.466982 *  0.520045 *  0.933265 *  -1.56000    1.000000    
    310 F     s    0.568151 *  0.157044 *  0.771396 *  -1.56000    1.000000    
    311 F     s    0.935093 *  0.449548 *  0.108088 *  -1.56000    1.000000    
    312 F     s    0.597135 *  0.425888 *  0.441352 *  -1.56000    1.000000    
--------------------------------------------------------------------------------



********************************************************************************
*  General input information                                                   *
********************************************************************************

  Species output for all configurations : 

--------------------------------------------------------------------------------
  Species    Type    Atomic    Atomic    Charge       Radii (Angs)     Library
                     Number     Mass       (e)     Cova   Ionic  VDW   Symbol
--------------------------------------------------------------------------------
    Si       Core       14      28.09   4.000000   1.200  0.000  2.100          
    O1       Core        8      16.00   1.733957   0.730  0.000  1.360          
    O1       Shell       8       0.00  -3.733957   0.730  0.000  1.360          
    O2       Core        8      16.00   0.870733   0.730  0.000  1.360          
    O2       Shell       8       0.00  -2.870733   0.730  0.000  1.360          
    O3       Core        8      16.00   1.330431   0.730  0.000  1.360          
    O3       Shell       8       0.00  -3.330431   0.730  0.000  1.360          
    F        Core        9      19.00   0.560000   0.710  0.000  1.300          
    F        Shell       9       0.00  -1.560000   0.710  0.000  1.300          
    Ge       Core       32      72.61   4.000000   1.170  0.000  1.750          
--------------------------------------------------------------------------------


  Lattice summation method               =    Ewald          (3-D)
                                         =    Parry          (2-D)
                                         =    Saunders et al (1-D)
  Accuracy factor for lattice sums       =   12.000


  Time limit = Infinity

  Maximum range for interatomic potentials =        16.000000 Angstroms

  Taper potentials to zero over   1.0000 Angstroms using polynomial

  General interatomic potentials :

--------------------------------------------------------------------------------
Atom  Types   Potential         A         B         C         D     Cutoffs(Ang)
  1     2                                                            Min    Max 
--------------------------------------------------------------------------------
Si   c O1   s Buckingham    0.132E+04 0.318      10.1      0.00     0.000 16.000
Si   c O2   s Buckingham    0.132E+04 0.318      10.1      0.00     0.000 16.000
Si   c O3   s Buckingham    0.132E+04 0.318      10.1      0.00     0.000 16.000
Ge   c O1   s Buckingham    0.150E+04 0.326      16.8      0.00     0.000 16.000
Ge   c O2   s Buckingham    0.150E+04 0.326      16.8      0.00     0.000 16.000
Ge   c O3   s Buckingham    0.150E+04 0.326      16.8      0.00     0.000 16.000
O1   s O1   s Buckingham    0.228E+05 0.149      10.9      0.00     0.000 16.000
O1   s O2   s Buckingham    0.228E+05 0.149      10.9      0.00     0.000 16.000
O1   s O3   s Buckingham    0.228E+05 0.149      10.9      0.00     0.000 16.000
O2   s O2   s Buckingham    0.228E+05 0.149      10.9      0.00     0.000 16.000
O2   s O3   s Buckingham    0.228E+05 0.149      10.9      0.00     0.000 16.000
O3   s O3   s Buckingham    0.228E+05 0.149      10.9      0.00     0.000 16.000
Si   c F    s Buckingham     977.     0.282      0.00      0.00     0.000 16.000
Ge   c F    s Buckingham     681.     0.320      0.00      0.00     0.000 16.000
F    s F    s Buckingham     540.     0.262      0.00      0.00     0.000 16.000
O1   s F    s Buckingham    0.168E+04 0.268      0.00      0.00     0.000 16.000
O2   s F    s Buckingham    0.168E+04 0.268      0.00      0.00     0.000 16.000
O3   s F    s Buckingham    0.168E+04 0.268      0.00      0.00     0.000 16.000
O2   c O2   s Spring (c-s)   76.0      0.00      0.00      0.00     0.000  0.800
O3   c O3   s Spring (c-s)   128.      0.00      0.00      0.00     0.000  0.800
O1   c O1   s Spring (c-s)   180.      0.00      0.00      0.00     0.000  0.800
F    c F    s Spring (c-s)   33.5      0.00      0.00      0.00     0.000  0.800
--------------------------------------------------------------------------------

  General Three-body potentials :

  Harmonic form:

--------------------------------------------------------------------------------
Atom    Atom    Atom           Force Constants            Theta     Cutoffs  
  1       2       3     (eVrad**-2/eVrad**-3/eVrad**-4)   (deg)  1-2  1-3  2-3
--------------------------------------------------------------------------------
Si    c O1    s O1    s  1.261        0.0000    0.0000   109.470 0.00 0.00 0.00
                                                                 1.90 1.90 3.50
Si    c O1    s O2    s  1.261        0.0000    0.0000   109.470 0.00 0.00 0.00
                                                                 1.90 1.90 3.50
Si    c O2    s O2    s  1.261        0.0000    0.0000   109.470 0.00 0.00 0.00
                                                                 1.90 1.90 3.50
--------------------------------------------------------------------------------

********************************************************************************
*  Output for configuration   1                                                *
********************************************************************************


  Components of energy : 

--------------------------------------------------------------------------------
  Interatomic potentials     =        2026.19859280 eV
  Three-body potentials      =           0.08088920 eV
  Monopole - monopole (real) =       -5961.18748609 eV
  Monopole - monopole (recip)=       -3636.86025495 eV
  Monopole - monopole (total)=       -9598.04774104 eV
  Neutralising energy        =          -6.36627369 eV
--------------------------------------------------------------------------------
  Total lattice energy       =       -7578.13453274 eV
--------------------------------------------------------------------------------
  Total lattice energy       =         -731174.1400 kJ/(mole unit cells)
--------------------------------------------------------------------------------


  Number of variables =      939

  Maximum number of calculations  =          1000
  Maximum Hessian update interval =            10
  Maximum step size               =   1.000000000
  Maximum parameter tolerance     =   0.000010000
  Maximum function  tolerance     =   0.000010000
  Maximum gradient  tolerance     =   0.001000000
  Maximum gradient  component     =   0.010000000

  Symmetry not applied to optimisation

  Cell parameters to be optimised using strains

  RFO method to be used

  DFP hessian update to be used

  Dumpfile to be written after every cycle

  Start of bulk optimisation :

  Cycle:      0 Energy:     -7578.134533  Gnorm:      0.004396  CPU:    1.214
  ** Hessian has required structure
  Cycle:      1 Energy:     -7578.209227  Gnorm:      0.006549  CPU:    4.590
  ** Hessian has required structure
  Cycle:      2 Energy:     -7578.211780  Gnorm:      0.001272  CPU:    7.961
  ** Hessian has required structure
  Cycle:      3 Energy:     -7578.211884  Gnorm:      0.000260  CPU:   10.940
  ** Hessian has required structure
  Cycle:      4 Energy:     -7578.211891  Gnorm:      0.000087  CPU:   13.916
  ** Hessian has required structure


  **** Optimisation achieved ****


  Final energy =   -7578.21189187 eV
  Final Gnorm  =       0.00003874

  Components of energy : 

--------------------------------------------------------------------------------
  Interatomic potentials     =        2024.55359046 eV
  Three-body potentials      =           0.07807051 eV
  Monopole - monopole (real) =       -5966.82117001 eV
  Monopole - monopole (recip)=       -3629.66870313 eV
  Monopole - monopole (total)=       -9596.48987313 eV
  Neutralising energy        =          -6.35367971 eV
--------------------------------------------------------------------------------
  Total lattice energy       =       -7578.21189187 eV
--------------------------------------------------------------------------------
  Total lattice energy       =         -731181.6040 kJ/(mole unit cells)
--------------------------------------------------------------------------------

  Final fractional coordinates of atoms :

--------------------------------------------------------------------------------
   No.  Atomic        x           y          z          Radius
        Label       (Frac)      (Frac)     (Frac)       (Angs) 
--------------------------------------------------------------------------------
     1  Ge    c     0.699600    0.375700    0.033890    0.000000
     2  Ge    c     0.615087    0.292595    0.372378    0.000000
     3  Ge    c     0.668879    0.283765    0.702083    0.000000
     4  Si    c     0.321981    0.619074    0.548932    0.000000
     5  Si    c     0.365475    0.670816    0.879623    0.000000
     6  Si    c     0.295200    0.668997    0.211886    0.000000
     7  Ge    c     0.374016    0.693557    0.314653    0.000000
     8  Ge    c     0.325052    0.600733    0.981945    0.000000
     9  Ge    c     0.265584    0.644568    0.644717    0.000000
    10  Ge    c     0.621314    0.278493    0.801189    0.000000
    11  Ge    c     0.666877    0.362411    0.471916    0.000000
    12  Ge    c     0.681911    0.308887    0.138742    0.000000
    13  Ge    c     0.516241    0.410066    0.964975    0.000000
    14  Ge    c     0.565452    0.077456    0.301741    0.000000
    15  Ge    c     0.885773    0.459843    0.636536    0.000000
    16  Ge    c     0.487151    0.565344    0.486657    0.000000
    17  Ge    c     0.410025    0.892825    0.818081    0.000000
    18  Ge    c     0.069643    0.495965    0.147208    0.000000
    19  Ge    c     0.423340    0.518145    0.381113    0.000000
    20  Ge    c     0.113192    0.564808    0.048923    0.000000
    21  Ge    c     0.439490    0.866883    0.712121    0.000000
    22  Ge    c     0.569745    0.445496    0.863779    0.000000
    23  Si    c     0.893325    0.408623    0.533086    0.000000
    24  Ge    c     0.507979    0.089372    0.201924    0.000000
    25  Ge    c     0.280777    0.388188    0.860479    0.000000
    26  Ge    c     0.580310    0.868701    0.194592    0.000000
    27  Ge    c     0.113401    0.691489    0.530115    0.000000
    28  Si    c     0.706935    0.584877    0.366615    0.000000
    29  Si    c     0.379028    0.092495    0.699769    0.000000
    30  Si    c     0.897049    0.279587    0.031622    0.000000
    31  Si    c     0.401779    0.273881    0.499119    0.000000
    32  Si    c     0.883276    0.586121    0.163123    0.000000
    33  Si    c     0.704493    0.096224    0.828897    0.000000
    34  Si    c     0.610093    0.681486    0.995920    0.000000
    35  Si    c     0.083478    0.371123    0.663507    0.000000
    36  Si    c     0.294494    0.896720    0.329670    0.000000
    37  Si    c     0.236339    0.311891    0.962729    0.000000
    38  Si    c     0.662232    0.895038    0.297415    0.000000
    39  Si    c     0.084339    0.745876    0.631689    0.000000
    40  Si    c     0.768467    0.645303    0.468922    0.000000
    41  Si    c     0.334147    0.100469    0.802368    0.000000
    42  Si    c     0.886152    0.219175    0.133464    0.000000
    43  Si    c     0.336533    0.233716    0.396381    0.000000
    44  Si    c     0.918319    0.653597    0.061121    0.000000
    45  Si    c     0.729142    0.065006    0.726392    0.000000
    46  Ge    c     0.649094    0.730144    0.892282    0.000000
    47  Ge    c     0.098452    0.334307    0.560036    0.000000
    48  Si    c     0.233036    0.888753    0.227026    0.000000
    49  Si    c     0.961253    0.099631    0.980717    0.000000
    50  Si    c     0.876375    0.831301    0.314803    0.000000
    51  Si    c     0.129547    0.016884    0.646641    0.000000
    52  Si    c     0.043002    0.871232    0.480032    0.000000
    53  Si    c     0.100579    0.138592    0.812808    0.000000
    54  Si    c     0.829883    0.940423    0.147231    0.000000
    55  Si    c     0.116866    0.960618    0.379844    0.000000
    56  Si    c     0.854054    0.866559    0.047684    0.000000
    57  Si    c     0.001414    0.119379    0.712628    0.000000
    58  Si    c     0.872606    0.012443    0.879176    0.000000
    59  Si    c     0.149863    0.108666    0.545325    0.000000
    60  Si    c     0.952714    0.828293    0.213615    0.000000
    61  O2    c     0.927820    0.984936    0.014820    0.000000
    62  O2    c     0.997883    0.920226    0.346186    0.000000
    63  O2    c     0.040845    0.045930    0.677666    0.000000
    64  O2    c     0.075502    0.987383    0.513103    0.000000
    65  O2    c     0.993891    0.054730    0.848374    0.000000
    66  O2    c     0.917366    0.916228    0.183118    0.000000
    67  O1    c     0.338473    0.565795    0.348459    0.000000
    68  O1    c     0.394328    0.736934    0.681655    0.000000
    69  O1    c     0.239476    0.643601    0.014391    0.000000
    70  O1    c     0.660160    0.419830    0.828832    0.000000
    71  O1    c     0.542722    0.209256    0.164789    0.000000
    72  O3    c     0.774284    0.327352    0.502724    0.000000
    73  O1    c     0.582734    0.331894    0.996725    0.000000
    74  O1    c     0.741026    0.392562    0.661015    0.000000
    75  O1    c     0.649919    0.217975    0.334015    0.000000
    76  O3    c     0.443858    0.652003    0.520387    0.000000
    77  O3    c     0.201166    0.546116    0.185979    0.000000
    78  O3    c     0.329683    0.763891    0.853554    0.000000
    79  O2    c     0.112633    0.189123    0.982556    0.000000
    80  O2    c     0.784371    0.889243    0.317438    0.000000
    81  O2    c     0.071317    0.865913    0.648013    0.000000
    82  O2    c     0.894488    0.772822    0.486236    0.000000
    83  O2    c     0.209905    0.101372    0.819972    0.000000
    84  O2    c     0.869663    0.087386    0.152832    0.000000
    85  O2    c     0.206438    0.112037    0.377147    0.000000
    86  O2    c     0.922289    0.782739    0.043982    0.000000
    87  O2    c     0.849740    0.056081    0.708195    0.000000
    88  O3    c     0.780277    0.865860    0.871458    0.000000
    89  O3    c     0.097165    0.202816    0.536473    0.000000
    90  O2    c     0.101265    0.876466    0.208172    0.000000
    91  O2    c     0.922679    0.837055    0.264748    0.000000
    92  O2    c     0.127178    0.063699    0.596604    0.000000
    93  O2    c     0.914781    0.043383    0.931140    0.000000
    94  O2    c     0.041995    0.102467    0.762589    0.000000
    95  O2    c     0.863245    0.916178    0.097889    0.000000
    96  O2    c     0.067165    0.920751    0.429442    0.000000
    97  O2    c     0.895735    0.180324    0.994832    0.000000
    98  O2    c     0.803791    0.685798    0.330526    0.000000
    99  O2    c     0.274445    0.088591    0.664049    0.000000
   100  O3    c     0.122466    0.802471    0.490685    0.000000
   101  O3    c     0.162536    0.286761    0.821814    0.000000
   102  O3    c     0.682356    0.857168    0.156449    0.000000
   103  O2    c     0.195505    0.892458    0.366087    0.000000
   104  O2    c     0.706655    0.781232    0.033749    0.000000
   105  O2    c     0.068244    0.268095    0.701353    0.000000
   106  O2    c     0.802346    0.090512    0.865128    0.000000
   107  O2    c     0.300064    0.180210    0.535382    0.000000
   108  O2    c     0.870600    0.682897    0.197277    0.000000
   109  O3    c     0.303463    0.633904    0.263745    0.000000
   110  O3    c     0.364006    0.654004    0.600190    0.000000
   111  O3    c     0.344184    0.678962    0.931989    0.000000
   112  O1    c     0.700515    0.357547    0.752448    0.000000
   113  O1    c     0.640808    0.335567    0.087237    0.000000
   114  O1    c     0.664548    0.277665    0.425013    0.000000
   115  O3    c     0.357365    0.308022    0.981794    0.000000
   116  O3    c     0.675622    0.024412    0.314513    0.000000
   117  O3    c     0.962725    0.620308    0.650142    0.000000
   118  O3    c     0.651024    0.646627    0.492048    0.000000
   119  O3    c     0.333074    0.978754    0.824570    0.000000
   120  O3    c     0.007339    0.331545    0.158281    0.000000
   121  O3    c     0.323429    0.355662    0.386228    0.000000
   122  O3    c     0.053934    0.669757    0.051941    0.000000
   123  O3    c     0.604996    0.932821    0.717894    0.000000
   124  O1    c     0.667473    0.610292    0.875117    0.000000
   125  O3    c     0.956361    0.320148    0.544203    0.000000
   126  O3    c     0.343089    0.018508    0.208058    0.000000
   127  O3    c     0.768033    0.279972    0.025001    0.000000
   128  O3    c     0.709965    0.457894    0.360741    0.000000
   129  O3    c     0.505643    0.222905    0.691156    0.000000
   130  O3    c     0.261376    0.704140    0.530865    0.000000
   131  O3    c     0.272932    0.526386    0.863339    0.000000
   132  O3    c     0.438300    0.728443    0.193351    0.000000
   133  O3    c     0.306016    0.772741    0.339377    0.000000
   134  O3    c     0.471915    0.658292    0.008323    0.000000
   135  O3    c     0.203113    0.503803    0.677527    0.000000
   136  O3    c     0.705633    0.225137    0.836946    0.000000
   137  O3    c     0.532713    0.277833    0.507557    0.000000
   138  O3    c     0.757899    0.450798    0.168837    0.000000
   139  O3    c     0.818073    0.534008    0.032162    0.000000
   140  O3    c     0.453196    0.245578    0.369985    0.000000
   141  O3    c     0.719686    0.173207    0.698702    0.000000
   142  O3    c     0.226199    0.468186    0.539496    0.000000
   143  O3    c     0.511504    0.718344    0.869019    0.000000
   144  O2    c     0.252977    0.776584    0.208156    0.000000
   145  O3    c     0.537998    0.773680    0.317314    0.000000
   146  O3    c     0.235431    0.437208    0.979647    0.000000
   147  O3    c     0.210962    0.756258    0.652730    0.000000
   148  O3    c     0.456898    0.228071    0.817498    0.000000
   149  O3    c     0.780971    0.527536    0.484559    0.000000
   150  O3    c     0.758294    0.220616    0.144597    0.000000
   151  O3    c     0.225120    0.300341    0.908872    0.000000
   152  O3    c     0.666336    0.887072    0.243745    0.000000
   153  O3    c     0.083106    0.750763    0.577607    0.000000
   154  O2    c     0.760063    0.655611    0.414600    0.000000
   155  O2    c     0.317358    0.083297    0.747983    0.000000
   156  O2    c     0.905904    0.220634    0.079686    0.000000
   157  O2    c     0.340694    0.212444    0.449922    0.000000
   158  O2    c     0.883999    0.643369    0.113474    0.000000
   159  O2    c     0.758527    0.095693    0.779507    0.000000
   160  O3    c     0.659222    0.756581    0.949413    0.000000
   161  O3    c     0.106887    0.318428    0.617275    0.000000
   162  O2    c     0.226837    0.887417    0.280956    0.000000
   163  O3    c     0.612264    0.551962    0.998090    0.000000
   164  O3    c     0.427694    0.022242    0.335862    0.000000
   165  O3    c     0.955010    0.379187    0.661589    0.000000
   166  O3    c     0.414891    0.411564    0.506236    0.000000
   167  O3    c     0.566821    0.973015    0.836515    0.000000
   168  O3    c     0.008078    0.581258    0.176081    0.000000
   169  O3    c     0.564925    0.557905    0.356350    0.000000
   170  O3    c     0.015249    0.418127    0.023115    0.000000
   171  O3    c     0.407118    0.980206    0.690077    0.000000
   172  O1    c     0.424861    0.423933    0.842575    0.000000
   173  O3    c     0.006688    0.540292    0.513008    0.000000
   174  O1    c     0.554755    0.988748    0.179350    0.000000
   175  O1    c     0.582617    0.158052    0.251426    0.000000
   176  O3    c     0.855408    0.443658    0.580325    0.000000
   177  O1    c     0.555885    0.372814    0.914329    0.000000
   178  O1    c     0.383308    0.830192    0.765742    0.000000
   179  O1    c     0.168344    0.556940    0.100891    0.000000
   180  O1    c     0.443311    0.582308    0.433449    0.000000
   181  F     c     0.468194    0.922352    0.267819    0.000000
   182  F     c     0.123765    0.557060    0.604443    0.000000
   183  F     c     0.457769    0.510655    0.932810    0.000000
   184  F     c     0.549796    0.124683    0.769886    0.000000
   185  F     c     0.928386    0.447164    0.105424    0.000000
   186  F     c     0.573311    0.424287    0.440091    0.000000
   187  O2    s     0.923373    0.984434    0.014713    0.000000
   188  O2    s     0.997763    0.914981    0.346469    0.000000
   189  O2    s     0.046180    0.050735    0.678083    0.000000
   190  O2    s     0.080179    0.988068    0.513032    0.000000
   191  O2    s     0.992395    0.059226    0.847838    0.000000
   192  O2    s     0.912077    0.909271    0.182667    0.000000
   193  O1    s     0.347697    0.571568    0.348487    0.000000
   194  O1    s     0.389793    0.742193    0.681895    0.000000
   195  O1    s     0.236661    0.634401    0.014454    0.000000
   196  O1    s     0.650051    0.412405    0.829872    0.000000
   197  O1    s     0.550334    0.207591    0.165654    0.000000
   198  O3    s     0.780665    0.338721    0.504162    0.000000
   199  O1    s     0.589204    0.340696    0.998161    0.000000
   200  O1    s     0.746431    0.389252    0.662338    0.000000
   201  O1    s     0.641405    0.215504    0.335336    0.000000
   202  O3    s     0.435284    0.642079    0.520570    0.000000
   203  O3    s     0.203198    0.556753    0.186391    0.000000
   204  O3    s     0.339246    0.764385    0.853468    0.000000
   205  O2    s     0.108801    0.191937    0.980347    0.000000
   206  O2    s     0.782053    0.883369    0.315104    0.000000
   207  O2    s     0.078914    0.870054    0.646229    0.000000
   208  O2    s     0.897370    0.770160    0.483790    0.000000
   209  O2    s     0.211317    0.105232    0.817420    0.000000
   210  O2    s     0.867090    0.085411    0.150247    0.000000
   211  O2    s     0.209856    0.107976    0.379353    0.000000
   212  O2    s     0.914648    0.778652    0.046088    0.000000
   213  O2    s     0.854036    0.063719    0.710461    0.000000
   214  O3    s     0.780190    0.871231    0.873825    0.000000
   215  O3    s     0.102678    0.203123    0.539146    0.000000
   216  O2    s     0.098972    0.872557    0.210692    0.000000
   217  O2    s     0.920940    0.835468    0.264558    0.000000
   218  O2    s     0.129870    0.063378    0.596578    0.000000
   219  O2    s     0.915381    0.046228    0.931008    0.000000
   220  O2    s     0.043819    0.108140    0.762508    0.000000
   221  O2    s     0.858635    0.913336    0.097692    0.000000
   222  O2    s     0.070124    0.919830    0.429400    0.000000
   223  O2    s     0.902886    0.181433    0.996942    0.000000
   224  O2    s     0.802003    0.691441    0.332422    0.000000
   225  O2    s     0.269198    0.081111    0.665798    0.000000
   226  O3    s     0.113821    0.801157    0.492535    0.000000
   227  O3    s     0.164853    0.279338    0.823690    0.000000
   228  O3    s     0.689817    0.866250    0.158217    0.000000
   229  O2    s     0.197118    0.900118    0.363880    0.000000
   230  O2    s     0.712964    0.780523    0.031512    0.000000
   231  O2    s     0.062623    0.262568    0.698758    0.000000
   232  O2    s     0.799634    0.082895    0.862842    0.000000
   233  O2    s     0.294789    0.182169    0.532782    0.000000
   234  O2    s     0.880541    0.688805    0.195632    0.000000
   235  O3    s     0.308731    0.642288    0.263270    0.000000
   236  O3    s     0.352811    0.649698    0.598143    0.000000
   237  O3    s     0.344740    0.671848    0.930953    0.000000
   238  O1    s     0.692835    0.346328    0.751640    0.000000
   239  O1    s     0.648462    0.336343    0.087593    0.000000
   240  O1    s     0.660792    0.284748    0.424334    0.000000
   241  O3    s     0.355945    0.315528    0.978709    0.000000
   242  O3    s     0.666695    0.014652    0.311871    0.000000
   243  O3    s     0.968333    0.619796    0.647379    0.000000
   244  O3    s     0.649249    0.640018    0.489435    0.000000
   245  O3    s     0.339256    0.983526    0.821979    0.000000
   246  O3    s     0.999388    0.331602    0.155018    0.000000
   247  O3    s     0.332442    0.356128    0.386841    0.000000
   248  O3    s     0.044682    0.660501    0.052664    0.000000
   249  O3    s     0.606084    0.941943    0.718380    0.000000
   250  O1    s     0.659693    0.610107    0.875914    0.000000
   251  O3    s     0.962826    0.329177    0.544582    0.000000
   252  O3    s     0.343914    0.010481    0.209555    0.000000
   253  O3    s     0.776593    0.286798    0.026345    0.000000
   254  O3    s     0.703280    0.460213    0.362186    0.000000
   255  O3    s     0.504647    0.214170    0.692854    0.000000
   256  O3    s     0.255205    0.695516    0.532467    0.000000
   257  O3    s     0.282151    0.529202    0.864641    0.000000
   258  O3    s     0.437067    0.734523    0.195108    0.000000
   259  O3    s     0.310294    0.778457    0.336505    0.000000
   260  O3    s     0.473326    0.655843    0.005071    0.000000
   261  O3    s     0.195170    0.499965    0.673864    0.000000
   262  O3    s     0.699852    0.215283    0.833726    0.000000
   263  O3    s     0.527889    0.282936    0.504381    0.000000
   264  O3    s     0.764322    0.453110    0.165988    0.000000
   265  O3    s     0.819007    0.533639    0.035173    0.000000
   266  O3    s     0.453197    0.248032    0.372893    0.000000
   267  O3    s     0.716611    0.170962    0.701661    0.000000
   268  O3    s     0.224298    0.470749    0.541987    0.000000
   269  O3    s     0.508326    0.714753    0.871786    0.000000
   270  O2    s     0.255195    0.777933    0.210526    0.000000
   271  O3    s     0.536485    0.778641    0.315276    0.000000
   272  O3    s     0.242774    0.438502    0.978236    0.000000
   273  O3    s     0.201976    0.748184    0.650191    0.000000
   274  O3    s     0.453619    0.218323    0.815248    0.000000
   275  O3    s     0.772682    0.529486    0.482221    0.000000
   276  O3    s     0.764786    0.227293    0.143111    0.000000
   277  O3    s     0.230700    0.308385    0.910162    0.000000
   278  O3    s     0.659090    0.886448    0.244983    0.000000
   279  O3    s     0.085627    0.745440    0.578874    0.000000
   280  O2    s     0.755360    0.647289    0.415083    0.000000
   281  O2    s     0.325461    0.085919    0.748367    0.000000
   282  O2    s     0.903157    0.226534    0.080213    0.000000
   283  O2    s     0.346325    0.220589    0.449267    0.000000
   284  O2    s     0.887442    0.638690    0.112943    0.000000
   285  O2    s     0.750231    0.092744    0.778965    0.000000
   286  O3    s     0.653697    0.747358    0.949268    0.000000
   287  O3    s     0.104131    0.324687    0.617002    0.000000
   288  O2    s     0.234287    0.888491    0.280171    0.000000
   289  O3    s     0.606021    0.555973    0.995802    0.000000
   290  O3    s     0.422936    0.012864    0.333053    0.000000
   291  O3    s     0.961833    0.384784    0.659830    0.000000
   292  O3    s     0.419576    0.410974    0.503984    0.000000
   293  O3    s     0.567278    0.978305    0.834320    0.000000
   294  O3    s     0.999346    0.575915    0.172784    0.000000
   295  O3    s     0.567047    0.557203    0.359289    0.000000
   296  O3    s     0.011010    0.415725    0.025917    0.000000
   297  O3    s     0.406992    0.982631    0.692778    0.000000
   298  O1    s     0.422982    0.422619    0.845497    0.000000
   299  O3    s     0.005451    0.541010    0.516216    0.000000
   300  O1    s     0.553323    0.986307    0.182188    0.000000
   301  O1    s     0.575639    0.147040    0.251020    0.000000
   302  O3    s     0.861606    0.441907    0.580769    0.000000
   303  O1    s     0.553878    0.380973    0.914146    0.000000
   304  O1    s     0.389529    0.837869    0.765962    0.000000
   305  O1    s     0.157311    0.553394    0.099860    0.000000
   306  O1    s     0.445171    0.576107    0.433524    0.000000
   307  F     s     0.474128    0.931081    0.269661    0.000000
   308  F     s     0.131763    0.562290    0.606872    0.000000
   309  F     s     0.460898    0.505481    0.934542    0.000000
   310  F     s     0.554642    0.135277    0.772007    0.000000
   311  F     s     0.936310    0.450012    0.107705    0.000000
   312  F     s     0.579214    0.420671    0.442275    0.000000
--------------------------------------------------------------------------------

  Final Cartesian lattice vectors (Angstroms) :

       12.181659    0.004686   -0.012733
       -6.092762   10.547814    0.005219
       -0.740455   -0.195183   29.907221


  Final cell parameters and derivatives :

--------------------------------------------------------------------------------
       a           12.181666 Angstrom     dE/de1(xx)    -0.000837 eV/strain
       b           12.181057 Angstrom     dE/de2(yy)    -0.001518 eV/strain
       c           29.917023 Angstrom     dE/de3(zz)     0.001235 eV/strain
       alpha       89.589837 Degrees      dE/de4(yz)     0.000042 eV/strain
       beta        91.478264 Degrees      dE/de5(xz)     0.000277 eV/strain
       gamma      119.990103 Degrees      dE/de6(xy)     0.000495 eV/strain
--------------------------------------------------------------------------------

  Primitive cell volume =          3843.526505 Angs**3

  Density of cell =      2.087801 g/cm**3

  Non-primitive cell volume =          3843.526505 Angs**3


  Final internal derivatives :

--------------------------------------------------------------------------------
   No.  Atomic          a             b             c           Radius
        Label          (eV)          (eV)          (eV)        (eV/Angs)
--------------------------------------------------------------------------------
      1 Ge    c       0.000000      0.000000      0.000000      0.000000
      2 Ge    c       0.000772     -0.000952     -0.002433      0.000000
      3 Ge    c      -0.000178     -0.000643      0.002770      0.000000
      4 Si    c      -0.000493      0.000136     -0.000800      0.000000
      5 Si    c       0.000038      0.000053     -0.001673      0.000000
      6 Si    c       0.000389      0.000064      0.000654      0.000000
      7 Ge    c       0.000881     -0.000199      0.003089      0.000000
      8 Ge    c      -0.000628      0.000573      0.001397      0.000000
      9 Ge    c      -0.000893     -0.000455     -0.000950      0.000000
     10 Ge    c       0.000225     -0.001221     -0.001222      0.000000
     11 Ge    c      -0.000947      0.000819     -0.000584      0.000000
     12 Ge    c       0.000361     -0.000462      0.002204      0.000000
     13 Ge    c       0.000491     -0.002190     -0.000263      0.000000
     14 Ge    c       0.000457      0.000428      0.001687      0.000000
     15 Ge    c       0.000504      0.000167     -0.000067      0.000000
     16 Ge    c       0.000040     -0.000103     -0.001287      0.000000
     17 Ge    c       0.000075     -0.000471     -0.000332      0.000000
     18 Ge    c       0.000133     -0.000117      0.000001      0.000000
     19 Ge    c      -0.000091      0.000610     -0.002885      0.000000
     20 Ge    c       0.000432      0.000430     -0.000332      0.000000
     21 Ge    c       0.000037      0.001078      0.001745      0.000000
     22 Ge    c      -0.001349      0.000932      0.003825      0.000000
     23 Si    c       0.000146     -0.000039     -0.001441      0.000000
     24 Ge    c       0.000015     -0.000329      0.000329      0.000000
     25 Ge    c      -0.000179      0.000645     -0.002988      0.000000
     26 Ge    c      -0.000655      0.000705     -0.001063      0.000000
     27 Ge    c       0.000298     -0.000380     -0.000960      0.000000
     28 Si    c      -0.000120     -0.000163     -0.000892      0.000000
     29 Si    c       0.000428     -0.000357      0.000649      0.000000
     30 Si    c       0.000426     -0.000378      0.000415      0.000000
     31 Si    c       0.000349      0.000406     -0.000566      0.000000
     32 Si    c       0.000163     -0.000432      0.000943      0.000000
     33 Si    c      -0.001094      0.000784     -0.001028      0.000000
     34 Si    c      -0.000835      0.000455      0.001829      0.000000
     35 Si    c      -0.000176      0.000473      0.000096      0.000000
     36 Si    c       0.000792     -0.000562      0.001129      0.000000
     37 Si    c      -0.000266     -0.000352      0.002251      0.000000
     38 Si    c      -0.000371      0.000493     -0.000611      0.000000
     39 Si    c       0.000496     -0.000819      0.001601      0.000000
     40 Si    c      -0.000032     -0.000213      0.000664      0.000000
     41 Si    c       0.000069      0.000347      0.001146      0.000000
     42 Si    c      -0.000157      0.000182      0.000007      0.000000
     43 Si    c       0.000178     -0.000262      0.000420      0.000000
     44 Si    c       0.001218     -0.000332     -0.000207      0.000000
     45 Si    c      -0.000197      0.000518      0.000066      0.000000
     46 Ge    c      -0.000078     -0.000455     -0.001531      0.000000
     47 Ge    c      -0.000023     -0.000040     -0.000747      0.000000
     48 Si    c       0.000874     -0.000319      0.000095      0.000000
     49 Si    c       0.000686     -0.000531      0.003782      0.000000
     50 Si    c      -0.001581      0.001113      0.000863      0.000000
     51 Si    c      -0.000399      0.000324      0.000313      0.000000
     52 Si    c      -0.000350      0.000244      0.002333      0.000000
     53 Si    c       0.000379     -0.000290     -0.001370      0.000000
     54 Si    c      -0.000208      0.000268     -0.002146      0.000000
     55 Si    c       0.001020      0.000360     -0.002745      0.000000
     56 Si    c      -0.000464      0.000413     -0.006267      0.000000
     57 Si    c       0.000441     -0.000596      0.000996      0.000000
     58 Si    c      -0.000016     -0.001397      0.001528      0.000000
     59 Si    c      -0.000538     -0.000009     -0.002960      0.000000
     60 Si    c      -0.000023     -0.000129      0.000166      0.000000
     61 O2    c      -0.001905      0.000223      0.001956      0.000000
     62 O2    c       0.000602     -0.000971     -0.000445      0.000000
     63 O2    c      -0.000184     -0.000029     -0.000004      0.000000
     64 O2    c       0.000346      0.000453      0.001106      0.000000
     65 O2    c       0.000140     -0.000284     -0.000223      0.000000
     66 O2    c       0.000691     -0.000491      0.001251      0.000000
     67 O1    c       0.000668     -0.000844      0.001142      0.000000
     68 O1    c       0.001646     -0.001822     -0.000770      0.000000
     69 O1    c      -0.000082      0.000559     -0.000191      0.000000
     70 O1    c       0.003836     -0.001436     -0.006225      0.000000
     71 O1    c      -0.000841      0.001619     -0.002614      0.000000
     72 O3    c       0.001257     -0.000852      0.001127      0.000000
     73 O1    c       0.003523     -0.006053      0.009594      0.000000
     74 O1    c      -0.000515      0.000801     -0.002036      0.000000
     75 O1    c      -0.001199      0.000134      0.000556      0.000000
     76 O3    c       0.000411      0.000386     -0.000021      0.000000
     77 O3    c      -0.000050     -0.000810     -0.001907      0.000000
     78 O3    c      -0.000128      0.000363     -0.000612      0.000000
     79 O2    c      -0.001215     -0.000148      0.000105      0.000000
     80 O2    c       0.004326     -0.003992     -0.000096      0.000000
     81 O2    c      -0.000246      0.000390      0.000624      0.000000
     82 O2    c      -0.000310      0.000450      0.000254      0.000000
     83 O2    c      -0.000113      0.000222     -0.000315      0.000000
     84 O2    c       0.000266     -0.000438     -0.000601      0.000000
     85 O2    c       0.000022     -0.001944     -0.000011      0.000000
     86 O2    c      -0.001289      0.001745      0.000319      0.000000
     87 O2    c      -0.000136     -0.000064     -0.000195      0.000000
     88 O3    c       0.000937      0.003165     -0.000929      0.000000
     89 O3    c       0.001155     -0.001214      0.000551      0.000000
     90 O2    c      -0.000632      0.000170     -0.000843      0.000000
     91 O2    c      -0.000275      0.000015      0.001870      0.000000
     92 O2    c      -0.000391      0.000187      0.002253      0.000000
     93 O2    c      -0.000359     -0.000399     -0.005570      0.000000
     94 O2    c      -0.000006      0.000026     -0.000635      0.000000
     95 O2    c      -0.000758      0.001012      0.006225      0.000000
     96 O2    c       0.000185      0.000154     -0.000957      0.000000
     97 O2    c       0.001234     -0.001351     -0.002199      0.000000
     98 O2    c      -0.000567      0.002109     -0.001673      0.000000
     99 O2    c       0.000138      0.000040      0.000030      0.000000
    100 O3    c       0.000426     -0.000989      0.000161      0.000000
    101 O3    c       0.000391      0.000286      0.000170      0.000000
    102 O3    c       0.000086      0.000070      0.000529      0.000000
    103 O2    c      -0.002751      0.002165      0.002915      0.000000
    104 O2    c       0.002804      0.000837      0.003085      0.000000
    105 O2    c      -0.000067      0.000429     -0.000355      0.000000
    106 O2    c       0.000476     -0.000327      0.000469      0.000000
    107 O2    c      -0.000526      0.000034      0.001016      0.000000
    108 O2    c      -0.000149      0.000716      0.000607      0.000000
    109 O3    c      -0.000974     -0.000199     -0.006571      0.000000
    110 O3    c       0.000888     -0.000282      0.001036      0.000000
    111 O3    c      -0.000432      0.001066      0.000143      0.000000
    112 O1    c       0.000112     -0.000462     -0.000778      0.000000
    113 O1    c      -0.001068      0.000616     -0.006192      0.000000
    114 O1    c       0.000197     -0.000701     -0.001556      0.000000
    115 O3    c       0.000382     -0.000233     -0.000136      0.000000
    116 O3    c      -0.001014      0.000231     -0.000272      0.000000
    117 O3    c       0.000070     -0.000085      0.000102      0.000000
    118 O3    c      -0.000042     -0.000052      0.000130      0.000000
    119 O3    c      -0.000495      0.000529      0.000126      0.000000
    120 O3    c      -0.000132      0.000257     -0.000275      0.000000
    121 O3    c      -0.000191      0.000497     -0.000706      0.000000
    122 O3    c      -0.000039     -0.000076      0.000388      0.000000
    123 O3    c      -0.000689     -0.000304     -0.000217      0.000000
    124 O1    c       0.000071      0.000464      0.000036      0.000000
    125 O3    c      -0.000181      0.000366     -0.000470      0.000000
    126 O3    c      -0.000627     -0.000439      0.000511      0.000000
    127 O3    c      -0.001448      0.000274      0.000523      0.000000
    128 O3    c       0.000073      0.000084      0.000201      0.000000
    129 O3    c      -0.000215     -0.000169     -0.000153      0.000000
    130 O3    c       0.000035     -0.000089     -0.000205      0.000000
    131 O3    c       0.000038     -0.000178     -0.000103      0.000000
    132 O3    c       0.000410     -0.000513      0.000001      0.000000
    133 O3    c      -0.000488      0.000456      0.001111      0.000000
    134 O3    c       0.001099     -0.000254     -0.000118      0.000000
    135 O3    c      -0.000047      0.000221     -0.000562      0.000000
    136 O3    c       0.000196     -0.000734     -0.000012      0.000000
    137 O3    c      -0.000315      0.000200      0.000273      0.000000
    138 O3    c       0.000153      0.000235      0.000429      0.000000
    139 O3    c      -0.000254     -0.000529     -0.001806      0.000000
    140 O3    c      -0.000100      0.000110     -0.000190      0.000000
    141 O3    c      -0.000095     -0.000058      0.000695      0.000000
    142 O3    c       0.000189     -0.000021     -0.000560      0.000000
    143 O3    c      -0.000829      0.000218      0.000086      0.000000
    144 O2    c       0.000081      0.000014      0.000094      0.000000
    145 O3    c       0.000516      0.000178     -0.001034      0.000000
    146 O3    c       0.000015     -0.000903     -0.000335      0.000000
    147 O3    c      -0.000328      0.000179      0.000097      0.000000
    148 O3    c      -0.000542      0.000930      0.003375      0.000000
    149 O3    c       0.000094      0.000445      0.000697      0.000000
    150 O3    c       0.000229     -0.000091     -0.000184      0.000000
    151 O3    c      -0.000271     -0.001250      0.000731      0.000000
    152 O3    c       0.000641      0.000116      0.007151      0.000000
    153 O3    c      -0.000447      0.000585     -0.001222      0.000000
    154 O2    c      -0.000004     -0.000027      0.000425      0.000000
    155 O2    c       0.000126     -0.000003     -0.000200      0.000000
    156 O2    c      -0.000201      0.000099      0.000871      0.000000
    157 O2    c      -0.000069     -0.000119     -0.000900      0.000000
    158 O2    c       0.000092      0.000160      0.000367      0.000000
    159 O2    c       0.000062      0.000055      0.000026      0.000000
    160 O3    c      -0.000471      0.000804      0.000535      0.000000
    161 O3    c       0.000468     -0.000379     -0.000192      0.000000
    162 O2    c      -0.000818      0.000189     -0.005610      0.000000
    163 O3    c      -0.001705      0.001790     -0.003654      0.000000
    164 O3    c       0.000118      0.000109      0.000815      0.000000
    165 O3    c       0.000019     -0.000087      0.000116      0.000000
    166 O3    c      -0.000052     -0.000319      0.000421      0.000000
    167 O3    c       0.000493      0.000017      0.000660      0.000000
    168 O3    c      -0.000381      0.000174      0.000363      0.000000
    169 O3    c      -0.000053      0.000122     -0.000322      0.000000
    170 O3    c       0.000170     -0.000125      0.000370      0.000000
    171 O3    c      -0.000310      0.000438      0.000069      0.000000
    172 O1    c      -0.000969      0.000344     -0.000586      0.000000
    173 O3    c      -0.000078      0.000227     -0.000419      0.000000
    174 O1    c       0.000775     -0.000907     -0.000602      0.000000
    175 O1    c       0.000691      0.000638      0.001314      0.000000
    176 O3    c      -0.000504      0.000432     -0.000335      0.000000
    177 O1    c      -0.000862     -0.000497      0.001077      0.000000
    178 O1    c      -0.000369      0.000106      0.002289      0.000000
    179 O1    c      -0.000197     -0.000449     -0.002515      0.000000
    180 O1    c       0.000056      0.000613      0.004413      0.000000
    181 F     c      -0.000200     -0.000009      0.000586      0.000000
    182 F     c      -0.000300      0.000091      0.000119      0.000000
    183 F     c      -0.000402      0.001149     -0.002650      0.000000
    184 F     c       0.000058      0.000020      0.000274      0.000000
    185 F     c       0.000008     -0.000061      0.000363      0.000000
    186 F     c       0.000054      0.000009      0.000202      0.000000
    187 O2    s      -0.000397     -0.000388     -0.000376      0.000000
    188 O2    s      -0.000503     -0.000158      0.000493      0.000000
    189 O2    s       0.000138     -0.000104      0.000098      0.000000
    190 O2    s       0.000366      0.000014     -0.000063      0.000000
    191 O2    s      -0.000518      0.000559      0.001292      0.000000
    192 O2    s      -0.000398      0.000088     -0.000397      0.000000
    193 O1    s      -0.000904      0.000314     -0.000072      0.000000
    194 O1    s      -0.001392      0.001375      0.000047      0.000000
    195 O1    s       0.000117     -0.001205      0.001297      0.000000
    196 O1    s      -0.002755      0.000627      0.002825      0.000000
    197 O1    s       0.000653     -0.001059      0.001179      0.000000
    198 O3    s      -0.000772      0.000512      0.000290      0.000000
    199 O1    s      -0.002388      0.006147     -0.006718      0.000000
    200 O1    s       0.000551     -0.000679      0.001400      0.000000
    201 O1    s       0.001085     -0.000209     -0.000369      0.000000
    202 O3    s      -0.000206     -0.000360      0.000237      0.000000
    203 O3    s      -0.000363      0.000545      0.001561      0.000000
    204 O3    s       0.000047     -0.000138      0.000650      0.000000
    205 O2    s      -0.000183     -0.000131     -0.000009      0.000000
    206 O2    s       0.000220     -0.000393     -0.000976      0.000000
    207 O2    s      -0.000072     -0.000024     -0.000626      0.000000
    208 O2    s      -0.000157      0.000289     -0.001382      0.000000
    209 O2    s      -0.000140      0.000079     -0.000289      0.000000
    210 O2    s      -0.000046     -0.000353     -0.000260      0.000000
    211 O2    s      -0.000271     -0.000486     -0.000336      0.000000
    212 O2    s      -0.001458      0.000756     -0.001288      0.000000
    213 O2    s       0.000005      0.000056      0.000243      0.000000
    214 O3    s      -0.000742     -0.000696      0.003843      0.000000
    215 O3    s      -0.000325      0.000108     -0.000639      0.000000
    216 O2    s       0.000021      0.000120      0.001462      0.000000
    217 O2    s      -0.000739      0.000231      0.001061      0.000000
    218 O2    s       0.000187     -0.000031     -0.001511      0.000000
    219 O2    s       0.000237     -0.000136      0.001860      0.000000
    220 O2    s       0.000125     -0.000031      0.000322      0.000000
    221 O2    s       0.000193     -0.000526     -0.003486      0.000000
    222 O2    s       0.000451      0.000035     -0.001870      0.000000
    223 O2    s       0.000934     -0.000491      0.002021      0.000000
    224 O2    s       0.000024      0.001476     -0.000555      0.000000
    225 O2    s       0.000191      0.000058      0.000470      0.000000
    226 O3    s      -0.000367      0.000383      0.000922      0.000000
    227 O3    s      -0.000342     -0.000394      0.000083      0.000000
    228 O3    s       0.000508      0.000079     -0.001993      0.000000
    229 O2    s      -0.000576      0.000591      0.001160      0.000000
    230 O2    s       0.001283     -0.000843     -0.002038      0.000000
    231 O2    s      -0.000021     -0.000042      0.000587      0.000000
    232 O2    s       0.000697     -0.000819      0.000925      0.000000
    233 O2    s      -0.000204     -0.000245     -0.000086      0.000000
    234 O2    s      -0.000061      0.000115      0.000560      0.000000
    235 O3    s       0.000233     -0.000213      0.002727      0.000000
    236 O3    s      -0.000723      0.000457     -0.000713      0.000000
    237 O3    s       0.000381     -0.000684     -0.000948      0.000000
    238 O1    s      -0.000161      0.000430      0.000672      0.000000
    239 O1    s       0.001181     -0.000163      0.002505      0.000000
    240 O1    s      -0.000055      0.000502      0.000522      0.000000
    241 O3    s      -0.001316      0.001102     -0.000233      0.000000
    242 O3    s       0.000059     -0.000443     -0.000763      0.000000
    243 O3    s      -0.000306     -0.000025     -0.000013      0.000000
    244 O3    s       0.000063     -0.000163     -0.000464      0.000000
    245 O3    s       0.000381     -0.000375     -0.000313      0.000000
    246 O3    s      -0.000030     -0.000229      0.000068      0.000000
    247 O3    s      -0.000173     -0.000255      0.000483      0.000000
    248 O3    s      -0.000094     -0.000555      0.000458      0.000000
    249 O3    s       0.000454      0.000029      0.000375      0.000000
    250 O1    s      -0.000092     -0.000159     -0.000207      0.000000
    251 O3    s      -0.000159      0.000076      0.000916      0.000000
    252 O3    s      -0.000147      0.000651      0.000446      0.000000
    253 O3    s       0.000620      0.000757     -0.000469      0.000000
    254 O3    s      -0.000015     -0.000136     -0.000244      0.000000
    255 O3    s      -0.000076      0.000143      0.000309      0.000000
    256 O3    s      -0.000068      0.000129      0.000536      0.000000
    257 O3    s      -0.000004      0.000080      0.000386      0.000000
    258 O3    s      -0.000086     -0.000091     -0.001193      0.000000
    259 O3    s      -0.000022     -0.000604      0.001647      0.000000
    260 O3    s      -0.000396     -0.000104      0.001006      0.000000
    261 O3    s       0.000144     -0.000228      0.001635      0.000000
    262 O3    s       0.000041      0.000608     -0.000442      0.000000
    263 O3    s       0.000322     -0.000433      0.000459      0.000000
    264 O3    s       0.000369     -0.000121     -0.001530      0.000000
    265 O3    s       0.000231     -0.000212      0.002168      0.000000
    266 O3    s       0.000114     -0.000256     -0.000326      0.000000
    267 O3    s       0.000032      0.000193     -0.000856      0.000000
    268 O3    s      -0.000112      0.000277      0.000611      0.000000
    269 O3    s       0.000529     -0.000085     -0.000339      0.000000
    270 O2    s      -0.000384      0.000084     -0.000284      0.000000
    271 O3    s       0.000809     -0.000321     -0.001067      0.000000
    272 O3    s       0.000438     -0.000118     -0.000101      0.000000
    273 O3    s       0.000661     -0.000195     -0.000034      0.000000
    274 O3    s       0.001164     -0.001137     -0.004739      0.000000
    275 O3    s      -0.000058     -0.000437     -0.001282      0.000000
    276 O3    s      -0.000237      0.000309     -0.000038      0.000000
    277 O3    s       0.000373      0.001109      0.000153      0.000000
    278 O3    s      -0.000133     -0.000282     -0.001813      0.000000
    279 O3    s       0.000436     -0.000470     -0.000091      0.000000
    280 O2    s       0.000176      0.000330      0.000254      0.000000
    281 O2    s      -0.000096      0.000104     -0.000141      0.000000
    282 O2    s       0.000332     -0.000130     -0.000130      0.000000
    283 O2    s       0.000034     -0.000046      0.000453      0.000000
    284 O2    s      -0.000295     -0.000291     -0.000558      0.000000
    285 O2    s      -0.000009      0.000121      0.000297      0.000000
    286 O3    s       0.000857     -0.000572     -0.000535      0.000000
    287 O3    s      -0.000238      0.000145     -0.000293      0.000000
    288 O2    s      -0.000541      0.000318     -0.000031      0.000000
    289 O3    s       0.002401     -0.002420      0.004537      0.000000
    290 O3    s       0.000054      0.000831      0.000685      0.000000
    291 O3    s      -0.000242      0.000261     -0.000537      0.000000
    292 O3    s       0.000085      0.000396     -0.000377      0.000000
    293 O3    s      -0.000283     -0.000037     -0.000411      0.000000
    294 O3    s       0.000007      0.000157     -0.000628      0.000000
    295 O3    s       0.000406     -0.000410      0.000430      0.000000
    296 O3    s      -0.000423      0.000387     -0.000654      0.000000
    297 O3    s       0.000115     -0.000094     -0.000071      0.000000
    298 O1    s       0.000626     -0.000082      0.000507      0.000000
    299 O3    s       0.000364     -0.000292      0.000865      0.000000
    300 O1    s      -0.000546      0.000557     -0.001163      0.000000
    301 O1    s      -0.000288     -0.000884      0.001200      0.000000
    302 O3    s       0.000573     -0.000588      0.000108      0.000000
    303 O1    s       0.001508      0.000353     -0.002145      0.000000
    304 O1    s       0.000015      0.000106     -0.001183      0.000000
    305 O1    s      -0.000295      0.000747      0.001035      0.000000
    306 O1    s       0.000178     -0.000613     -0.001978      0.000000
    307 F     s       0.000649      0.000157     -0.000284      0.000000
    308 F     s       0.000427     -0.000084     -0.000647      0.000000
    309 F     s      -0.001992      0.001376      0.000579      0.000000
    310 F     s      -0.000150      0.000315     -0.000115      0.000000
    311 F     s       0.000038      0.000116     -0.000540      0.000000
    312 F     s       0.000228     -0.000186      0.000022      0.000000
--------------------------------------------------------------------------------
  Maximum abs         0.004326      0.006147      0.009594      0.000000
--------------------------------------------------------------------------------


  Time to end of optimisation =      16.8940 seconds


  Peak dynamic memory used =      19.13 MB 


  Timing analysis for GULP :

--------------------------------------------------------------------------------
  Task / Subroutine                                          Time (Seconds)
--------------------------------------------------------------------------------
  Calculation of reciprocal space energy and derivatives          0.3877
  Calculation of real space energy and derivatives                9.4220
  Calculation of three-body energy and derivatives                0.3420
--------------------------------------------------------------------------------
  Total CPU time                                                 16.8940
--------------------------------------------------------------------------------


  Dump file written as 25.1.res                                                
  CIF file written as 25.1.cif                                                


  Job Finished at 07:51.35  5th January    2017                               

