********************************************************************************
*                       GENERAL UTILITY LATTICE PROGRAM                        *
*                                 Julian Gale                                  *
*                      Nanochemistry Research Institute                        *
*                           Department of Chemistry                            *
*                    Curtin University, Western Australia                      *
********************************************************************************
* Version = 4.2.0 * Last modified =  20th January 2014                         *
********************************************************************************
*  optimise     - perform optimisation run                                     *
*  conp         - constant pressure calculation                                *
*  qok          - running with non charge neutral cell is OK                   *
*  rfo          - optimisation step to be determined by RFO method             *
********************************************************************************

  Job Started  at 11:47.08 18th December   2016                               

  Number of CPUs =     1


  Total number of configurations input =   1

********************************************************************************
*  Input for Configuration =   1                                               *
********************************************************************************

  Formula = Ge30Si30O120F6                                              

  Number of irreducible atoms/shells =     312


  Total number atoms/shells =     312

  Dimensionality = 3               :  Bulk   


  Charge on solid   =  -6.000000 =>neutralising background added


  Cartesian lattice vectors (Angstroms) :

       12.160424    0.000000    0.000000
       -5.950239   10.629179    0.000000
        0.718174   -0.157895   30.199465

  Cell parameters (Angstroms/Degrees):

  a =      12.1604    alpha =  90.9267
  b =      12.1813    beta  =  88.6377
  c =      30.2084    gamma = 119.2402

  Initial cell volume =        3903.441726 Angs**3

  Temperature of configuration =  0.000     K 

  Pressure of configuration =         0.000 GPa 

  Fractional coordinates of asymmetric unit :

--------------------------------------------------------------------------------
   No.  Atomic       x           y          z         Charge      Occupancy
        Label      (Frac)      (Frac)     (Frac)        (e)         (Frac)  
--------------------------------------------------------------------------------
      1 Ge    c    0.699600    0.375700    0.033890     4.00000    1.000000    
      2 Ge    c    0.630258 *  0.337466 *  0.380537 *   4.00000    1.000000    
      3 Si    c    0.679157 *  0.298162 *  0.697442 *   4.00000    1.000000    
      4 Si    c    0.290786 *  0.614906 *  0.534941 *   4.00000    1.000000    
      5 Si    c    0.377078 *  0.682257 *  0.855050 *   4.00000    1.000000    
      6 Ge    c    0.322096 *  0.694672 *  0.203433 *   4.00000    1.000000    
      7 Ge    c    0.375655 *  0.686934 *  0.304693 *   4.00000    1.000000    
      8 Ge    c    0.334439 *  0.628678 *  0.954089 *   4.00000    1.000000    
      9 Si    c    0.299376 *  0.681359 *  0.632656 *   4.00000    1.000000    
     10 Si    c    0.613544 *  0.288001 *  0.795623 *   4.00000    1.000000    
     11 Si    c    0.682062 *  0.374503 *  0.477926 *   4.00000    1.000000    
     12 Ge    c    0.696572 *  0.320369 *  0.134623 *   4.00000    1.000000    
     13 Ge    c    0.532129 *  0.416790 *  0.964619 *   4.00000    1.000000    
     14 Ge    c    0.580291 *  0.124478 *  0.313450 *   4.00000    1.000000    
     15 Si    c    0.897044 *  0.482109 *  0.639555 *   4.00000    1.000000    
     16 Si    c    0.462027 *  0.570774 *  0.470533 *   4.00000    1.000000    
     17 Si    c    0.419969 *  0.890017 *  0.791146 *   4.00000    1.000000    
     18 Ge    c    0.126638 *  0.535955 *  0.128475 *   4.00000    1.000000    
     19 Si    c    0.420751 *  0.520915 *  0.369274 *   4.00000    1.000000    
     20 Ge    c    0.123998 *  0.579587 *  0.023906 *   4.00000    1.000000    
     21 Si    c    0.479864 *  0.896457 *  0.691608 *   4.00000    1.000000    
     22 Si    c    0.582362 *  0.466529 *  0.860733 *   4.00000    1.000000    
     23 Si    c    0.892373 *  0.422188 *  0.540489 *   4.00000    1.000000    
     24 Ge    c    0.535037 *  0.120759 *  0.208903 *   4.00000    1.000000    
     25 Si    c    0.298611 *  0.400458 *  0.846788 *   4.00000    1.000000    
     26 Ge    c    0.609102 *  0.904172 *  0.190514 *   4.00000    1.000000    
     27 Si    c    0.093698 *  0.693516 *  0.522056 *   4.00000    1.000000    
     28 Ge    c    0.712485 *  0.605795 *  0.357307 *   4.00000    1.000000    
     29 Si    c    0.408218 *  0.102377 *  0.681119 *   4.00000    1.000000    
     30 Ge    c    0.900465 *  0.294259 *  0.015424 *   4.00000    1.000000    
     31 Si    c    0.399285 *  0.292490 *  0.484214 *   4.00000    1.000000    
     32 Ge    c    0.906841 *  0.602940 *  0.149733 *   4.00000    1.000000    
     33 Si    c    0.692845 *  0.090845 *  0.807116 *   4.00000    1.000000    
     34 Ge    c    0.603348 *  0.709224 *  0.978874 *   4.00000    1.000000    
     35 Si    c    0.102914 *  0.410178 *  0.650213 *   4.00000    1.000000    
     36 Ge    c    0.302303 *  0.891161 *  0.326322 *   4.00000    1.000000    
     37 Ge    c    0.245405 *  0.343604 *  0.948515 *   4.00000    1.000000    
     38 Ge    c    0.653626 *  0.912871 *  0.292779 *   4.00000    1.000000    
     39 Si    c    0.092657 *  0.754325 *  0.620687 *   4.00000    1.000000    
     40 Si    c    0.744602 *  0.653277 *  0.460619 *   4.00000    1.000000    
     41 Si    c    0.340611 *  0.088176 *  0.779397 *   4.00000    1.000000    
     42 Ge    c    0.912097 *  0.250013 *  0.117574 *   4.00000    1.000000    
     43 Si    c    0.349158 *  0.241728 *  0.383293 *   4.00000    1.000000    
     44 Ge    c    0.912342 *  0.654134 *  0.048604 *   4.00000    1.000000    
     45 Si    c    0.752821 *  0.092426 *  0.708315 *   4.00000    1.000000    
     46 Ge    c    0.662310 *  0.751468 *  0.873582 *   4.00000    1.000000    
     47 Si    c    0.090066 *  0.343158 *  0.552167 *   4.00000    1.000000    
     48 Ge    c    0.252790 *  0.906493 *  0.225465 *   4.00000    1.000000    
     49 Ge    c    0.962622 *  0.112166 *  0.957060 *   4.00000    1.000000    
     50 Ge    c    0.880624 *  0.863116 *  0.304688 *   4.00000    1.000000    
     51 Si    c    0.160912 *  0.035585 *  0.634612 *   4.00000    1.000000    
     52 Ge    c    0.016285 *  0.872018 *  0.475755 *   4.00000    1.000000    
     53 Si    c    0.127782 *  0.157015 *  0.793737 *   4.00000    1.000000    
     54 Ge    c    0.858369 *  0.972969 *  0.132068 *   4.00000    1.000000    
     55 Ge    c    0.120124 *  0.968807 *  0.373703 *   4.00000    1.000000    
     56 Ge    c    0.856487 *  0.882122 *  0.028588 *   4.00000    1.000000    
     57 Si    c    0.035698 *  0.161522 *  0.696173 *   4.00000    1.000000    
     58 Si    c    0.878489 *  0.028918 *  0.854335 *   4.00000    1.000000    
     59 Si    c    0.151318 *  0.124916 *  0.536859 *   4.00000    1.000000    
     60 Ge    c    0.973159 *  0.853133 *  0.202271 *   4.00000    1.000000    
     61 O1    c    0.921082 *  0.975349 *  0.982768 *   1.73396    1.000000    
     62 O1    c    0.018459 *  0.942429 *  0.332163 *   1.73396    1.000000    
     63 O2    c    0.081000 *  0.081327 *  0.665446 *   0.87073    1.000000    
     64 O3    c    0.062629 *  0.002566 *  0.509407 *   1.33043    1.000000    
     65 O2    c    0.001688 *  0.077529 *  0.822332 *   0.87073    1.000000    
     66 O1    c    0.943911 *  0.915484 *  0.156212 *   1.73396    1.000000    
     67 O3    c    0.339298 *  0.556867 *  0.338833 *   1.33043    1.000000    
     68 O2    c    0.425828 *  0.770750 *  0.660550 *   0.87073    1.000000    
     69 O1    c    0.238463 *  0.668749 *  0.987244 *   1.73396    1.000000    
     70 O2    c    0.647652 *  0.407749 *  0.827723 *   0.87073    1.000000    
     71 O1    c    0.576657 *  0.243763 *  0.173406 *   1.73396    1.000000    
     72 O2    c    0.761850 *  0.346196 *  0.513911 *   0.87073    1.000000    
     73 O1    c    0.575566 *  0.334056 *  0.997251 *   1.73396    1.000000    
     74 O2    c    0.769740 *  0.427133 *  0.670322 *   0.87073    1.000000    
     75 O1    c    0.670591 *  0.242058 *  0.348145 *   1.73396    1.000000    
     76 O2    c    0.409506 *  0.644935 *  0.501653 *   0.87073    1.000000    
     77 O1    c    0.249430 *  0.577989 *  0.163933 *   1.73396    1.000000    
     78 O2    c    0.344970 *  0.761663 *  0.819503 *   0.87073    1.000000    
     79 O1    c    0.119081 *  0.208116 *  0.967381 *   1.73396    1.000000    
     80 O1    c    0.782425 *  0.919218 *  0.319235 *   1.73396    1.000000    
     81 O2    c    0.097595 *  0.883544 *  0.638983 *   0.87073    1.000000    
     82 O3    c    0.856841 *  0.770634 *  0.485582 *   1.33043    1.000000    
     83 O2    c    0.213884 *  0.089193 *  0.797614 *   0.87073    1.000000    
     84 O1    c    0.919231 *  0.129288 *  0.144134 *   1.73396    1.000000    
     85 O3    c    0.218898 *  0.129675 *  0.367454 *   1.33043    1.000000    
     86 O1    c    0.925826 *  0.791556 *  0.027298 *   1.73396    1.000000    
     87 O2    c    0.883819 *  0.098376 *  0.690791 *   0.87073    1.000000    
     88 O3    c    0.794590 *  0.879203 *  0.849737 *   1.33043    1.000000    
     89 O2    c    0.091649 *  0.217875 *  0.534093 *   0.87073    1.000000    
     90 O1    c    0.132027 *  0.925222 *  0.204588 *   1.73396    1.000000    
     91 O1    c    0.909633 *  0.883457 *  0.248696 *   1.73396    1.000000    
     92 O2    c    0.152602 *  0.078458 *  0.585886 *   0.87073    1.000000    
     93 O3    c    0.934882 *  0.077066 *  0.901413 *   1.33043    1.000000    
     94 O2    c    0.079811 *  0.153564 *  0.744706 *   0.87073    1.000000    
     95 O1    c    0.877469 *  0.968617 *  0.075473 *   1.73396    1.000000    
     96 O1    c    0.040573 *  0.930666 *  0.423845 *   1.73396    1.000000    
     97 O1    c    0.883093 *  0.187233 *  0.973863 *   1.73396    1.000000    
     98 O1    c    0.811592 *  0.706303 *  0.317797 *   1.73396    1.000000    
     99 O2    c    0.309404 *  0.101416 *  0.645442 *   0.87073    1.000000    
    100 O3    c    0.093592 *  0.786849 *  0.484934 *   1.33043    1.000000    
    101 O2    c    0.212372 *  0.302616 *  0.808319 *   0.87073    1.000000    
    102 O1    c    0.703449 *  0.894463 *  0.148344 *   1.73396    1.000000    
    103 O1    c    0.202715 *  0.891085 *  0.369241 *   1.73396    1.000000    
    104 O1    c    0.696760 *  0.797240 *  0.021330 *   1.73396    1.000000    
    105 O2    c    0.101678 *  0.310538 *  0.685726 *   0.87073    1.000000    
    106 O2    c    0.787048 *  0.087923 *  0.843457 *   0.87073    1.000000    
    107 O2    c    0.296636 *  0.198272 *  0.519958 *   0.87073    1.000000    
    108 O1    c    0.908788 *  0.694412 *  0.194432 *   1.73396    1.000000    
    109 O1    c    0.339559 *  0.628131 *  0.251508 *   1.73396    1.000000    
    110 O2    c    0.351196 *  0.674866 *  0.582835 *   0.87073    1.000000    
    111 O3    c    0.316607 *  0.685908 *  0.901930 *   1.33043    1.000000    
    112 O2    c    0.673033 *  0.347805 *  0.747313 *   0.87073    1.000000    
    113 O1    c    0.632754 *  0.340714 *  0.087036 *   1.73396    1.000000    
    114 O3    c    0.693643 *  0.318493 *  0.431603 *   1.33043    1.000000    
    115 O1    c    0.370937 *  0.325739 *  0.961979 *   1.73396    1.000000    
    116 O1    c    0.676888 *  0.060230 *  0.298841 *   1.73396    1.000000    
    117 O2    c    0.964700 *  0.636026 *  0.641307 *   0.87073    1.000000    
    118 O2    c    0.613527 *  0.651162 *  0.474023 *   0.87073    1.000000    
    119 O2    c    0.332766 *  0.957992 *  0.796084 *   0.87073    1.000000    
    120 O1    c    0.027224 *  0.380816 *  0.142478 *   1.73396    1.000000    
    121 O2    c    0.347561 *  0.368777 *  0.369174 *   0.87073    1.000000    
    122 O1    c    0.058551 *  0.674214 *  0.038343 *   1.73396    1.000000    
    123 O2    c    0.634200 *  0.964121 *  0.688735 *   0.87073    1.000000    
    124 O3    c    0.661834 *  0.616204 *  0.854294 *   1.33043    1.000000    
    125 O2    c    0.959848 *  0.334839 *  0.535529 *   0.87073    1.000000    
    126 O1    c    0.378812 *  0.022545 *  0.197641 *   1.73396    1.000000    
    127 O1    c    0.750588 *  0.273777 *  0.016508 *   1.73396    1.000000    
    128 O1    c    0.724456 *  0.474330 *  0.349315 *   1.73396    1.000000    
    129 O2    c    0.540364 *  0.233681 *  0.674633 *   0.87073    1.000000    
    130 O2    c    0.223999 *  0.688759 *  0.513413 *   0.87073    1.000000    
    131 O2    c    0.313061 *  0.537224 *  0.836205 *   0.87073    1.000000    
    132 O1    c    0.462205 *  0.789191 *  0.175864 *   1.73396    1.000000    
    133 O1    c    0.276686 *  0.739656 *  0.325550 *   1.73396    1.000000    
    134 O1    c    0.472249 *  0.725200 *  0.983016 *   1.73396    1.000000    
    135 O2    c    0.233979 *  0.542445 *  0.655797 *   0.87073    1.000000    
    136 O2    c    0.686582 *  0.219526 *  0.816774 *   0.87073    1.000000    
    137 O2    c    0.533852 *  0.303074 *  0.495218 *   0.87073    1.000000    
    138 O1    c    0.791704 *  0.455929 *  0.164137 *   1.73396    1.000000    
    139 O1    c    0.790304 *  0.532896 *  0.020647 *   1.73396    1.000000    
    140 O3    c    0.466650 *  0.234303 *  0.362717 *   1.33043    1.000000    
    141 O2    c    0.751991 *  0.216605 *  0.690594 *   0.87073    1.000000    
    142 O2    c    0.212803 *  0.462406 *  0.531147 *   0.87073    1.000000    
    143 O3    c    0.529034 *  0.749884 *  0.855025 *   1.33043    1.000000    
    144 O1    c    0.222836 *  0.757035 *  0.211078 *   1.73396    1.000000    
    145 O1    c    0.528745 *  0.787706 *  0.318429 *   1.73396    1.000000    
    146 O1    c    0.239708 *  0.468680 *  0.971694 *   1.73396    1.000000    
    147 O2    c    0.217541 *  0.754117 *  0.637825 *   0.87073    1.000000    
    148 O2    c    0.460400 *  0.209910 *  0.800076 *   0.87073    1.000000    
    149 O2    c    0.740444 *  0.526619 *  0.477759 *   0.87073    1.000000    
    150 O1    c    0.761080 *  0.222963 *  0.126962 *   1.73396    1.000000    
    151 O3    c    0.221658 *  0.341365 *  0.891165 *   1.33043    1.000000    
    152 O1    c    0.662456 *  0.871924 *  0.238155 *   1.73396    1.000000    
    153 O2    c    0.088639 *  0.765423 *  0.567451 *   0.87073    1.000000    
    154 O3    c    0.774705 *  0.678056 *  0.408665 *   1.33043    1.000000    
    155 O2    c    0.331036 *  0.093957 *  0.726438 *   0.87073    1.000000    
    156 O1    c    0.940938 *  0.242026 *  0.061642 *   1.73396    1.000000    
    157 O2    c    0.345876 *  0.224921 *  0.437419 *   0.87073    1.000000    
    158 O1    c    0.870916 *  0.659888 *  0.103482 *   1.73396    1.000000    
    159 O2    c    0.763693 *  0.089286 *  0.761265 *   0.87073    1.000000    
    160 O1    c    0.685257 *  0.771335 *  0.928993 *   1.73396    1.000000    
    161 O2    c    0.094334 *  0.333372 *  0.605120 *   0.87073    1.000000    
    162 O1    c    0.239130 *  0.926017 *  0.281614 *   1.73396    1.000000    
    163 O1    c    0.578252 *  0.559978 *  0.989127 *   1.73396    1.000000    
    164 O1    c    0.450445 *  0.003271 *  0.339794 *   1.73396    1.000000    
    165 O2    c    0.983044 *  0.429705 *  0.661435 *   0.87073    1.000000    
    166 O2    c    0.409453 *  0.429262 *  0.488442 *   0.87073    1.000000    
    167 O2    c    0.556045 *  0.968137 *  0.814715 *   0.87073    1.000000    
    168 O1    c    0.056886 *  0.625402 *  0.142289 *   1.73396    1.000000    
    169 O3    c    0.561294 *  0.582273 *  0.348532 *   1.33043    1.000000    
    170 O1    c    0.009913 *  0.442022 *  0.999445 *   1.73396    1.000000    
    171 O2    c    0.426441 *  0.981955 *  0.670051 *   0.87073    1.000000    
    172 O2    c    0.436659 *  0.412307 *  0.847016 *   0.87073    1.000000    
    173 O2    c    0.970704 *  0.556671 *  0.515359 *   0.87073    1.000000    
    174 O1    c    0.625613 *  0.051936 *  0.194194 *   1.73396    1.000000    
    175 O1    c    0.548886 *  0.170546 *  0.263324 *   1.73396    1.000000    
    176 O2    c    0.846028 *  0.428048 *  0.590634 *   0.87073    1.000000    
    177 O3    c    0.594022 *  0.432660 *  0.910496 *   1.33043    1.000000    
    178 O2    c    0.425604 *  0.843980 *  0.740860 *   0.87073    1.000000    
    179 O1    c    0.174908 *  0.550190 *  0.073866 *   1.73396    1.000000    
    180 O2    c    0.422527 *  0.571181 *  0.420042 *   0.87073    1.000000    
    181 F     c    0.435047 *  0.883329 *  0.257868 *   0.56000    1.000000    
    182 F     c    0.099842 *  0.552451 *  0.585499 *   0.56000    1.000000    
    183 F     c    0.433529 *  0.565153 *  0.921592 *   0.56000    1.000000    
    184 F     c    0.549496 *  0.097961 *  0.744343 *   0.56000    1.000000    
    185 F     c    0.884809 *  0.442604 *  0.080487 *   0.56000    1.000000    
    186 F     c    0.568370 *  0.428446 *  0.412558 *   0.56000    1.000000    
    187 O1    s    0.919645 *  0.979711 *  0.984103 *  -3.73396    1.000000    
    188 O1    s    0.015577 *  0.938150 *  0.333333 *  -3.73396    1.000000    
    189 O2    s    0.084776 *  0.085066 *  0.665433 *  -2.87073    1.000000    
    190 O3    s    0.068240 *  0.004815 *  0.509558 *  -3.33043    1.000000    
    191 O2    s    0.002846 *  0.081299 *  0.822477 *  -2.87073    1.000000    
    192 O1    s    0.939192 *  0.915459 *  0.157708 *  -3.73396    1.000000    
    193 O3    s    0.350263 *  0.562346 *  0.339546 *  -3.33043    1.000000    
    194 O2    s    0.418598 *  0.774431 *  0.660864 *  -2.87073    1.000000    
    195 O1    s    0.235477 *  0.658914 *  0.988012 *  -3.73396    1.000000    
    196 O2    s    0.637381 *  0.401330 *  0.827782 *  -2.87073    1.000000    
    197 O1    s    0.582040 *  0.240065 *  0.173287 *  -3.73396    1.000000    
    198 O2    s    0.767181 *  0.356992 *  0.512965 *  -2.87073    1.000000    
    199 O1    s    0.580329 *  0.343504 *  0.997081 *  -3.73396    1.000000    
    200 O2    s    0.773619 *  0.419865 *  0.669918 *  -2.87073    1.000000    
    201 O1    s    0.660460 *  0.238931 *  0.347527 *  -3.73396    1.000000    
    202 O2    s    0.403046 *  0.634149 *  0.501747 *  -2.87073    1.000000    
    203 O1    s    0.245587 *  0.583150 *  0.164134 *  -3.73396    1.000000    
    204 O2    s    0.355876 *  0.767026 *  0.820111 *  -2.87073    1.000000    
    205 O1    s    0.116806 *  0.211213 *  0.965165 *  -3.73396    1.000000    
    206 O1    s    0.781477 *  0.914246 *  0.316289 *  -3.73396    1.000000    
    207 O2    s    0.103537 *  0.886092 *  0.636736 *  -2.87073    1.000000    
    208 O3    s    0.858404 *  0.767265 *  0.482448 *  -3.33043    1.000000    
    209 O2    s    0.217919 *  0.095971 *  0.795409 *  -2.87073    1.000000    
    210 O1    s    0.914144 *  0.126125 *  0.141353 *  -3.73396    1.000000    
    211 O3    s    0.224863 *  0.128869 *  0.369609 *  -3.33043    1.000000    
    212 O1    s    0.919105 *  0.789149 *  0.028936 *  -3.73396    1.000000    
    213 O2    s    0.886169 *  0.104194 *  0.693053 *  -2.87073    1.000000    
    214 O3    s    0.792917 *  0.884247 *  0.851939 *  -3.33043    1.000000    
    215 O2    s    0.097698 *  0.221222 *  0.536233 *  -2.87073    1.000000    
    216 O1    s    0.127938 *  0.918010 *  0.205925 *  -3.73396    1.000000    
    217 O1    s    0.912408 *  0.879609 *  0.249301 *  -3.73396    1.000000    
    218 O2    s    0.153380 *  0.078757 *  0.585954 *  -2.87073    1.000000    
    219 O3    s    0.930865 *  0.074576 *  0.900773 *  -3.33043    1.000000    
    220 O2    s    0.080171 *  0.154830 *  0.744696 *  -2.87073    1.000000    
    221 O1    s    0.874386 *  0.962087 *  0.075940 *  -3.73396    1.000000    
    222 O1    s    0.044590 *  0.928733 *  0.424280 *  -3.73396    1.000000    
    223 O1    s    0.890727 *  0.188679 *  0.975434 *  -3.73396    1.000000    
    224 O1    s    0.809188 *  0.710335 *  0.319840 *  -3.73396    1.000000    
    225 O2    s    0.303879 *  0.094637 *  0.647921 *  -2.87073    1.000000    
    226 O3    s    0.087603 *  0.784633 *  0.487732 *  -3.33043    1.000000    
    227 O2    s    0.212164 *  0.297125 *  0.810619 *  -2.87073    1.000000    
    228 O1    s    0.708657 *  0.901128 *  0.150056 *  -3.73396    1.000000    
    229 O1    s    0.202657 *  0.897300 *  0.366760 *  -3.73396    1.000000    
    230 O1    s    0.701604 *  0.796890 *  0.018669 *  -3.73396    1.000000    
    231 O2    s    0.094956 *  0.305211 *  0.683194 *  -2.87073    1.000000    
    232 O2    s    0.786304 *  0.082366 *  0.840764 *  -2.87073    1.000000    
    233 O2    s    0.292084 *  0.200423 *  0.517979 *  -2.87073    1.000000    
    234 O1    s    0.913526 *  0.699891 *  0.191872 *  -3.73396    1.000000    
    235 O1    s    0.341048 *  0.637048 *  0.252021 *  -3.73396    1.000000    
    236 O2    s    0.339743 *  0.669372 *  0.582978 *  -2.87073    1.000000    
    237 O3    s    0.323978 *  0.681626 *  0.900658 *  -3.33043    1.000000    
    238 O2    s    0.667507 *  0.336486 *  0.747137 *  -2.87073    1.000000    
    239 O1    s    0.641962 *  0.341767 *  0.086823 *  -3.73396    1.000000    
    240 O3    s    0.688305 *  0.325652 *  0.433167 *  -3.33043    1.000000    
    241 O1    s    0.373135 *  0.333952 *  0.961100 *  -3.73396    1.000000    
    242 O1    s    0.668333 *  0.052556 *  0.299289 *  -3.73396    1.000000    
    243 O2    s    0.970749 *  0.632640 *  0.639093 *  -2.87073    1.000000    
    244 O2    s    0.611027 *  0.642907 *  0.472278 *  -2.87073    1.000000    
    245 O2    s    0.342214 *  0.964518 *  0.793892 *  -2.87073    1.000000    
    246 O1    s    0.025355 *  0.381917 *  0.139517 *  -3.73396    1.000000    
    247 O2    s    0.355499 *  0.371556 *  0.370676 *  -2.87073    1.000000    
    248 O1    s    0.051490 *  0.665852 *  0.038198 *  -3.73396    1.000000    
    249 O2    s    0.630865 *  0.970196 *  0.690946 *  -2.87073    1.000000    
    250 O3    s    0.654227 *  0.612293 *  0.856411 *  -3.33043    1.000000    
    251 O2    s    0.966413 *  0.344439 *  0.537726 *  -2.87073    1.000000    
    252 O1    s    0.380811 *  0.020798 *  0.200620 *  -3.73396    1.000000    
    253 O1    s    0.757948 *  0.283092 *  0.017841 *  -3.73396    1.000000    
    254 O1    s    0.717299 *  0.475972 *  0.352063 *  -3.73396    1.000000    
    255 O2    s    0.540748 *  0.226806 *  0.677564 *  -2.87073    1.000000    
    256 O2    s    0.217512 *  0.681702 *  0.516524 *  -2.87073    1.000000    
    257 O2    s    0.317785 *  0.537224 *  0.839120 *  -2.87073    1.000000    
    258 O1    s    0.463144 *  0.791194 *  0.179040 *  -3.73396    1.000000    
    259 O1    s    0.285771 *  0.747053 *  0.324025 *  -3.73396    1.000000    
    260 O1    s    0.473243 *  0.717400 *  0.980650 *  -3.73396    1.000000    
    261 O2    s    0.227174 *  0.542798 *  0.652919 *  -2.87073    1.000000    
    262 O2    s    0.679825 *  0.213249 *  0.813624 *  -2.87073    1.000000    
    263 O2    s    0.533945 *  0.308778 *  0.492417 *  -2.87073    1.000000    
    264 O1    s    0.793939 *  0.457584 *  0.160873 *  -3.73396    1.000000    
    265 O1    s    0.792701 *  0.530343 *  0.023590 *  -3.73396    1.000000    
    266 O3    s    0.464092 *  0.240565 *  0.365598 *  -3.33043    1.000000    
    267 O2    s    0.744558 *  0.211628 *  0.693135 *  -2.87073    1.000000    
    268 O2    s    0.207656 *  0.465442 *  0.533771 *  -2.87073    1.000000    
    269 O3    s    0.525571 *  0.743468 *  0.856596 *  -3.33043    1.000000    
    270 O1    s    0.232326 *  0.763345 *  0.211649 *  -3.73396    1.000000    
    271 O1    s    0.526384 *  0.789518 *  0.315480 *  -3.73396    1.000000    
    272 O1    s    0.245744 *  0.468568 *  0.968983 *  -3.73396    1.000000    
    273 O2    s    0.212566 *  0.746558 *  0.635492 *  -2.87073    1.000000    
    274 O2    s    0.463331 *  0.204857 *  0.797438 *  -2.87073    1.000000    
    275 O2    s    0.734843 *  0.524650 *  0.475920 *  -2.87073    1.000000    
    276 O1    s    0.767561 *  0.232123 *  0.126742 *  -3.73396    1.000000    
    277 O3    s    0.231360 *  0.347739 *  0.890735 *  -3.33043    1.000000    
    278 O1    s    0.657889 *  0.877035 *  0.238538 *  -3.73396    1.000000    
    279 O2    s    0.089494 *  0.757021 *  0.568440 *  -2.87073    1.000000    
    280 O3    s    0.767435 *  0.670548 *  0.410039 *  -3.33043    1.000000    
    281 O2    s    0.340242 *  0.094214 *  0.727351 *  -2.87073    1.000000    
    282 O1    s    0.936044 *  0.246484 *  0.062263 *  -3.73396    1.000000    
    283 O2    s    0.352030 *  0.233771 *  0.437357 *  -2.87073    1.000000    
    284 O1    s    0.876221 *  0.655351 *  0.102930 *  -3.73396    1.000000    
    285 O2    s    0.755022 *  0.089757 *  0.760369 *  -2.87073    1.000000    
    286 O1    s    0.677830 *  0.765506 *  0.928029 *  -3.73396    1.000000    
    287 O2    s    0.094764 *  0.342581 *  0.604159 *  -2.87073    1.000000    
    288 O1    s    0.244728 *  0.922175 *  0.280790 *  -3.73396    1.000000    
    289 O1    s    0.576391 *  0.560037 *  0.986469 *  -3.73396    1.000000    
    290 O1    s    0.448107 *  0.002929 *  0.336846 *  -3.73396    1.000000    
    291 O2    s    0.987067 *  0.433267 *  0.657984 *  -2.87073    1.000000    
    292 O2    s    0.414027 *  0.429632 *  0.486091 *  -2.87073    1.000000    
    293 O2    s    0.556499 *  0.973197 *  0.811496 *  -2.87073    1.000000    
    294 O1    s    0.050907 *  0.617129 *  0.141756 *  -3.73396    1.000000    
    295 O3    s    0.559383 *  0.578076 *  0.351190 *  -3.33043    1.000000    
    296 O1    s    0.009328 *  0.440289 *  0.002417 *  -3.73396    1.000000    
    297 O2    s    0.430268 *  0.986048 *  0.673467 *  -2.87073    1.000000    
    298 O2    s    0.437030 *  0.416708 *  0.848429 *  -2.87073    1.000000    
    299 O2    s    0.975689 *  0.557228 *  0.518621 *  -2.87073    1.000000    
    300 O1    s    0.617820 *  0.045787 *  0.195034 *  -3.73396    1.000000    
    301 O1    s    0.549993 *  0.163704 *  0.262920 *  -3.73396    1.000000    
    302 O2    s    0.856521 *  0.433246 *  0.590488 *  -2.87073    1.000000    
    303 O3    s    0.588354 *  0.434937 *  0.909479 *  -3.33043    1.000000    
    304 O2    s    0.430763 *  0.854397 *  0.740956 *  -2.87073    1.000000    
    305 O1    s    0.167986 *  0.551046 *  0.074501 *  -3.73396    1.000000    
    306 O2    s    0.426585 *  0.566236 *  0.420481 *  -2.87073    1.000000    
    307 F     s    0.433464 *  0.881622 *  0.257948 *  -1.56000    1.000000    
    308 F     s    0.100373 *  0.552633 *  0.585360 *  -1.56000    1.000000    
    309 F     s    0.428722 *  0.568398 *  0.923617 *  -1.56000    1.000000    
    310 F     s    0.549622 *  0.098492 *  0.744389 *  -1.56000    1.000000    
    311 F     s    0.882512 *  0.441872 *  0.080272 *  -1.56000    1.000000    
    312 F     s    0.573313 *  0.422558 *  0.410065 *  -1.56000    1.000000    
--------------------------------------------------------------------------------



********************************************************************************
*  General input information                                                   *
********************************************************************************

  Species output for all configurations : 

--------------------------------------------------------------------------------
  Species    Type    Atomic    Atomic    Charge       Radii (Angs)     Library
                     Number     Mass       (e)     Cova   Ionic  VDW   Symbol
--------------------------------------------------------------------------------
    Si       Core       14      28.09   4.000000   1.200  0.000  2.100          
    O1       Core        8      16.00   1.733957   0.730  0.000  1.360          
    O1       Shell       8       0.00  -3.733957   0.730  0.000  1.360          
    O2       Core        8      16.00   0.870733   0.730  0.000  1.360          
    O2       Shell       8       0.00  -2.870733   0.730  0.000  1.360          
    O3       Core        8      16.00   1.330431   0.730  0.000  1.360          
    O3       Shell       8       0.00  -3.330431   0.730  0.000  1.360          
    F        Core        9      19.00   0.560000   0.710  0.000  1.300          
    F        Shell       9       0.00  -1.560000   0.710  0.000  1.300          
    Ge       Core       32      72.61   4.000000   1.170  0.000  1.750          
--------------------------------------------------------------------------------


  Lattice summation method               =    Ewald          (3-D)
                                         =    Parry          (2-D)
                                         =    Saunders et al (1-D)
  Accuracy factor for lattice sums       =   12.000


  Time limit = Infinity

  Maximum range for interatomic potentials =        16.000000 Angstroms

  Taper potentials to zero over   1.0000 Angstroms using polynomial

  General interatomic potentials :

--------------------------------------------------------------------------------
Atom  Types   Potential         A         B         C         D     Cutoffs(Ang)
  1     2                                                            Min    Max 
--------------------------------------------------------------------------------
Si   c O1   s Buckingham    0.132E+04 0.318      10.1      0.00     0.000 16.000
Si   c O2   s Buckingham    0.132E+04 0.318      10.1      0.00     0.000 16.000
Si   c O3   s Buckingham    0.132E+04 0.318      10.1      0.00     0.000 16.000
Ge   c O1   s Buckingham    0.150E+04 0.326      16.8      0.00     0.000 16.000
Ge   c O2   s Buckingham    0.150E+04 0.326      16.8      0.00     0.000 16.000
Ge   c O3   s Buckingham    0.150E+04 0.326      16.8      0.00     0.000 16.000
O1   s O1   s Buckingham    0.228E+05 0.149      10.9      0.00     0.000 16.000
O1   s O2   s Buckingham    0.228E+05 0.149      10.9      0.00     0.000 16.000
O1   s O3   s Buckingham    0.228E+05 0.149      10.9      0.00     0.000 16.000
O2   s O2   s Buckingham    0.228E+05 0.149      10.9      0.00     0.000 16.000
O2   s O3   s Buckingham    0.228E+05 0.149      10.9      0.00     0.000 16.000
O3   s O3   s Buckingham    0.228E+05 0.149      10.9      0.00     0.000 16.000
Si   c F    s Buckingham     977.     0.282      0.00      0.00     0.000 16.000
Ge   c F    s Buckingham     681.     0.320      0.00      0.00     0.000 16.000
F    s F    s Buckingham     540.     0.262      0.00      0.00     0.000 16.000
O1   s F    s Buckingham    0.168E+04 0.268      0.00      0.00     0.000 16.000
O2   s F    s Buckingham    0.168E+04 0.268      0.00      0.00     0.000 16.000
O3   s F    s Buckingham    0.168E+04 0.268      0.00      0.00     0.000 16.000
O2   c O2   s Spring (c-s)   76.0      0.00      0.00      0.00     0.000  0.800
O3   c O3   s Spring (c-s)   128.      0.00      0.00      0.00     0.000  0.800
O1   c O1   s Spring (c-s)   180.      0.00      0.00      0.00     0.000  0.800
F    c F    s Spring (c-s)   33.5      0.00      0.00      0.00     0.000  0.800
--------------------------------------------------------------------------------

  General Three-body potentials :

  Harmonic form:

--------------------------------------------------------------------------------
Atom    Atom    Atom           Force Constants            Theta     Cutoffs  
  1       2       3     (eVrad**-2/eVrad**-3/eVrad**-4)   (deg)  1-2  1-3  2-3
--------------------------------------------------------------------------------
Si    c O1    s O1    s  1.261        0.0000    0.0000   109.470 0.00 0.00 0.00
                                                                 1.90 1.90 3.50
Si    c O1    s O2    s  1.261        0.0000    0.0000   109.470 0.00 0.00 0.00
                                                                 1.90 1.90 3.50
Si    c O2    s O2    s  1.261        0.0000    0.0000   109.470 0.00 0.00 0.00
                                                                 1.90 1.90 3.50
--------------------------------------------------------------------------------

********************************************************************************
*  Output for configuration   1                                                *
********************************************************************************


  Components of energy : 

--------------------------------------------------------------------------------
  Interatomic potentials     =        1998.37623812 eV
  Three-body potentials      =           0.28788272 eV
  Monopole - monopole (real) =       -5792.68406966 eV
  Monopole - monopole (recip)=       -3735.93719827 eV
  Monopole - monopole (total)=       -9528.62126794 eV
  Neutralising energy        =          -6.32100371 eV
--------------------------------------------------------------------------------
  Total lattice energy       =       -7536.27815080 eV
--------------------------------------------------------------------------------
  Total lattice energy       =         -727135.6390 kJ/(mole unit cells)
--------------------------------------------------------------------------------


  Number of variables =      939

  Maximum number of calculations  =          1000
  Maximum Hessian update interval =            10
  Maximum step size               =   1.000000000
  Maximum parameter tolerance     =   0.000010000
  Maximum function  tolerance     =   0.000010000
  Maximum gradient  tolerance     =   0.001000000
  Maximum gradient  component     =   0.010000000

  Symmetry not applied to optimisation

  Cell parameters to be optimised using strains

  RFO method to be used

  DFP hessian update to be used

  Dumpfile to be written after every cycle

  Start of bulk optimisation :

  Cycle:      0 Energy:     -7536.278151  Gnorm:      0.004359  CPU:    1.016
  ** Hessian has required structure
  Cycle:      1 Energy:     -7536.349279  Gnorm:      0.025193  CPU:    3.670
  ** Hessian has required structure
  Cycle:      2 Energy:     -7536.375526  Gnorm:      0.019166  CPU:    6.010
  ** Hessian has required structure
  Cycle:      3 Energy:     -7536.389700  Gnorm:      0.009340  CPU:    8.662
  ** Hessian has required structure
  Cycle:      4 Energy:     -7536.395231  Gnorm:      0.009030  CPU:   11.002
  ** Hessian has required structure
  Cycle:      5 Energy:     -7536.397044  Gnorm:      0.006198  CPU:   13.342
  ** Hessian has required structure
  Cycle:      6 Energy:     -7536.398482  Gnorm:      0.004272  CPU:   15.683
  ** Hessian has required structure
  Cycle:      7 Energy:     -7536.399003  Gnorm:      0.002276  CPU:   18.024
  ** Hessian has required structure
  Cycle:      8 Energy:     -7536.399209  Gnorm:      0.001632  CPU:   20.362
  ** Hessian has required structure
  Cycle:      9 Energy:     -7536.399265  Gnorm:      0.000578  CPU:   22.700
  ** Hessian has required structure
  Cycle:     10 Energy:     -7536.399274  Gnorm:      0.000351  CPU:   25.039
  ** Hessian has required structure


  **** Optimisation achieved ****


  Final energy =   -7536.39927831 eV
  Final Gnorm  =       0.00000193

  Components of energy : 

--------------------------------------------------------------------------------
  Interatomic potentials     =        1998.96120425 eV
  Three-body potentials      =           0.28430210 eV
  Monopole - monopole (real) =       -5781.05168699 eV
  Monopole - monopole (recip)=       -3748.25125343 eV
  Monopole - monopole (total)=       -9529.30294042 eV
  Neutralising energy        =          -6.34184424 eV
--------------------------------------------------------------------------------
  Total lattice energy       =       -7536.39927831 eV
--------------------------------------------------------------------------------
  Total lattice energy       =         -727147.3259 kJ/(mole unit cells)
--------------------------------------------------------------------------------

  Final fractional coordinates of atoms :

--------------------------------------------------------------------------------
   No.  Atomic        x           y          z          Radius
        Label       (Frac)      (Frac)     (Frac)       (Angs) 
--------------------------------------------------------------------------------
     1  Ge    c     0.699600    0.375700    0.033890    0.000000
     2  Ge    c     0.675349    0.342794    0.375301    0.000000
     3  Si    c     0.715199    0.316148    0.694543    0.000000
     4  Si    c     0.321735    0.624212    0.525993    0.000000
     5  Si    c     0.403325    0.691128    0.848326    0.000000
     6  Ge    c     0.348332    0.695461    0.195066    0.000000
     7  Ge    c     0.395561    0.678096    0.295885    0.000000
     8  Ge    c     0.351507    0.642061    0.947678    0.000000
     9  Si    c     0.338108    0.697450    0.623951    0.000000
    10  Si    c     0.639263    0.294468    0.792920    0.000000
    11  Si    c     0.716038    0.384979    0.473399    0.000000
    12  Ge    c     0.715637    0.330307    0.134315    0.000000
    13  Ge    c     0.540134    0.423301    0.964373    0.000000
    14  Ge    c     0.595241    0.117372    0.313399    0.000000
    15  Si    c     0.934635    0.500759    0.636557    0.000000
    16  Si    c     0.491504    0.575998    0.459631    0.000000
    17  Si    c     0.448738    0.896267    0.782797    0.000000
    18  Ge    c     0.147560    0.546997    0.120398    0.000000
    19  Si    c     0.457532    0.519765    0.358013    0.000000
    20  Ge    c     0.132931    0.578683    0.015050    0.000000
    21  Si    c     0.518057    0.912268    0.683023    0.000000
    22  Si    c     0.602429    0.469133    0.860506    0.000000
    23  Si    c     0.922243    0.433953    0.537307    0.000000
    24  Ge    c     0.563087    0.122875    0.208036    0.000000
    25  Si    c     0.320649    0.406465    0.844291    0.000000
    26  Ge    c     0.638099    0.906549    0.186826    0.000000
    27  Si    c     0.123949    0.704067    0.516048    0.000000
    28  Ge    c     0.753065    0.608707    0.349020    0.000000
    29  Si    c     0.446887    0.119934    0.675064    0.000000
    30  Ge    c     0.902844    0.294434    0.010783    0.000000
    31  Si    c     0.430641    0.297902    0.475231    0.000000
    32  Ge    c     0.927641    0.614958    0.144365    0.000000
    33  Si    c     0.719768    0.096535    0.801315    0.000000
    34  Ge    c     0.615697    0.719801    0.976461    0.000000
    35  Si    c     0.140970    0.427896    0.644901    0.000000
    36  Ge    c     0.317416    0.877523    0.321087    0.000000
    37  Ge    c     0.255163    0.353277    0.946191    0.000000
    38  Ge    c     0.671656    0.905041    0.289427    0.000000
    39  Si    c     0.130853    0.771592    0.614884    0.000000
    40  Si    c     0.776119    0.661767    0.452974    0.000000
    41  Si    c     0.368515    0.095108    0.773255    0.000000
    42  Ge    c     0.930864    0.260147    0.113005    0.000000
    43  Si    c     0.390016    0.240636    0.373865    0.000000
    44  Ge    c     0.920010    0.652626    0.043201    0.000000
    45  Si    c     0.788929    0.108666    0.702331    0.000000
    46  Ge    c     0.684807    0.756678    0.870569    0.000000
    47  Si    c     0.120411    0.354102    0.546812    0.000000
    48  Ge    c     0.278051    0.905972    0.219939    0.000000
    49  Ge    c     0.972877    0.116542    0.953038    0.000000
    50  Ge    c     0.910620    0.871942    0.300343    0.000000
    51  Si    c     0.201806    0.054908    0.629083    0.000000
    52  Ge    c     0.045952    0.882907    0.470712    0.000000
    53  Si    c     0.154290    0.163446    0.789101    0.000000
    54  Ge    c     0.890668    0.985981    0.126841    0.000000
    55  Ge    c     0.147092    0.971985    0.367802    0.000000
    56  Ge    c     0.872746    0.886428    0.022925    0.000000
    57  Si    c     0.073111    0.180175    0.691137    0.000000
    58  Si    c     0.902809    0.033463    0.849706    0.000000
    59  Si    c     0.182195    0.135354    0.531192    0.000000
    60  Ge    c     0.005357    0.869741    0.197078    0.000000
    61  O1    c     0.939261    0.979229    0.976732    0.000000
    62  O1    c     0.040465    0.961470    0.330800    0.000000
    63  O2    c     0.122284    0.100769    0.660978    0.000000
    64  O3    c     0.087772    0.007104    0.507785    0.000000
    65  O2    c     0.026654    0.079711    0.817255    0.000000
    66  O1    c     0.984852    0.940638    0.151847    0.000000
    67  O3    c     0.370562    0.545317    0.326993    0.000000
    68  O2    c     0.466856    0.788853    0.650344    0.000000
    69  O1    c     0.245437    0.675659    0.978229    0.000000
    70  O2    c     0.669035    0.408986    0.827723    0.000000
    71  O1    c     0.603218    0.252077    0.175870    0.000000
    72  O2    c     0.790157    0.358365    0.511840    0.000000
    73  O1    c     0.573470    0.336623    0.999135    0.000000
    74  O2    c     0.808833    0.448079    0.669047    0.000000
    75  O1    c     0.703089    0.233359    0.346126    0.000000
    76  O2    c     0.436212    0.650540    0.490341    0.000000
    77  O1    c     0.276249    0.587803    0.152362    0.000000
    78  O2    c     0.373617    0.765990    0.810392    0.000000
    79  O1    c     0.125639    0.221570    0.965826    0.000000
    80  O1    c     0.798202    0.909494    0.316301    0.000000
    81  O2    c     0.138396    0.902571    0.633413    0.000000
    82  O3    c     0.884911    0.781779    0.478037    0.000000
    83  O2    c     0.239236    0.093592    0.791087    0.000000
    84  O1    c     0.944954    0.142302    0.138354    0.000000
    85  O3    c     0.264411    0.125558    0.356742    0.000000
    86  O1    c     0.930609    0.786093    0.018967    0.000000
    87  O2    c     0.921869    0.117797    0.684345    0.000000
    88  O3    c     0.821021    0.882841    0.847165    0.000000
    89  O2    c     0.121096    0.227542    0.528622    0.000000
    90  O1    c     0.164070    0.933444    0.198696    0.000000
    91  O1    c     0.946674    0.904016    0.244864    0.000000
    92  O2    c     0.193736    0.099137    0.580720    0.000000
    93  O3    c     0.958274    0.089225    0.896429    0.000000
    94  O2    c     0.109273    0.168971    0.740489    0.000000
    95  O1    c     0.907251    0.976058    0.070075    0.000000
    96  O1    c     0.080314    0.953062    0.420577    0.000000
    97  O1    c     0.881425    0.179981    0.970719    0.000000
    98  O1    c     0.856464    0.714389    0.311043    0.000000
    99  O2    c     0.350867    0.121391    0.639078    0.000000
   100  O3    c     0.121032    0.794714    0.478643    0.000000
   101  O2    c     0.238493    0.307260    0.805628    0.000000
   102  O1    c     0.736566    0.901179    0.144345    0.000000
   103  O1    c     0.207253    0.872882    0.361851    0.000000
   104  O1    c     0.711209    0.811319    0.017887    0.000000
   105  O2    c     0.141344    0.330053    0.680908    0.000000
   106  O2    c     0.810088    0.089893    0.837936    0.000000
   107  O2    c     0.324605    0.204783    0.510666    0.000000
   108  O1    c     0.932993    0.710288    0.189033    0.000000
   109  O1    c     0.359397    0.620991    0.242072    0.000000
   110  O2    c     0.386082    0.687100    0.573274    0.000000
   111  O3    c     0.339900    0.699760    0.894626    0.000000
   112  O2    c     0.703245    0.360295    0.745312    0.000000
   113  O1    c     0.640919    0.343225    0.088314    0.000000
   114  O3    c     0.737496    0.330472    0.427560    0.000000
   115  O1    c     0.379485    0.332910    0.959315    0.000000
   116  O1    c     0.689822    0.050051    0.296241    0.000000
   117  O2    c     0.003376    0.655223    0.637334    0.000000
   118  O2    c     0.642603    0.658474    0.464020    0.000000
   119  O2    c     0.360008    0.963228    0.788416    0.000000
   120  O1    c     0.044906    0.393903    0.136749    0.000000
   121  O2    c     0.388374    0.367194    0.359400    0.000000
   122  O1    c     0.065057    0.671830    0.030898    0.000000
   123  O2    c     0.672822    0.981109    0.681100    0.000000
   124  O3    c     0.682879    0.618596    0.852800    0.000000
   125  O2    c     0.988896    0.345199    0.531733    0.000000
   126  O1    c     0.410637    0.018983    0.193665    0.000000
   127  O1    c     0.753102    0.274754    0.014921    0.000000
   128  O1    c     0.769643    0.477976    0.342746    0.000000
   129  O2    c     0.578565    0.253199    0.670639    0.000000
   130  O2    c     0.253454    0.697693    0.505614    0.000000
   131  O2    c     0.340634    0.544008    0.831132    0.000000
   132  O1    c     0.492630    0.793161    0.169935    0.000000
   133  O1    c     0.293421    0.725819    0.319748    0.000000
   134  O1    c     0.485932    0.739347    0.978300    0.000000
   135  O2    c     0.273632    0.559921    0.648296    0.000000
   136  O2    c     0.711518    0.224132    0.812882    0.000000
   137  O2    c     0.564908    0.310777    0.488184    0.000000
   138  O1    c     0.811537    0.470061    0.161515    0.000000
   139  O1    c     0.789997    0.531543    0.018493    0.000000
   140  O3    c     0.511225    0.235362    0.354802    0.000000
   141  O2    c     0.789026    0.235073    0.686562    0.000000
   142  O2    c     0.242237    0.471330    0.523934    0.000000
   143  O3    c     0.555330    0.757629    0.849803    0.000000
   144  O1    c     0.247494    0.756500    0.204056    0.000000
   145  O1    c     0.546215    0.775410    0.313023    0.000000
   146  O1    c     0.253371    0.482282    0.968208    0.000000
   147  O2    c     0.257232    0.771778    0.630229    0.000000
   148  O2    c     0.485688    0.215377    0.795821    0.000000
   149  O2    c     0.770930    0.536904    0.472584    0.000000
   150  O1    c     0.779887    0.232402    0.124925    0.000000
   151  O3    c     0.237000    0.352566    0.888278    0.000000
   152  O1    c     0.685516    0.867345    0.233940    0.000000
   153  O2    c     0.122721    0.779584    0.561577    0.000000
   154  O3    c     0.811054    0.682242    0.400887    0.000000
   155  O2    c     0.364301    0.106072    0.720203    0.000000
   156  O1    c     0.952189    0.249359    0.056400    0.000000
   157  O2    c     0.382940    0.226438    0.428449    0.000000
   158  O1    c     0.888215    0.670859    0.098877    0.000000
   159  O2    c     0.795482    0.100015    0.755403    0.000000
   160  O1    c     0.701700    0.777658    0.926310    0.000000
   161  O2    c     0.128138    0.347371    0.599894    0.000000
   162  O1    c     0.259039    0.918311    0.276489    0.000000
   163  O1    c     0.582679    0.567930    0.987944    0.000000
   164  O1    c     0.462265    0.991957    0.337694    0.000000
   165  O2    c     0.022315    0.449698    0.657682    0.000000
   166  O2    c     0.438552    0.434485    0.477916    0.000000
   167  O2    c     0.582834    0.972564    0.807296    0.000000
   168  O1    c     0.078123    0.637553    0.135122    0.000000
   169  O3    c     0.600933    0.580336    0.338647    0.000000
   170  O1    c     0.013256    0.440279    0.992424    0.000000
   171  O2    c     0.467364    0.000806    0.662337    0.000000
   172  O2    c     0.456507    0.413469    0.847212    0.000000
   173  O2    c     0.999656    0.567112    0.511132    0.000000
   174  O1    c     0.656154    0.055429    0.193004    0.000000
   175  O1    c     0.565200    0.164139    0.263212    0.000000
   176  O2    c     0.879460    0.443233    0.588209    0.000000
   177  O3    c     0.611507    0.438755    0.911082    0.000000
   178  O2    c     0.459049    0.854768    0.731788    0.000000
   179  O1    c     0.186980    0.552362    0.064667    0.000000
   180  O2    c     0.456035    0.574144    0.408548    0.000000
   181  F     c     0.453470    0.869825    0.254943    0.000000
   182  F     c     0.133485    0.566395    0.579864    0.000000
   183  F     c     0.448616    0.574850    0.917672    0.000000
   184  F     c     0.581764    0.109473    0.738585    0.000000
   185  F     c     0.892893    0.451078    0.076953    0.000000
   186  F     c     0.605931    0.430329    0.404831    0.000000
   187  O1    s     0.937081    0.983788    0.978217    0.000000
   188  O1    s     0.038704    0.955127    0.331374    0.000000
   189  O2    s     0.125565    0.104449    0.660800    0.000000
   190  O3    s     0.094363    0.010561    0.507245    0.000000
   191  O2    s     0.027840    0.084137    0.817510    0.000000
   192  O1    s     0.978814    0.938903    0.153241    0.000000
   193  O3    s     0.381248    0.551870    0.328041    0.000000
   194  O2    s     0.459199    0.792119    0.650982    0.000000
   195  O1    s     0.243676    0.665788    0.979065    0.000000
   196  O2    s     0.659072    0.403259    0.827487    0.000000
   197  O1    s     0.608200    0.248011    0.175302    0.000000
   198  O2    s     0.796224    0.368891    0.510540    0.000000
   199  O1    s     0.579377    0.346063    0.998772    0.000000
   200  O2    s     0.812162    0.440290    0.668325    0.000000
   201  O1    s     0.692905    0.232280    0.345705    0.000000
   202  O2    s     0.430359    0.640081    0.490755    0.000000
   203  O1    s     0.271844    0.592289    0.153006    0.000000
   204  O2    s     0.384279    0.771994    0.811317    0.000000
   205  O1    s     0.124138    0.223934    0.963345    0.000000
   206  O1    s     0.798552    0.906088    0.313174    0.000000
   207  O2    s     0.144108    0.904935    0.631129    0.000000
   208  O3    s     0.886925    0.778110    0.475079    0.000000
   209  O2    s     0.243647    0.100873    0.789104    0.000000
   210  O1    s     0.939798    0.139025    0.135652    0.000000
   211  O3    s     0.268702    0.125799    0.359433    0.000000
   212  O1    s     0.924909    0.785115    0.021017    0.000000
   213  O2    s     0.923903    0.123221    0.686809    0.000000
   214  O3    s     0.818931    0.888196    0.849128    0.000000
   215  O2    s     0.127389    0.231126    0.530760    0.000000
   216  O1    s     0.159702    0.926258    0.200146    0.000000
   217  O1    s     0.948463    0.899009    0.245379    0.000000
   218  O2    s     0.193361    0.098119    0.580735    0.000000
   219  O3    s     0.953362    0.085330    0.895954    0.000000
   220  O2    s     0.110233    0.169609    0.740344    0.000000
   221  O1    s     0.903279    0.969718    0.070592    0.000000
   222  O1    s     0.082504    0.948668    0.420748    0.000000
   223  O1    s     0.890126    0.182790    0.972069    0.000000
   224  O1    s     0.852600    0.717789    0.313126    0.000000
   225  O2    s     0.345079    0.114323    0.641688    0.000000
   226  O3    s     0.115486    0.792921    0.481596    0.000000
   227  O2    s     0.237914    0.301991    0.807786    0.000000
   228  O1    s     0.741524    0.908064    0.145970    0.000000
   229  O1    s     0.209565    0.881063    0.359691    0.000000
   230  O1    s     0.715693    0.809852    0.015141    0.000000
   231  O2    s     0.134276    0.324460    0.678334    0.000000
   232  O2    s     0.809875    0.084910    0.835270    0.000000
   233  O2    s     0.320637    0.207225    0.509080    0.000000
   234  O1    s     0.938152    0.715723    0.186512    0.000000
   235  O1    s     0.361271    0.630246    0.242651    0.000000
   236  O2    s     0.374708    0.681752    0.573596    0.000000
   237  O3    s     0.347156    0.695010    0.893435    0.000000
   238  O2    s     0.697901    0.349026    0.744968    0.000000
   239  O1    s     0.650303    0.344709    0.087729    0.000000
   240  O3    s     0.731287    0.337055    0.429010    0.000000
   241  O1    s     0.381811    0.341268    0.958645    0.000000
   242  O1    s     0.681950    0.042167    0.296732    0.000000
   243  O2    s     0.009202    0.651521    0.635042    0.000000
   244  O2    s     0.640420    0.650090    0.462416    0.000000
   245  O2    s     0.369692    0.970026    0.786311    0.000000
   246  O1    s     0.043250    0.394482    0.133718    0.000000
   247  O2    s     0.395854    0.369790    0.360817    0.000000
   248  O1    s     0.057900    0.663634    0.030863    0.000000
   249  O2    s     0.669155    0.986958    0.683380    0.000000
   250  O3    s     0.675275    0.614965    0.854934    0.000000
   251  O2    s     0.995682    0.355002    0.533835    0.000000
   252  O1    s     0.411662    0.017753    0.196761    0.000000
   253  O1    s     0.760435    0.283716    0.016089    0.000000
   254  O1    s     0.762215    0.479473    0.345392    0.000000
   255  O2    s     0.578792    0.245971    0.673476    0.000000
   256  O2    s     0.247219    0.690824    0.508801    0.000000
   257  O2    s     0.344689    0.544156    0.834164    0.000000
   258  O1    s     0.492952    0.794628    0.173104    0.000000
   259  O1    s     0.302449    0.733580    0.318083    0.000000
   260  O1    s     0.487158    0.731372    0.976055    0.000000
   261  O2    s     0.266570    0.560148    0.645521    0.000000
   262  O2    s     0.705015    0.218181    0.809644    0.000000
   263  O2    s     0.565366    0.316498    0.485423    0.000000
   264  O1    s     0.813571    0.470967    0.158180    0.000000
   265  O1    s     0.792905    0.528982    0.021346    0.000000
   266  O3    s     0.507451    0.240128    0.357309    0.000000
   267  O2    s     0.781375    0.229820    0.689016    0.000000
   268  O2    s     0.237374    0.474729    0.526598    0.000000
   269  O3    s     0.551560    0.751118    0.851416    0.000000
   270  O1    s     0.257088    0.762875    0.204632    0.000000
   271  O1    s     0.544284    0.777987    0.309976    0.000000
   272  O1    s     0.258559    0.481117    0.965590    0.000000
   273  O2    s     0.252024    0.763994    0.627975    0.000000
   274  O2    s     0.488995    0.210615    0.793133    0.000000
   275  O2    s     0.765757    0.534686    0.470553    0.000000
   276  O1    s     0.786335    0.241635    0.124652    0.000000
   277  O3    s     0.246998    0.358317    0.887878    0.000000
   278  O1    s     0.681027    0.872698    0.234236    0.000000
   279  O2    s     0.123619    0.771135    0.562569    0.000000
   280  O3    s     0.803672    0.675134    0.402307    0.000000
   281  O2    s     0.373472    0.106331    0.721175    0.000000
   282  O1    s     0.947122    0.253461    0.057177    0.000000
   283  O2    s     0.388844    0.235461    0.428387    0.000000
   284  O1    s     0.893054    0.665592    0.098277    0.000000
   285  O2    s     0.786753    0.100554    0.754514    0.000000
   286  O1    s     0.694523    0.772067    0.925283    0.000000
   287  O2    s     0.128633    0.356625    0.598928    0.000000
   288  O1    s     0.264555    0.914579    0.275536    0.000000
   289  O1    s     0.581670    0.567995    0.985284    0.000000
   290  O1    s     0.460601    0.991898    0.334736    0.000000
   291  O2    s     0.026010    0.452876    0.654140    0.000000
   292  O2    s     0.443386    0.434861    0.475694    0.000000
   293  O2    s     0.583510    0.977996    0.804133    0.000000
   294  O1    s     0.072170    0.629235    0.134656    0.000000
   295  O3    s     0.598954    0.576648    0.341270    0.000000
   296  O1    s     0.013001    0.438747    0.995385    0.000000
   297  O2    s     0.470687    0.004413    0.665855    0.000000
   298  O2    s     0.457243    0.418578    0.848306    0.000000
   299  O2    s     0.004878    0.567791    0.514326    0.000000
   300  O1    s     0.648141    0.049206    0.193664    0.000000
   301  O1    s     0.567082    0.157833    0.262651    0.000000
   302  O2    s     0.889967    0.448376    0.587891    0.000000
   303  O3    s     0.605497    0.440668    0.909919    0.000000
   304  O2    s     0.464145    0.865181    0.732060    0.000000
   305  O1    s     0.180498    0.553686    0.065416    0.000000
   306  O2    s     0.459975    0.569146    0.409188    0.000000
   307  F     s     0.451601    0.867245    0.255254    0.000000
   308  F     s     0.133947    0.566553    0.579746    0.000000
   309  F     s     0.443178    0.578914    0.919754    0.000000
   310  F     s     0.581874    0.109979    0.738639    0.000000
   311  F     s     0.890444    0.450784    0.076851    0.000000
   312  F     s     0.611856    0.424138    0.402384    0.000000
--------------------------------------------------------------------------------

  Final Cartesian lattice vectors (Angstroms) :

       12.128501    0.015412    0.098067
       -5.921148   10.589644   -0.063576
        0.959632   -0.200805   30.080049


  Final cell parameters and derivatives :

--------------------------------------------------------------------------------
       a           12.128907 Angstrom     dE/de1(xx)    -0.000001 eV/strain
       b           12.132790 Angstrom     dE/de2(yy)    -0.000006 eV/strain
       c           30.096022 Angstrom     dE/de3(zz)     0.000038 eV/strain
       alpha       91.525500 Degrees      dE/de4(yz)     0.000165 eV/strain
       beta        87.710009 Degrees      dE/de5(xz)    -0.000263 eV/strain
       gamma      119.140017 Degrees      dE/de6(xy)    -0.000219 eV/strain
--------------------------------------------------------------------------------

  Primitive cell volume =          3865.085632 Angs**3

  Density of cell =      2.171791 g/cm**3

  Non-primitive cell volume =          3865.085632 Angs**3


  Final internal derivatives :

--------------------------------------------------------------------------------
   No.  Atomic          a             b             c           Radius
        Label          (eV)          (eV)          (eV)        (eV/Angs)
--------------------------------------------------------------------------------
      1 Ge    c       0.000000      0.000000      0.000000      0.000000
      2 Ge    c      -0.000018      0.000045      0.000070      0.000000
      3 Si    c      -0.000038      0.000025     -0.000134      0.000000
      4 Si    c      -0.000049      0.000019      0.000064      0.000000
      5 Si    c       0.000024      0.000029     -0.000102      0.000000
      6 Ge    c       0.000051     -0.000052      0.000045      0.000000
      7 Ge    c       0.000088     -0.000062      0.000037      0.000000
      8 Ge    c       0.000057     -0.000024     -0.000041      0.000000
      9 Si    c       0.000022     -0.000018      0.000122      0.000000
     10 Si    c       0.000001     -0.000053     -0.000108      0.000000
     11 Si    c       0.000017     -0.000004      0.000185      0.000000
     12 Ge    c      -0.000056      0.000039     -0.000076      0.000000
     13 Ge    c      -0.000009     -0.000053      0.000087      0.000000
     14 Ge    c      -0.000050      0.000029     -0.000033      0.000000
     15 Si    c       0.000015     -0.000006      0.000013      0.000000
     16 Si    c       0.000066     -0.000047     -0.000119      0.000000
     17 Si    c       0.000047     -0.000036      0.000146      0.000000
     18 Ge    c       0.000045     -0.000047      0.000050      0.000000
     19 Si    c      -0.000028      0.000026     -0.000134      0.000000
     20 Ge    c       0.000031     -0.000049      0.000032      0.000000
     21 Si    c       0.000021      0.000016      0.000030      0.000000
     22 Si    c      -0.000064      0.000048      0.000122      0.000000
     23 Si    c      -0.000051      0.000034     -0.000165      0.000000
     24 Ge    c      -0.000050      0.000049     -0.000072      0.000000
     25 Si    c       0.000016     -0.000009     -0.000003      0.000000
     26 Ge    c      -0.000012     -0.000039      0.000122      0.000000
     27 Si    c      -0.000034      0.000009     -0.000142      0.000000
     28 Ge    c      -0.000027      0.000051     -0.000050      0.000000
     29 Si    c      -0.000035      0.000061     -0.000129      0.000000
     30 Ge    c       0.000002      0.000057      0.000143      0.000000
     31 Si    c       0.000026     -0.000025      0.000060      0.000000
     32 Ge    c      -0.000013     -0.000041     -0.000146      0.000000
     33 Si    c       0.000028     -0.000068      0.000128      0.000000
     34 Ge    c      -0.000003      0.000012      0.000009      0.000000
     35 Si    c       0.000034     -0.000007      0.000124      0.000000
     36 Ge    c       0.000024      0.000035     -0.000134      0.000000
     37 Ge    c       0.000038     -0.000070     -0.000031      0.000000
     38 Ge    c       0.000028     -0.000065      0.000069      0.000000
     39 Si    c       0.000021     -0.000058     -0.000004      0.000000
     40 Si    c       0.000027     -0.000004      0.000038      0.000000
     41 Si    c       0.000037     -0.000000     -0.000004      0.000000
     42 Ge    c       0.000034     -0.000021      0.000043      0.000000
     43 Si    c      -0.000036      0.000005      0.000008      0.000000
     44 Ge    c      -0.000021     -0.000017     -0.000061      0.000000
     45 Si    c      -0.000018     -0.000010      0.000001      0.000000
     46 Ge    c      -0.000045      0.000065     -0.000015      0.000000
     47 Si    c      -0.000037      0.000073      0.000005      0.000000
     48 Ge    c      -0.000039      0.000068     -0.000016      0.000000
     49 Ge    c       0.000059     -0.000051      0.000019      0.000000
     50 Ge    c      -0.000014     -0.000046      0.000124      0.000000
     51 Si    c       0.000077     -0.000027     -0.000119      0.000000
     52 Ge    c      -0.000004     -0.000052     -0.000030      0.000000
     53 Si    c      -0.000031      0.000015     -0.000069      0.000000
     54 Ge    c       0.000031     -0.000040      0.000172      0.000000
     55 Ge    c      -0.000032      0.000082     -0.000079      0.000000
     56 Ge    c      -0.000121      0.000067     -0.000136      0.000000
     57 Si    c      -0.000056      0.000064      0.000154      0.000000
     58 Si    c      -0.000032      0.000003     -0.000036      0.000000
     59 Si    c       0.000038     -0.000032      0.000072      0.000000
     60 Ge    c       0.000025      0.000002     -0.000280      0.000000
     61 O1    c      -0.000012      0.000026     -0.000068      0.000000
     62 O1    c       0.000051      0.000020      0.000001      0.000000
     63 O2    c      -0.000002     -0.000016     -0.000004      0.000000
     64 O3    c      -0.000012      0.000044      0.000090      0.000000
     65 O2    c       0.000014      0.000001     -0.000015      0.000000
     66 O1    c      -0.000019      0.000001      0.000129      0.000000
     67 O3    c       0.000041     -0.000006      0.000066      0.000000
     68 O2    c      -0.000026     -0.000029     -0.000092      0.000000
     69 O1    c      -0.000075      0.000030      0.000128      0.000000
     70 O2    c       0.000042     -0.000009     -0.000019      0.000000
     71 O1    c       0.000023     -0.000058      0.000034      0.000000
     72 O2    c      -0.000001      0.000027     -0.000036      0.000000
     73 O1    c       0.000012      0.000047      0.000020      0.000000
     74 O2    c      -0.000011     -0.000021      0.000042      0.000000
     75 O1    c       0.000052     -0.000125     -0.000200      0.000000
     76 O2    c      -0.000021      0.000046      0.000037      0.000000
     77 O1    c      -0.000072      0.000018     -0.000106      0.000000
     78 O2    c       0.000020     -0.000008      0.000035      0.000000
     79 O1    c       0.000022     -0.000003     -0.000069      0.000000
     80 O1    c      -0.000115      0.000065     -0.000060      0.000000
     81 O2    c      -0.000020      0.000046      0.000037      0.000000
     82 O3    c       0.000016     -0.000015     -0.000043      0.000000
     83 O2    c      -0.000012     -0.000001      0.000020      0.000000
     84 O1    c      -0.000023      0.000070     -0.000013      0.000000
     85 O3    c       0.000002     -0.000007      0.000047      0.000000
     86 O1    c       0.000180     -0.000178     -0.000025      0.000000
     87 O2    c       0.000046     -0.000009      0.000001      0.000000
     88 O3    c      -0.000018     -0.000002      0.000034      0.000000
     89 O2    c       0.000006     -0.000032     -0.000046      0.000000
     90 O1    c       0.000086     -0.000042      0.000040      0.000000
     91 O1    c      -0.000112      0.000110      0.000240      0.000000
     92 O2    c      -0.000000     -0.000002      0.000010      0.000000
     93 O3    c       0.000015     -0.000001      0.000007      0.000000
     94 O2    c      -0.000002      0.000002     -0.000028      0.000000
     95 O1    c       0.000000      0.000058     -0.000070      0.000000
     96 O1    c      -0.000084      0.000013      0.000306      0.000000
     97 O1    c      -0.000046     -0.000007     -0.000101      0.000000
     98 O1    c      -0.000022      0.000007      0.000085      0.000000
     99 O2    c       0.000005     -0.000018      0.000071      0.000000
    100 O3    c       0.000031     -0.000053      0.000119      0.000000
    101 O2    c      -0.000000      0.000017      0.000017      0.000000
    102 O1    c       0.000071     -0.000020     -0.000162      0.000000
    103 O1    c       0.000056     -0.000118      0.000159      0.000000
    104 O1    c       0.000055     -0.000022      0.000005      0.000000
    105 O2    c      -0.000012      0.000017     -0.000060      0.000000
    106 O2    c      -0.000038      0.000020     -0.000099      0.000000
    107 O2    c       0.000004      0.000006     -0.000022      0.000000
    108 O1    c      -0.000017      0.000040      0.000203      0.000000
    109 O1    c      -0.000036      0.000034     -0.000209      0.000000
    110 O2    c       0.000011     -0.000009     -0.000101      0.000000
    111 O3    c      -0.000012     -0.000012      0.000249      0.000000
    112 O2    c      -0.000008      0.000008      0.000113      0.000000
    113 O1    c       0.000048     -0.000036      0.000198      0.000000
    114 O3    c       0.000001     -0.000022     -0.000298      0.000000
    115 O1    c       0.000006      0.000035     -0.000004      0.000000
    116 O1    c       0.000050      0.000001     -0.000034      0.000000
    117 O2    c       0.000015      0.000008     -0.000033      0.000000
    118 O2    c      -0.000041      0.000003     -0.000004      0.000000
    119 O2    c      -0.000029      0.000028     -0.000005      0.000000
    120 O1    c       0.000004      0.000021     -0.000032      0.000000
    121 O2    c       0.000002     -0.000006      0.000003      0.000000
    122 O1    c      -0.000045      0.000072      0.000031      0.000000
    123 O2    c      -0.000019      0.000015      0.000027      0.000000
    124 O3    c       0.000030     -0.000062     -0.000041      0.000000
    125 O2    c       0.000058     -0.000044      0.000025      0.000000
    126 O1    c       0.000017      0.000011      0.000038      0.000000
    127 O1    c       0.000101     -0.000113     -0.000077      0.000000
    128 O1    c       0.000029     -0.000098      0.000081      0.000000
    129 O2    c       0.000023     -0.000017      0.000053      0.000000
    130 O2    c       0.000032     -0.000024      0.000015      0.000000
    131 O2    c      -0.000004     -0.000005     -0.000021      0.000000
    132 O1    c       0.000015      0.000023      0.000053      0.000000
    133 O1    c      -0.000071      0.000015      0.000091      0.000000
    134 O1    c      -0.000047     -0.000018     -0.000111      0.000000
    135 O2    c      -0.000015      0.000006     -0.000030      0.000000
    136 O2    c      -0.000038      0.000060     -0.000001      0.000000
    137 O2    c      -0.000013      0.000011     -0.000027      0.000000
    138 O1    c       0.000028      0.000037     -0.000029      0.000000
    139 O1    c       0.000006     -0.000009      0.000036      0.000000
    140 O3    c       0.000060      0.000016      0.000062      0.000000
    141 O2    c       0.000036     -0.000039     -0.000005      0.000000
    142 O2    c      -0.000015     -0.000007      0.000037      0.000000
    143 O3    c       0.000012     -0.000021      0.000048      0.000000
    144 O1    c      -0.000046     -0.000032     -0.000068      0.000000
    145 O1    c      -0.000028      0.000006     -0.000085      0.000000
    146 O1    c      -0.000033      0.000122      0.000045      0.000000
    147 O2    c      -0.000059      0.000044     -0.000019      0.000000
    148 O2    c       0.000015     -0.000014     -0.000037      0.000000
    149 O2    c      -0.000004      0.000017     -0.000015      0.000000
    150 O1    c       0.000030     -0.000056     -0.000009      0.000000
    151 O3    c      -0.000011     -0.000001      0.000081      0.000000
    152 O1    c      -0.000032      0.000029     -0.000260      0.000000
    153 O2    c      -0.000013      0.000028      0.000139      0.000000
    154 O3    c       0.000005      0.000000     -0.000010      0.000000
    155 O2    c      -0.000017      0.000002      0.000104      0.000000
    156 O1    c      -0.000033      0.000028     -0.000169      0.000000
    157 O2    c      -0.000002     -0.000003     -0.000061      0.000000
    158 O1    c       0.000017     -0.000034      0.000340      0.000000
    159 O2    c       0.000021     -0.000008     -0.000118      0.000000
    160 O1    c       0.000003     -0.000003     -0.000039      0.000000
    161 O2    c       0.000004     -0.000023     -0.000130      0.000000
    162 O1    c       0.000051     -0.000044      0.000229      0.000000
    163 O1    c      -0.000010      0.000057      0.000085      0.000000
    164 O1    c      -0.000011     -0.000006     -0.000087      0.000000
    165 O2    c      -0.000050      0.000035     -0.000016      0.000000
    166 O2    c      -0.000015      0.000045     -0.000018      0.000000
    167 O2    c      -0.000014      0.000008     -0.000060      0.000000
    168 O1    c      -0.000066      0.000073      0.000052      0.000000
    169 O3    c       0.000030     -0.000008      0.000030      0.000000
    170 O1    c      -0.000012     -0.000000      0.000075      0.000000
    171 O2    c       0.000041     -0.000063     -0.000005      0.000000
    172 O2    c       0.000021     -0.000001      0.000027      0.000000
    173 O2    c       0.000005     -0.000005      0.000037      0.000000
    174 O1    c       0.000056     -0.000011     -0.000028      0.000000
    175 O1    c       0.000029     -0.000028      0.000264      0.000000
    176 O2    c      -0.000010      0.000007      0.000092      0.000000
    177 O3    c       0.000005      0.000010     -0.000163      0.000000
    178 O2    c       0.000007     -0.000009     -0.000104      0.000000
    179 O1    c      -0.000045      0.000039     -0.000236      0.000000
    180 O2    c       0.000001      0.000011      0.000147      0.000000
    181 F     c       0.000002     -0.000004      0.000001      0.000000
    182 F     c      -0.000000     -0.000000     -0.000000      0.000000
    183 F     c       0.000018     -0.000013     -0.000014      0.000000
    184 F     c      -0.000000      0.000000     -0.000002      0.000000
    185 F     c      -0.000006      0.000013     -0.000024      0.000000
    186 F     c      -0.000022      0.000025      0.000028      0.000000
    187 O1    s       0.000006      0.000001     -0.000018      0.000000
    188 O1    s      -0.000024      0.000011     -0.000051      0.000000
    189 O2    s       0.000002      0.000006     -0.000000      0.000000
    190 O3    s       0.000011     -0.000020     -0.000018      0.000000
    191 O2    s      -0.000002     -0.000006     -0.000017      0.000000
    192 O1    s       0.000005     -0.000008     -0.000121      0.000000
    193 O3    s      -0.000006     -0.000008     -0.000030      0.000000
    194 O2    s       0.000014      0.000007      0.000027      0.000000
    195 O1    s       0.000051      0.000003     -0.000079      0.000000
    196 O2    s      -0.000026     -0.000003     -0.000008      0.000000
    197 O1    s      -0.000029      0.000055      0.000006      0.000000
    198 O2    s       0.000002     -0.000006      0.000005      0.000000
    199 O1    s      -0.000006     -0.000028     -0.000053      0.000000
    200 O2    s      -0.000001      0.000018     -0.000002      0.000000
    201 O1    s      -0.000040      0.000092      0.000134      0.000000
    202 O2    s       0.000005     -0.000023     -0.000002      0.000000
    203 O1    s       0.000062     -0.000030      0.000040      0.000000
    204 O2    s       0.000005      0.000004      0.000000      0.000000
    205 O1    s      -0.000027      0.000003      0.000020      0.000000
    206 O1    s       0.000043     -0.000026      0.000066      0.000000
    207 O2    s       0.000009     -0.000018     -0.000013      0.000000
    208 O3    s      -0.000023      0.000015      0.000037      0.000000
    209 O2    s       0.000013     -0.000001     -0.000010      0.000000
    210 O1    s       0.000003     -0.000035     -0.000009      0.000000
    211 O3    s       0.000025      0.000005     -0.000020      0.000000
    212 O1    s      -0.000054      0.000062      0.000036      0.000000
    213 O2    s      -0.000014     -0.000001     -0.000005      0.000000
    214 O3    s       0.000016     -0.000014     -0.000027      0.000000
    215 O2    s       0.000001      0.000016      0.000015      0.000000
    216 O1    s      -0.000035      0.000035     -0.000018      0.000000
    217 O1    s       0.000046     -0.000043     -0.000158      0.000000
    218 O2    s       0.000006     -0.000003     -0.000007      0.000000
    219 O3    s      -0.000016      0.000002      0.000016      0.000000
    220 O2    s      -0.000004      0.000003      0.000004      0.000000
    221 O1    s      -0.000015     -0.000013      0.000093      0.000000
    222 O1    s       0.000016      0.000019     -0.000124      0.000000
    223 O1    s       0.000047      0.000010      0.000098      0.000000
    224 O1    s       0.000016     -0.000029     -0.000074      0.000000
    225 O2    s      -0.000006      0.000006     -0.000033      0.000000
    226 O3    s      -0.000010      0.000020     -0.000056      0.000000
    227 O2    s       0.000010     -0.000010     -0.000013      0.000000
    228 O1    s      -0.000039      0.000006      0.000104      0.000000
    229 O1    s       0.000014      0.000045     -0.000122      0.000000
    230 O1    s      -0.000063      0.000023      0.000007      0.000000
    231 O2    s      -0.000002     -0.000007      0.000022      0.000000
    232 O2    s       0.000003      0.000003      0.000048      0.000000
    233 O2    s      -0.000005     -0.000001      0.000003      0.000000
    234 O1    s       0.000000     -0.000035     -0.000181      0.000000
    235 O1    s       0.000034     -0.000026      0.000101      0.000000
    236 O2    s      -0.000013      0.000001      0.000040      0.000000
    237 O3    s       0.000002      0.000016     -0.000118      0.000000
    238 O2    s      -0.000003     -0.000002     -0.000042      0.000000
    239 O1    s      -0.000033      0.000032     -0.000096      0.000000
    240 O3    s       0.000005      0.000005      0.000160      0.000000
    241 O1    s       0.000001     -0.000029     -0.000008      0.000000
    242 O1    s      -0.000044      0.000012      0.000029      0.000000
    243 O2    s      -0.000015      0.000008      0.000045      0.000000
    244 O2    s       0.000006      0.000001     -0.000004      0.000000
    245 O2    s       0.000014     -0.000002      0.000010      0.000000
    246 O1    s      -0.000009     -0.000014      0.000005      0.000000
    247 O2    s       0.000006      0.000001      0.000010      0.000000
    248 O1    s       0.000023     -0.000043      0.000005      0.000000
    249 O2    s       0.000020     -0.000020     -0.000041      0.000000
    250 O3    s      -0.000018      0.000032      0.000026      0.000000
    251 O2    s      -0.000013      0.000014     -0.000019      0.000000
    252 O1    s      -0.000007     -0.000016     -0.000002      0.000000
    253 O1    s      -0.000058      0.000063      0.000028      0.000000
    254 O1    s      -0.000007      0.000055     -0.000103      0.000000
    255 O2    s      -0.000007      0.000003      0.000009      0.000000
    256 O2    s      -0.000013      0.000002      0.000010      0.000000
    257 O2    s       0.000010     -0.000001     -0.000002      0.000000
    258 O1    s      -0.000000     -0.000027     -0.000031      0.000000
    259 O1    s       0.000053     -0.000007     -0.000055      0.000000
    260 O1    s       0.000018      0.000043      0.000134      0.000000
    261 O2    s      -0.000004      0.000003     -0.000020      0.000000
    262 O2    s       0.000004     -0.000022     -0.000009      0.000000
    263 O2    s      -0.000004      0.000001     -0.000005      0.000000
    264 O1    s      -0.000033     -0.000009      0.000035      0.000000
    265 O1    s       0.000007     -0.000001      0.000026      0.000000
    266 O3    s      -0.000029     -0.000050     -0.000130      0.000000
    267 O2    s      -0.000017      0.000012      0.000006      0.000000
    268 O2    s       0.000021     -0.000012     -0.000052      0.000000
    269 O3    s      -0.000001      0.000004     -0.000022      0.000000
    270 O1    s       0.000045      0.000025      0.000077      0.000000
    271 O1    s       0.000009      0.000007      0.000019      0.000000
    272 O1    s       0.000013     -0.000093      0.000024      0.000000
    273 O2    s       0.000021     -0.000017      0.000011      0.000000
    274 O2    s      -0.000019      0.000022      0.000053      0.000000
    275 O2    s      -0.000010      0.000000     -0.000001      0.000000
    276 O1    s      -0.000003      0.000031     -0.000019      0.000000
    277 O3    s       0.000005      0.000003     -0.000019      0.000000
    278 O1    s       0.000031     -0.000038      0.000130      0.000000
    279 O2    s       0.000011     -0.000020     -0.000039      0.000000
    280 O3    s      -0.000010     -0.000001      0.000016      0.000000
    281 O2    s       0.000017      0.000001     -0.000022      0.000000
    282 O1    s       0.000024     -0.000020      0.000073      0.000000
    283 O2    s       0.000006     -0.000002      0.000026      0.000000
    284 O1    s      -0.000007      0.000026     -0.000218      0.000000
    285 O2    s      -0.000020      0.000007      0.000033      0.000000
    286 O1    s      -0.000005      0.000003     -0.000001      0.000000
    287 O2    s       0.000002      0.000010      0.000041      0.000000
    288 O1    s      -0.000050      0.000048     -0.000137      0.000000
    289 O1    s      -0.000001     -0.000033     -0.000065      0.000000
    290 O1    s      -0.000008      0.000015      0.000045      0.000000
    291 O2    s       0.000018     -0.000007     -0.000001      0.000000
    292 O2    s       0.000001     -0.000006      0.000010      0.000000
    293 O2    s      -0.000001      0.000008      0.000004      0.000000
    294 O1    s       0.000029     -0.000035     -0.000030      0.000000
    295 O3    s      -0.000013     -0.000008     -0.000015      0.000000
    296 O1    s       0.000026     -0.000027     -0.000053      0.000000
    297 O2    s      -0.000009      0.000022      0.000011      0.000000
    298 O2    s       0.000006     -0.000012     -0.000018      0.000000
    299 O2    s       0.000013     -0.000006      0.000014      0.000000
    300 O1    s      -0.000040      0.000005      0.000007      0.000000
    301 O1    s      -0.000025      0.000027     -0.000145      0.000000
    302 O2    s       0.000013     -0.000000     -0.000032      0.000000
    303 O3    s      -0.000006     -0.000007      0.000066      0.000000
    304 O2    s       0.000003      0.000004      0.000040      0.000000
    305 O1    s       0.000050     -0.000041      0.000116      0.000000
    306 O2    s       0.000006     -0.000007     -0.000019      0.000000
    307 F     s      -0.000007      0.000002      0.000002      0.000000
    308 F     s      -0.000002      0.000003      0.000002      0.000000
    309 F     s      -0.000024      0.000012     -0.000018      0.000000
    310 F     s       0.000003     -0.000002      0.000001      0.000000
    311 F     s       0.000001     -0.000016      0.000035      0.000000
    312 F     s       0.000010     -0.000013      0.000016      0.000000
--------------------------------------------------------------------------------
  Maximum abs         0.000180      0.000178      0.000340      0.000000
--------------------------------------------------------------------------------


  Time to end of optimisation =      28.0431 seconds


  Peak dynamic memory used =      19.13 MB 


  Timing analysis for GULP :

--------------------------------------------------------------------------------
  Task / Subroutine                                          Time (Seconds)
--------------------------------------------------------------------------------
  Calculation of reciprocal space energy and derivatives          0.6264
  Calculation of real space energy and derivatives               15.0645
  Calculation of three-body energy and derivatives                0.8419
--------------------------------------------------------------------------------
  Total CPU time                                                 28.0432
--------------------------------------------------------------------------------


  Dump file written as 30.1.res                                                
  CIF file written as 30.1.cif                                                


  Job Finished at 11:47.36 18th December   2016                               

