********************************************************************************
*                       GENERAL UTILITY LATTICE PROGRAM                        *
*                                 Julian Gale                                  *
*                      Nanochemistry Research Institute                        *
*                           Department of Chemistry                            *
*                    Curtin University, Western Australia                      *
********************************************************************************
* Version = 4.2.0 * Last modified =  20th January 2014                         *
********************************************************************************
*  optimise     - perform optimisation run                                     *
*  conp         - constant pressure calculation                                *
*  qok          - running with non charge neutral cell is OK                   *
*  rfo          - optimisation step to be determined by RFO method             *
********************************************************************************

  Job Started  at 22:57.04  5th January    2017                               

  Number of CPUs =     1


  Total number of configurations input =   1

********************************************************************************
*  Input for Configuration =   1                                               *
********************************************************************************

  Formula = Ge51Si9O120F6                                               

  Number of irreducible atoms/shells =     312


  Total number atoms/shells =     312

  Dimensionality = 3               :  Bulk   


  Charge on solid   =  -6.000000 =>neutralising background added


  Cartesian lattice vectors (Angstroms) :

       12.195095    0.000000    0.000000
       -6.092459   10.560556    0.000000
        0.001091   -0.018271   30.363790

  Cell parameters (Angstroms/Degrees):

  a =      12.1951    alpha =  90.0309
  b =      12.1919    beta  =  89.9979
  c =      30.3638    gamma = 119.9809

  Initial cell volume =        3910.461067 Angs**3

  Temperature of configuration =  0.000     K 

  Pressure of configuration =         0.000 GPa 

  Fractional coordinates of asymmetric unit :

--------------------------------------------------------------------------------
   No.  Atomic       x           y          z         Charge      Occupancy
        Label      (Frac)      (Frac)     (Frac)        (e)         (Frac)  
--------------------------------------------------------------------------------
      1 Ge    c    0.699600    0.375700    0.033890     4.00000    1.000000    
      2 Ge    c    0.634917 *  0.324339 *  0.365505 *   4.00000    1.000000    
      3 Ge    c    0.672563 *  0.303992 *  0.698997 *   4.00000    1.000000    
      4 Ge    c    0.301413 *  0.631656 *  0.531456 *   4.00000    1.000000    
      5 Ge    c    0.363836 *  0.677148 *  0.866430 *   4.00000    1.000000    
      6 Ge    c    0.327670 *  0.693810 *  0.199486 *   4.00000    1.000000    
      7 Ge    c    0.367079 *  0.698292 *  0.302173 *   4.00000    1.000000    
      8 Ge    c    0.323326 *  0.636758 *  0.969625 *   4.00000    1.000000    
      9 Ge    c    0.302963 *  0.673713 *  0.633835 *   4.00000    1.000000    
     10 Ge    c    0.634552 *  0.302095 *  0.801755 *   4.00000    1.000000    
     11 Ge    c    0.676892 *  0.365362 *  0.468932 *   4.00000    1.000000    
     12 Ge    c    0.694973 *  0.324838 *  0.134796 *   4.00000    1.000000    
     13 Ge    c    0.527393 *  0.405574 *  0.966980 *   4.00000    1.000000    
     14 Ge    c    0.592837 *  0.112611 *  0.302608 *   4.00000    1.000000    
     15 Ge    c    0.880932 *  0.475321 *  0.633313 *   4.00000    1.000000    
     16 Ge    c    0.474331 *  0.593586 *  0.467608 *   4.00000    1.000000    
     17 Ge    c    0.409298 *  0.884922 *  0.801342 *   4.00000    1.000000    
     18 Ge    c    0.120943 *  0.522884 *  0.133446 *   4.00000    1.000000    
     19 Ge    c    0.407001 *  0.525863 *  0.365302 *   4.00000    1.000000    
     20 Ge    c    0.110947 *  0.593536 *  0.032917 *   4.00000    1.000000    
     21 Ge    c    0.474948 *  0.880494 *  0.700084 *   4.00000    1.000000    
     22 Ge    c    0.593607 *  0.473391 *  0.865134 *   4.00000    1.000000    
     23 Ge    c    0.888492 *  0.407102 *  0.532269 *   4.00000    1.000000    
     24 Ge    c    0.527161 *  0.119468 *  0.201826 *   4.00000    1.000000    
     25 Ge    c    0.297003 *  0.396501 *  0.847598 *   4.00000    1.000000    
     26 Ge    c    0.613695 *  0.906392 *  0.183568 *   4.00000    1.000000    
     27 Ge    c    0.093222 *  0.705579 *  0.511406 *   4.00000    1.000000    
     28 Ge    c    0.703656 *  0.605868 *  0.348075 *   4.00000    1.000000    
     29 Ge    c    0.386120 *  0.093228 *  0.683220 *   4.00000    1.000000    
     30 Ge    c    0.902669 *  0.297757 *  0.009381 *   4.00000    1.000000    
     31 Ge    c    0.394133 *  0.296614 *  0.484497 *   4.00000    1.000000    
     32 Ge    c    0.908202 *  0.608015 *  0.154602 *   4.00000    1.000000    
     33 Ge    c    0.707297 *  0.093787 *  0.822421 *   4.00000    1.000000    
     34 Ge    c    0.606545 *  0.703211 *  0.984723 *   4.00000    1.000000    
     35 Ge    c    0.093461 *  0.388373 *  0.651791 *   4.00000    1.000000    
     36 Ge    c    0.293516 *  0.906135 *  0.322099 *   4.00000    1.000000    
     37 Ge    c    0.247936 *  0.343281 *  0.950136 *   4.00000    1.000000    
     38 Ge    c    0.668067 *  0.904801 *  0.287379 *   4.00000    1.000000    
     39 Ge    c    0.091372 *  0.757870 *  0.615547 *   4.00000    1.000000    
     40 Ge    c    0.755332 *  0.659931 *  0.451224 *   4.00000    1.000000    
     41 Ge    c    0.335888 *  0.093538 *  0.786901 *   4.00000    1.000000    
     42 Ge    c    0.907234 *  0.243448 *  0.112903 *   4.00000    1.000000    
     43 Ge    c    0.340133 *  0.244838 *  0.381478 *   4.00000    1.000000    
     44 Ge    c    0.906871 *  0.672107 *  0.051785 *   4.00000    1.000000    
     45 Ge    c    0.756381 *  0.093036 *  0.717890 *   4.00000    1.000000    
     46 Ge    c    0.658264 *  0.754183 *  0.881702 *   4.00000    1.000000    
     47 Ge    c    0.095664 *  0.331656 *  0.548186 *   4.00000    1.000000    
     48 Ge    c    0.246500 *  0.906860 *  0.217985 *   4.00000    1.000000    
     49 Ge    c    0.970937 *  0.114058 *  0.962603 *   4.00000    1.000000    
     50 Si    c    0.885463 *  0.853555 *  0.302731 *   4.00000    1.000000    
     51 Si    c    0.145299 *  0.034015 *  0.630411 *   4.00000    1.000000    
     52 Si    c    0.027393 *  0.884960 *  0.464291 *   4.00000    1.000000    
     53 Ge    c    0.113649 *  0.149498 *  0.797231 *   4.00000    1.000000    
     54 Si    c    0.852795 *  0.967000 *  0.131230 *   4.00000    1.000000    
     55 Si    c    0.115811 *  0.972335 *  0.369390 *   4.00000    1.000000    
     56 Si    c    0.848861 *  0.885518 *  0.034088 *   4.00000    1.000000    
     57 Si    c    0.031277 *  0.142748 *  0.699426 *   4.00000    1.000000    
     58 Si    c    0.883572 *  0.023295 *  0.866433 *   4.00000    1.000000    
     59 Si    c    0.150662 *  0.112727 *  0.532523 *   4.00000    1.000000    
     60 Ge    c    0.965080 *  0.855466 *  0.204788 *   4.00000    1.000000    
     61 O3    c    0.906841 *  0.010600 *  0.005654 *   1.33043    1.000000    
     62 O2    c    0.010878 *  0.905363 *  0.331628 *   0.87073    1.000000    
     63 O2    c    0.077016 *  0.090262 *  0.659567 *   0.87073    1.000000    
     64 O2    c    0.092786 *  0.991808 *  0.501155 *   0.87073    1.000000    
     65 O3    c    0.974546 *  0.088927 *  0.825630 *   1.33043    1.000000    
     66 O3    c    0.914358 *  0.925783 *  0.168496 *   1.33043    1.000000    
     67 O1    c    0.314316 *  0.563553 *  0.333773 *   1.73396    1.000000    
     68 O1    c    0.435114 *  0.753248 *  0.666678 *   1.73396    1.000000    
     69 O1    c    0.242659 *  0.688541 *  0.001119 *   1.73396    1.000000    
     70 O1    c    0.686552 *  0.437961 *  0.832650 *   1.73396    1.000000    
     71 O1    c    0.565892 *  0.247004 *  0.168619 *   1.73396    1.000000    
     72 O1    c    0.757429 *  0.312813 *  0.500215 *   1.73396    1.000000    
     73 O1    c    0.564440 *  0.318611 *  0.001212 *   1.73396    1.000000    
     74 O1    c    0.751373 *  0.434997 *  0.665695 *   1.73396    1.000000    
     75 O1    c    0.687354 *  0.241752 *  0.335036 *   1.73396    1.000000    
     76 O1    c    0.436081 *  0.685066 *  0.499771 *   1.73396    1.000000    
     77 O1    c    0.249928 *  0.562619 *  0.166093 *   1.73396    1.000000    
     78 O1    c    0.313038 *  0.757763 *  0.834251 *   1.73396    1.000000    
     79 O1    c    0.123437 *  0.212881 *  0.975377 *   1.73396    1.000000    
     80 O3    c    0.790774 *  0.902577 *  0.317171 *   1.33043    1.000000    
     81 O3    c    0.089415 *  0.887016 *  0.640264 *   1.33043    1.000000    
     82 O3    c    0.883026 *  0.793194 *  0.475596 *   1.33043    1.000000    
     83 O1    c    0.209816 *  0.093860 *  0.813873 *   1.73396    1.000000    
     84 O3    c    0.911428 *  0.115696 *  0.136406 *   1.33043    1.000000    
     85 O3    c    0.206981 *  0.116410 *  0.357237 *   1.33043    1.000000    
     86 O3    c    0.904935 *  0.795238 *  0.022640 *   1.33043    1.000000    
     87 O3    c    0.883371 *  0.087881 *  0.693592 *   1.33043    1.000000    
     88 O3    c    0.788419 *  0.879170 *  0.855156 *   1.33043    1.000000    
     89 O3    c    0.095312 *  0.203892 *  0.521581 *   1.33043    1.000000    
     90 O1    c    0.120602 *  0.912113 *  0.194018 *   1.73396    1.000000    
     91 O3    c    0.929833 *  0.904118 *  0.253493 *   1.33043    1.000000    
     92 O2    c    0.109060 *  0.057199 *  0.581603 *   0.87073    1.000000    
     93 O3    c    0.957104 *  0.037083 *  0.912606 *   1.33043    1.000000    
     94 O3    c    0.068874 *  0.097366 *  0.743531 *   1.33043    1.000000    
     95 O2    c    0.890148 *  0.927429 *  0.085574 *   0.87073    1.000000    
     96 O2    c    0.045229 *  0.955372 *  0.416663 *   0.87073    1.000000    
     97 O1    c    0.898980 *  0.204782 *  0.965431 *   1.73396    1.000000    
     98 O3    c    0.802785 *  0.701252 *  0.305405 *   1.33043    1.000000    
     99 O3    c    0.296041 *  0.100990 *  0.639487 *   1.33043    1.000000    
    100 O3    c    0.094618 *  0.800132 *  0.467526 *   1.33043    1.000000    
    101 O1    c    0.203124 *  0.310177 *  0.803314 *   1.73396    1.000000    
    102 O3    c    0.701004 *  0.901268 *  0.138515 *   1.33043    1.000000    
    103 O3    c    0.200271 *  0.905034 *  0.366400 *   1.33043    1.000000    
    104 O3    c    0.698001 *  0.801394 *  0.028050 *   1.33043    1.000000    
    105 O3    c    0.096550 *  0.296125 *  0.695791 *   1.33043    1.000000    
    106 O3    c    0.799810 *  0.093036 *  0.867009 *   1.33043    1.000000    
    107 O3    c    0.301490 *  0.198009 *  0.527556 *   1.33043    1.000000    
    108 O1    c    0.899269 *  0.693619 *  0.198800 *   1.73396    1.000000    
    109 O1    c    0.312354 *  0.632693 *  0.251157 *   1.73396    1.000000    
    110 O1    c    0.365985 *  0.687153 *  0.582424 *   1.73396    1.000000    
    111 O1    c    0.315033 *  0.688795 *  0.917859 *   1.73396    1.000000    
    112 O1    c    0.688229 *  0.366241 *  0.750777 *   1.73396    1.000000    
    113 O1    c    0.631165 *  0.314929 *  0.083826 *   1.73396    1.000000    
    114 O1    c    0.685330 *  0.315226 *  0.417218 *   1.73396    1.000000    
    115 O1    c    0.365948 *  0.314902 *  0.964849 *   1.73396    1.000000    
    116 O1    c    0.690005 *  0.048986 *  0.301344 *   1.73396    1.000000    
    117 O1    c    0.949273 *  0.636815 *  0.632753 *   1.73396    1.000000    
    118 O1    c    0.636365 *  0.684885 *  0.467468 *   1.73396    1.000000    
    119 O1    c    0.312046 *  0.948404 *  0.800105 *   1.73396    1.000000    
    120 O1    c    0.050464 *  0.362147 *  0.130838 *   1.73396    1.000000    
    121 O1    c    0.315290 *  0.363650 *  0.365108 *   1.73396    1.000000    
    122 O1    c    0.048302 *  0.691284 *  0.035068 *   1.73396    1.000000    
    123 O1    c    0.636035 *  0.950157 *  0.700800 *   1.73396    1.000000    
    124 O1    c    0.684346 *  0.635537 *  0.866157 *   1.73396    1.000000    
    125 O1    c    0.952418 *  0.310471 *  0.532713 *   1.73396    1.000000    
    126 O1    c    0.366529 *  0.050971 *  0.201851 *   1.73396    1.000000    
    127 O1    c    0.761024 *  0.293123 *  0.007796 *   1.73396    1.000000    
    128 O1    c    0.712673 *  0.471693 *  0.342094 *   1.73396    1.000000    
    129 O1    c    0.522503 *  0.236339 *  0.678034 *   1.73396    1.000000    
    130 O1    c    0.236213 *  0.713214 *  0.507459 *   1.73396    1.000000    
    131 O1    c    0.285159 *  0.529499 *  0.843725 *   1.73396    1.000000    
    132 O1    c    0.478264 *  0.762309 *  0.179017 *   1.73396    1.000000    
    133 O1    c    0.285331 *  0.762991 *  0.326167 *   1.73396    1.000000    
    134 O1    c    0.472694 *  0.712742 *  0.991207 *   1.73396    1.000000    
    135 O1    c    0.236278 *  0.524957 *  0.656235 *   1.73396    1.000000    
    136 O1    c    0.715347 *  0.237093 *  0.826354 *   1.73396    1.000000    
    137 O1    c    0.528005 *  0.287531 *  0.491005 *   1.73396    1.000000    
    138 O1    c    0.764057 *  0.473038 *  0.157413 *   1.73396    1.000000    
    139 O1    c    0.777431 *  0.538933 *  0.030377 *   1.73396    1.000000    
    140 O1    c    0.470189 *  0.247107 *  0.359423 *   1.73396    1.000000    
    141 O1    c    0.750754 *  0.218322 *  0.694668 *   1.73396    1.000000    
    142 O1    c    0.221016 *  0.467053 *  0.526621 *   1.73396    1.000000    
    143 O1    c    0.528320 *  0.752863 *  0.860140 *   1.73396    1.000000    
    144 O1    c    0.250580 *  0.780374 *  0.194899 *   1.73396    1.000000    
    145 O1    c    0.531241 *  0.779469 *  0.307988 *   1.73396    1.000000    
    146 O1    c    0.248106 *  0.471660 *  0.973070 *   1.73396    1.000000    
    147 O1    c    0.217490 *  0.752036 *  0.638164 *   1.73396    1.000000    
    148 O1    c    0.470445 *  0.220398 *  0.808234 *   1.73396    1.000000    
    149 O1    c    0.752898 *  0.530426 *  0.473842 *   1.73396    1.000000    
    150 O1    c    0.781760 *  0.247715 *  0.136659 *   1.73396    1.000000    
    151 O1    c    0.214256 *  0.315073 *  0.894324 *   1.73396    1.000000    
    152 O1    c    0.690602 *  0.902873 *  0.231055 *   1.73396    1.000000    
    153 O1    c    0.091508 *  0.780643 *  0.559572 *   1.73396    1.000000    
    154 O1    c    0.783535 *  0.683557 *  0.395348 *   1.73396    1.000000    
    155 O1    c    0.310412 *  0.097000 *  0.730718 *   1.73396    1.000000    
    156 O1    c    0.907497 *  0.221683 *  0.056940 *   1.73396    1.000000    
    157 O1    c    0.315951 *  0.216837 *  0.437395 *   1.73396    1.000000    
    158 O1    c    0.908618 *  0.691943 *  0.108085 *   1.73396    1.000000    
    159 O1    c    0.781498 *  0.094305 *  0.773781 *   1.73396    1.000000    
    160 O1    c    0.684687 *  0.785343 *  0.937584 *   1.73396    1.000000    
    161 O1    c    0.095440 *  0.310661 *  0.604483 *   1.73396    1.000000    
    162 O1    c    0.217791 *  0.905817 *  0.273943 *   1.73396    1.000000    
    163 O1    c    0.586123 *  0.555232 *  0.990848 *   1.73396    1.000000    
    164 O1    c    0.446802 *  0.029574 *  0.328489 *   1.73396    1.000000    
    165 O1    c    0.968794 *  0.415048 *  0.657821 *   1.73396    1.000000    
    166 O1    c    0.414777 *  0.444887 *  0.491881 *   1.73396    1.000000    
    167 O1    c    0.554014 *  0.969770 *  0.827872 *   1.73396    1.000000    
    168 O1    c    0.033455 *  0.582350 *  0.159171 *   1.73396    1.000000    
    169 O1    c    0.555076 *  0.584498 *  0.340654 *   1.73396    1.000000    
    170 O1    c    0.028338 *  0.451702 *  0.004655 *   1.73396    1.000000    
    171 O1    c    0.412479 *  0.968531 *  0.677053 *   1.73396    1.000000    
    172 O1    c    0.444814 *  0.414948 *  0.841055 *   1.73396    1.000000    
    173 O1    c    0.970011 *  0.552025 *  0.505451 *   1.73396    1.000000    
    174 O1    c    0.588427 *  0.031702 *  0.177941 *   1.73396    1.000000    
    175 O1    c    0.589930 *  0.178227 *  0.252840 *   1.73396    1.000000    
    176 O1    c    0.824094 *  0.411714 *  0.582297 *   1.73396    1.000000    
    177 O1    c    0.592040 *  0.410397 *  0.916136 *   1.73396    1.000000    
    178 O1    c    0.413649 *  0.820846 *  0.751235 *   1.73396    1.000000    
    179 O1    c    0.176973 *  0.588483 *  0.082522 *   1.73396    1.000000    
    180 O1    c    0.411283 *  0.588591 *  0.416406 *   1.73396    1.000000    
    181 F     c    0.449627 *  0.902866 *  0.253510 *   0.56000    1.000000    
    182 F     c    0.097712 *  0.548853 *  0.580708 *   0.56000    1.000000    
    183 F     c    0.450074 *  0.548530 *  0.915906 *   0.56000    1.000000    
    184 F     c    0.548674 *  0.098208 *  0.752953 *   0.56000    1.000000    
    185 F     c    0.902062 *  0.452704 *  0.080704 *   0.56000    1.000000    
    186 F     c    0.549143 *  0.450866 *  0.416135 *   0.56000    1.000000    
    187 O3    s    0.905943 *  0.005542 *  0.004637 *  -3.33043    1.000000    
    188 O2    s    0.007922 *  0.907162 *  0.333065 *  -2.87073    1.000000    
    189 O2    s    0.079811 *  0.089652 *  0.660962 *  -2.87073    1.000000    
    190 O2    s    0.091863 *  0.993880 *  0.500113 *  -2.87073    1.000000    
    191 O3    s    0.977615 *  0.087396 *  0.827314 *  -3.33043    1.000000    
    192 O3    s    0.912101 *  0.923782 *  0.167505 *  -3.33043    1.000000    
    193 O1    s    0.325898 *  0.570521 *  0.333764 *  -3.73396    1.000000    
    194 O1    s    0.428171 *  0.757315 *  0.666761 *  -3.73396    1.000000    
    195 O1    s    0.239415 *  0.677288 *  0.000914 *  -3.73396    1.000000    
    196 O1    s    0.675069 *  0.430728 *  0.832977 *  -3.73396    1.000000    
    197 O1    s    0.572810 *  0.242882 *  0.168668 *  -3.73396    1.000000    
    198 O1    s    0.760766 *  0.324209 *  0.500200 *  -3.73396    1.000000    
    199 O1    s    0.571202 *  0.330167 *  0.000857 *  -3.73396    1.000000    
    200 O1    s    0.755519 *  0.428072 *  0.665813 *  -3.73396    1.000000    
    201 O1    s    0.675877 *  0.238564 *  0.335058 *  -3.73396    1.000000    
    202 O1    s    0.429159 *  0.673534 *  0.499534 *  -3.73396    1.000000    
    203 O1    s    0.245755 *  0.569450 *  0.166028 *  -3.73396    1.000000    
    204 O1    s    0.324497 *  0.760946 *  0.834181 *  -3.73396    1.000000    
    205 O1    s    0.119391 *  0.213829 *  0.972527 *  -3.73396    1.000000    
    206 O3    s    0.791138 *  0.897925 *  0.313506 *  -3.33043    1.000000    
    207 O3    s    0.095566 *  0.892312 *  0.637429 *  -3.33043    1.000000    
    208 O3    s    0.889017 *  0.793179 *  0.472686 *  -3.33043    1.000000    
    209 O1    s    0.210974 *  0.098199 *  0.810777 *  -3.73396    1.000000    
    210 O3    s    0.904650 *  0.110412 *  0.133907 *  -3.33043    1.000000    
    211 O3    s    0.207073 *  0.110549 *  0.360263 *  -3.33043    1.000000    
    212 O3    s    0.899586 *  0.795195 *  0.025899 *  -3.33043    1.000000    
    213 O3    s    0.888952 *  0.094268 *  0.695945 *  -3.33043    1.000000    
    214 O3    s    0.788792 *  0.885004 *  0.858449 *  -3.33043    1.000000    
    215 O3    s    0.100885 *  0.204394 *  0.524636 *  -3.33043    1.000000    
    216 O1    s    0.117115 *  0.906897 *  0.196599 *  -3.73396    1.000000    
    217 O3    s    0.928358 *  0.894752 *  0.254402 *  -3.33043    1.000000    
    218 O2    s    0.118214 *  0.060737 *  0.581415 *  -2.87073    1.000000    
    219 O3    s    0.951123 *  0.041839 *  0.911958 *  -3.33043    1.000000    
    220 O3    s    0.068730 *  0.106491 *  0.743332 *  -3.33043    1.000000    
    221 O2    s    0.881193 *  0.927213 *  0.084168 *  -2.87073    1.000000    
    222 O2    s    0.050928 *  0.949603 *  0.416667 *  -2.87073    1.000000    
    223 O1    s    0.904637 *  0.204842 *  0.968243 *  -3.73396    1.000000    
    224 O3    s    0.803661 *  0.709031 *  0.308228 *  -3.33043    1.000000    
    225 O3    s    0.288334 *  0.093688 *  0.641790 *  -3.33043    1.000000    
    226 O3    s    0.088043 *  0.800987 *  0.470338 *  -3.33043    1.000000    
    227 O1    s    0.202534 *  0.303619 *  0.805991 *  -3.73396    1.000000    
    228 O3    s    0.708646 *  0.908181 *  0.141276 *  -3.33043    1.000000    
    229 O3    s    0.199283 *  0.911645 *  0.363448 *  -3.33043    1.000000    
    230 O3    s    0.706142 *  0.802503 *  0.025442 *  -3.33043    1.000000    
    231 O3    s    0.090028 *  0.288796 *  0.692997 *  -3.33043    1.000000    
    232 O3    s    0.800448 *  0.086587 *  0.863633 *  -3.33043    1.000000    
    233 O3    s    0.293288 *  0.196719 *  0.524917 *  -3.33043    1.000000    
    234 O1    s    0.905057 *  0.699628 *  0.196090 *  -3.73396    1.000000    
    235 O1    s    0.318164 *  0.642838 *  0.251154 *  -3.73396    1.000000    
    236 O1    s    0.355671 *  0.681459 *  0.582595 *  -3.73396    1.000000    
    237 O1    s    0.319612 *  0.683765 *  0.917933 *  -3.73396    1.000000    
    238 O1    s    0.682503 *  0.356070 *  0.750509 *  -3.73396    1.000000    
    239 O1    s    0.641863 *  0.320638 *  0.083824 *  -3.73396    1.000000    
    240 O1    s    0.680605 *  0.320041 *  0.417095 *  -3.73396    1.000000    
    241 O1    s    0.369178 *  0.324630 *  0.963850 *  -3.73396    1.000000    
    242 O1    s    0.680331 *  0.042012 *  0.300318 *  -3.73396    1.000000    
    243 O1    s    0.955337 *  0.633897 *  0.631492 *  -3.73396    1.000000    
    244 O1    s    0.633418 *  0.675498 *  0.466166 *  -3.73396    1.000000    
    245 O1    s    0.321865 *  0.955596 *  0.799111 *  -3.73396    1.000000    
    246 O1    s    0.044861 *  0.365739 *  0.129769 *  -3.73396    1.000000    
    247 O1    s    0.324683 *  0.366458 *  0.366414 *  -3.73396    1.000000    
    248 O1    s    0.041567 *  0.681955 *  0.036287 *  -3.73396    1.000000    
    249 O1    s    0.632830 *  0.956057 *  0.702043 *  -3.73396    1.000000    
    250 O1    s    0.674917 *  0.632554 *  0.867295 *  -3.73396    1.000000    
    251 O1    s    0.959101 *  0.320015 *  0.533912 *  -3.73396    1.000000    
    252 O1    s    0.369838 *  0.044895 *  0.203114 *  -3.73396    1.000000    
    253 O1    s    0.768005 *  0.300103 *  0.009929 *  -3.73396    1.000000    
    254 O1    s    0.705830 *  0.470988 *  0.344402 *  -3.73396    1.000000    
    255 O1    s    0.523753 *  0.230316 *  0.680053 *  -3.73396    1.000000    
    256 O1    s    0.229790 *  0.706054 *  0.509550 *  -3.73396    1.000000    
    257 O1    s    0.292423 *  0.530512 *  0.845725 *  -3.73396    1.000000    
    258 O1    s    0.476972 *  0.768287 *  0.180884 *  -3.73396    1.000000    
    259 O1    s    0.292552 *  0.769413 *  0.323989 *  -3.73396    1.000000    
    260 O1    s    0.471578 *  0.705934 *  0.989008 *  -3.73396    1.000000    
    261 O1    s    0.230021 *  0.525750 *  0.654193 *  -3.73396    1.000000    
    262 O1    s    0.708342 *  0.230648 *  0.824273 *  -3.73396    1.000000    
    263 O1    s    0.528920 *  0.294474 *  0.488824 *  -3.73396    1.000000    
    264 O1    s    0.770327 *  0.472150 *  0.155470 *  -3.73396    1.000000    
    265 O1    s    0.781137 *  0.536361 *  0.032206 *  -3.73396    1.000000    
    266 O1    s    0.471624 *  0.252522 *  0.361508 *  -3.73396    1.000000    
    267 O1    s    0.745568 *  0.214745 *  0.696688 *  -3.73396    1.000000    
    268 O1    s    0.217381 *  0.468787 *  0.528471 *  -3.73396    1.000000    
    269 O1    s    0.526938 *  0.747402 *  0.862100 *  -3.73396    1.000000    
    270 O1    s    0.255885 *  0.783850 *  0.196866 *  -3.73396    1.000000    
    271 O1    s    0.529660 *  0.783075 *  0.306065 *  -3.73396    1.000000    
    272 O1    s    0.253616 *  0.473455 *  0.971113 *  -3.73396    1.000000    
    273 O1    s    0.213940 *  0.746816 *  0.636213 *  -3.73396    1.000000    
    274 O1    s    0.472179 *  0.216703 *  0.806290 *  -3.73396    1.000000    
    275 O1    s    0.747571 *  0.528934 *  0.471835 *  -3.73396    1.000000    
    276 O1    s    0.785203 *  0.252929 *  0.134860 *  -3.73396    1.000000    
    277 O1    s    0.222736 *  0.323147 *  0.894873 *  -3.73396    1.000000    
    278 O1    s    0.683146 *  0.902997 *  0.231719 *  -3.73396    1.000000    
    279 O1    s    0.091450 *  0.773242 *  0.560242 *  -3.73396    1.000000    
    280 O1    s    0.775219 *  0.675812 *  0.396020 *  -3.73396    1.000000    
    281 O1    s    0.317897 *  0.096804 *  0.731243 *  -3.73396    1.000000    
    282 O1    s    0.907285 *  0.228993 *  0.057591 *  -3.73396    1.000000    
    283 O1    s    0.323863 *  0.225188 *  0.436761 *  -3.73396    1.000000    
    284 O1    s    0.908342 *  0.684411 *  0.107253 *  -3.73396    1.000000    
    285 O1    s    0.774109 *  0.094072 *  0.773044 *  -3.73396    1.000000    
    286 O1    s    0.676898 *  0.776924 *  0.936946 *  -3.73396    1.000000    
    287 O1    s    0.095533 *  0.318176 *  0.603773 *  -3.73396    1.000000    
    288 O1    s    0.225586 *  0.906030 *  0.273343 *  -3.73396    1.000000    
    289 O1    s    0.583473 *  0.556445 *  0.988725 *  -3.73396    1.000000    
    290 O1    s    0.446030 *  0.026157 *  0.326224 *  -3.73396    1.000000    
    291 O1    s    0.972262 *  0.417410 *  0.655689 *  -3.73396    1.000000    
    292 O1    s    0.417566 *  0.444052 *  0.489589 *  -3.73396    1.000000    
    293 O1    s    0.554949 *  0.973149 *  0.825586 *  -3.73396    1.000000    
    294 O1    s    0.029773 *  0.579959 *  0.157030 *  -3.73396    1.000000    
    295 O1    s    0.555954 *  0.581841 *  0.342906 *  -3.73396    1.000000    
    296 O1    s    0.025001 *  0.450878 *  0.007012 *  -3.73396    1.000000    
    297 O1    s    0.414927 *  0.972072 *  0.679063 *  -3.73396    1.000000    
    298 O1    s    0.444165 *  0.417857 *  0.843214 *  -3.73396    1.000000    
    299 O1    s    0.973572 *  0.552964 *  0.507789 *  -3.73396    1.000000    
    300 O1    s    0.585925 *  0.028086 *  0.180048 *  -3.73396    1.000000    
    301 O1    s    0.584942 *  0.168632 *  0.252588 *  -3.73396    1.000000    
    302 O1    s    0.833455 *  0.416637 *  0.582342 *  -3.73396    1.000000    
    303 O1    s    0.587155 *  0.414851 *  0.916105 *  -3.73396    1.000000    
    304 O1    s    0.418220 *  0.830454 *  0.751238 *  -3.73396    1.000000    
    305 O1    s    0.167499 *  0.583520 *  0.082734 *  -3.73396    1.000000    
    306 O1    s    0.415858 *  0.584130 *  0.416563 *  -3.73396    1.000000    
    307 F     s    0.449147 *  0.902487 *  0.253656 *  -1.56000    1.000000    
    308 F     s    0.098168 *  0.549071 *  0.580550 *  -1.56000    1.000000    
    309 F     s    0.449716 *  0.548455 *  0.915838 *  -1.56000    1.000000    
    310 F     s    0.548856 *  0.098779 *  0.753110 *  -1.56000    1.000000    
    311 F     s    0.901518 *  0.452542 *  0.080489 *  -1.56000    1.000000    
    312 F     s    0.549259 *  0.450704 *  0.416089 *  -1.56000    1.000000    
--------------------------------------------------------------------------------



********************************************************************************
*  General input information                                                   *
********************************************************************************

  Species output for all configurations : 

--------------------------------------------------------------------------------
  Species    Type    Atomic    Atomic    Charge       Radii (Angs)     Library
                     Number     Mass       (e)     Cova   Ionic  VDW   Symbol
--------------------------------------------------------------------------------
    Si       Core       14      28.09   4.000000   1.200  0.000  2.100          
    O1       Core        8      16.00   1.733957   0.730  0.000  1.360          
    O1       Shell       8       0.00  -3.733957   0.730  0.000  1.360          
    O2       Core        8      16.00   0.870733   0.730  0.000  1.360          
    O2       Shell       8       0.00  -2.870733   0.730  0.000  1.360          
    O3       Core        8      16.00   1.330431   0.730  0.000  1.360          
    O3       Shell       8       0.00  -3.330431   0.730  0.000  1.360          
    F        Core        9      19.00   0.560000   0.710  0.000  1.300          
    F        Shell       9       0.00  -1.560000   0.710  0.000  1.300          
    Ge       Core       32      72.61   4.000000   1.170  0.000  1.750          
--------------------------------------------------------------------------------


  Lattice summation method               =    Ewald          (3-D)
                                         =    Parry          (2-D)
                                         =    Saunders et al (1-D)
  Accuracy factor for lattice sums       =   12.000


  Time limit = Infinity

  Maximum range for interatomic potentials =        16.000000 Angstroms

  Taper potentials to zero over   1.0000 Angstroms using polynomial

  General interatomic potentials :

--------------------------------------------------------------------------------
Atom  Types   Potential         A         B         C         D     Cutoffs(Ang)
  1     2                                                            Min    Max 
--------------------------------------------------------------------------------
Si   c O1   s Buckingham    0.132E+04 0.318      10.1      0.00     0.000 16.000
Si   c O2   s Buckingham    0.132E+04 0.318      10.1      0.00     0.000 16.000
Si   c O3   s Buckingham    0.132E+04 0.318      10.1      0.00     0.000 16.000
Ge   c O1   s Buckingham    0.150E+04 0.326      16.8      0.00     0.000 16.000
Ge   c O2   s Buckingham    0.150E+04 0.326      16.8      0.00     0.000 16.000
Ge   c O3   s Buckingham    0.150E+04 0.326      16.8      0.00     0.000 16.000
O1   s O1   s Buckingham    0.228E+05 0.149      10.9      0.00     0.000 16.000
O1   s O2   s Buckingham    0.228E+05 0.149      10.9      0.00     0.000 16.000
O1   s O3   s Buckingham    0.228E+05 0.149      10.9      0.00     0.000 16.000
O2   s O2   s Buckingham    0.228E+05 0.149      10.9      0.00     0.000 16.000
O2   s O3   s Buckingham    0.228E+05 0.149      10.9      0.00     0.000 16.000
O3   s O3   s Buckingham    0.228E+05 0.149      10.9      0.00     0.000 16.000
Si   c F    s Buckingham     977.     0.282      0.00      0.00     0.000 16.000
Ge   c F    s Buckingham     681.     0.320      0.00      0.00     0.000 16.000
F    s F    s Buckingham     540.     0.262      0.00      0.00     0.000 16.000
O1   s F    s Buckingham    0.168E+04 0.268      0.00      0.00     0.000 16.000
O2   s F    s Buckingham    0.168E+04 0.268      0.00      0.00     0.000 16.000
O3   s F    s Buckingham    0.168E+04 0.268      0.00      0.00     0.000 16.000
O2   c O2   s Spring (c-s)   76.0      0.00      0.00      0.00     0.000  0.800
O3   c O3   s Spring (c-s)   128.      0.00      0.00      0.00     0.000  0.800
O1   c O1   s Spring (c-s)   180.      0.00      0.00      0.00     0.000  0.800
F    c F    s Spring (c-s)   33.5      0.00      0.00      0.00     0.000  0.800
--------------------------------------------------------------------------------

  General Three-body potentials :

  Harmonic form:

--------------------------------------------------------------------------------
Atom    Atom    Atom           Force Constants            Theta     Cutoffs  
  1       2       3     (eVrad**-2/eVrad**-3/eVrad**-4)   (deg)  1-2  1-3  2-3
--------------------------------------------------------------------------------
Si    c O1    s O1    s  1.261        0.0000    0.0000   109.470 0.00 0.00 0.00
                                                                 1.90 1.90 3.50
Si    c O1    s O2    s  1.261        0.0000    0.0000   109.470 0.00 0.00 0.00
                                                                 1.90 1.90 3.50
Si    c O2    s O2    s  1.261        0.0000    0.0000   109.470 0.00 0.00 0.00
                                                                 1.90 1.90 3.50
--------------------------------------------------------------------------------

********************************************************************************
*  Output for configuration   1                                                *
********************************************************************************


  Components of energy : 

--------------------------------------------------------------------------------
  Interatomic potentials     =        1993.94276048 eV
  Three-body potentials      =           0.00467902 eV
  Monopole - monopole (real) =       -5148.80613413 eV
  Monopole - monopole (recip)=       -4224.76776088 eV
  Monopole - monopole (total)=       -9373.57389502 eV
  Neutralising energy        =          -6.31721934 eV
--------------------------------------------------------------------------------
  Total lattice energy       =       -7385.94367486 eV
--------------------------------------------------------------------------------
  Total lattice energy       =         -712630.6601 kJ/(mole unit cells)
--------------------------------------------------------------------------------


  Number of variables =      939

  Maximum number of calculations  =          1000
  Maximum Hessian update interval =            10
  Maximum step size               =   1.000000000
  Maximum parameter tolerance     =   0.000010000
  Maximum function  tolerance     =   0.000010000
  Maximum gradient  tolerance     =   0.001000000
  Maximum gradient  component     =   0.010000000

  Symmetry not applied to optimisation

  Cell parameters to be optimised using strains

  RFO method to be used

  DFP hessian update to be used

  Dumpfile to be written after every cycle

  Start of bulk optimisation :

  Cycle:      0 Energy:     -7385.943675  Gnorm:      0.282654  CPU:    1.201
  ** Hessian has wrong structure
  ** Imaginary eigenvectors =  11
  ** Hessian has wrong structure
  ** Imaginary eigenvectors =   9
  Cycle:      1 Energy:     -7389.589062  Gnorm:      0.178358  CPU:    8.164
  ** Hessian has wrong structure
  ** Imaginary eigenvectors =   9
  ** Hessian has wrong structure
  ** Imaginary eigenvectors =   5
  Cycle:      2 Energy:     -7389.695057  Gnorm:      0.161332  CPU:   14.732
  ** Hessian has wrong structure
  ** Imaginary eigenvectors =   5
  ** Hessian has wrong structure
  ** Imaginary eigenvectors =   4
  Cycle:      3 Energy:     -7389.745764  Gnorm:      0.160211  CPU:   24.391
  ** Hessian has wrong structure
  ** Imaginary eigenvectors =   3
  ** Hessian has wrong structure
  ** Imaginary eigenvectors =   3
  Cycle:      4 Energy:     -7390.046780  Gnorm:      0.125968  CPU:   32.521
  ** Hessian has wrong structure
  ** Imaginary eigenvectors =   3
  Cycle:      5 Energy:     -7390.353732  Gnorm:      0.053150  CPU:   37.737
  ** Hessian has wrong structure
  ** Imaginary eigenvectors =   3
  ** Hessian has wrong structure
  ** Imaginary eigenvectors =   2
  Cycle:      6 Energy:     -7390.459386  Gnorm:      0.054346  CPU:   45.856
  ** Hessian has wrong structure
  ** Imaginary eigenvectors =   2
  Cycle:      7 Energy:     -7390.527879  Gnorm:      0.046080  CPU:   51.060
  ** Hessian has wrong structure
  ** Imaginary eigenvectors =   2
  ** Hessian has wrong structure
  ** Imaginary eigenvectors =   2
  Cycle:      8 Energy:     -7390.538002  Gnorm:      0.049872  CPU:   61.081
  ** Hessian has wrong structure
  ** Imaginary eigenvectors =   2
  ** Hessian has wrong structure
  ** Imaginary eigenvectors =   1
  Cycle:      9 Energy:     -7390.560411  Gnorm:      0.050603  CPU:   71.103
  ** Hessian has wrong structure
  ** Imaginary eigenvectors =   1
  ** Hessian has wrong structure
  ** Imaginary eigenvectors =   1
  Cycle:     10 Energy:     -7390.579755  Gnorm:      0.070880  CPU:   79.972
  ** Hessian has required structure
  ** Hessian has required structure
  Cycle:     11 Energy:     -7390.662419  Gnorm:      0.064604  CPU:   85.383
  ** Hessian has required structure
  Cycle:     12 Energy:     -7390.769295  Gnorm:      0.052709  CPU:   89.086
  ** Hessian has required structure
  Cycle:     13 Energy:     -7390.846693  Gnorm:      0.019396  CPU:   92.402
  ** Hessian has required structure
  Cycle:     14 Energy:     -7390.911265  Gnorm:      0.027912  CPU:   95.723
  ** Hessian has required structure
  Cycle:     15 Energy:     -7390.924805  Gnorm:      0.020360  CPU:   99.036
  ** Hessian has required structure
  Cycle:     16 Energy:     -7390.931546  Gnorm:      0.012249  CPU:  102.341
  ** Hessian has required structure
  Cycle:     17 Energy:     -7390.934034  Gnorm:      0.004904  CPU:  105.649
  ** Hessian has required structure
  Cycle:     18 Energy:     -7390.935411  Gnorm:      0.003969  CPU:  108.958
  ** Hessian has required structure
  Cycle:     19 Energy:     -7390.935775  Gnorm:      0.002265  CPU:  111.891
  ** Hessian has required structure
  Cycle:     20 Energy:     -7390.935883  Gnorm:      0.001209  CPU:  114.823
  ** Hessian has required structure
  Cycle:     21 Energy:     -7390.935942  Gnorm:      0.000017  CPU:  118.560
  ** Hessian has required structure


  **** Optimisation achieved ****


  Final energy =   -7390.93594228 eV
  Final Gnorm  =       0.00000034

  Components of energy : 

--------------------------------------------------------------------------------
  Interatomic potentials     =        1945.65735928 eV
  Three-body potentials      =           0.00029573 eV
  Monopole - monopole (real) =       -5165.27418858 eV
  Monopole - monopole (recip)=       -4165.09152414 eV
  Monopole - monopole (total)=       -9330.36571272 eV
  Neutralising energy        =          -6.22788457 eV
--------------------------------------------------------------------------------
  Total lattice energy       =       -7390.93594228 eV
--------------------------------------------------------------------------------
  Total lattice energy       =         -713112.3376 kJ/(mole unit cells)
--------------------------------------------------------------------------------

  Final fractional coordinates of atoms :

--------------------------------------------------------------------------------
   No.  Atomic        x           y          z          Radius
        Label       (Frac)      (Frac)     (Frac)       (Angs) 
--------------------------------------------------------------------------------
     1  Ge    c     0.699600    0.375700    0.033890    0.000000
     2  Ge    c     0.671151    0.337208    0.366467    0.000000
     3  Ge    c     0.715568    0.348837    0.699113    0.000000
     4  Ge    c     0.355575    0.659759    0.533249    0.000000
     5  Ge    c     0.382695    0.703569    0.868065    0.000000
     6  Ge    c     0.344236    0.684027    0.201502    0.000000
     7  Ge    c     0.415526    0.719563    0.300327    0.000000
     8  Ge    c     0.343110    0.632354    0.966396    0.000000
     9  Ge    c     0.323650    0.699948    0.631455    0.000000
    10  Ge    c     0.648467    0.321379    0.798207    0.000000
    11  Ge    c     0.713387    0.407413    0.464895    0.000000
    12  Ge    c     0.725845    0.326827    0.131662    0.000000
    13  Ge    c     0.534948    0.427145    0.965993    0.000000
    14  Ge    c     0.622269    0.115663    0.301934    0.000000
    15  Ge    c     0.934850    0.515425    0.634769    0.000000
    16  Ge    c     0.527521    0.613013    0.467685    0.000000
    17  Ge    c     0.439812    0.922106    0.802419    0.000000
    18  Ge    c     0.121820    0.517656    0.137362    0.000000
    19  Ge    c     0.469491    0.553852    0.363279    0.000000
    20  Ge    c     0.125099    0.578943    0.032780    0.000000
    21  Ge    c     0.490244    0.918924    0.696700    0.000000
    22  Ge    c     0.587155    0.481528    0.861604    0.000000
    23  Ge    c     0.932265    0.456329    0.530165    0.000000
    24  Ge    c     0.567527    0.110718    0.196973    0.000000
    25  Ge    c     0.302706    0.420836    0.850935    0.000000
    26  Ge    c     0.629242    0.886678    0.187677    0.000000
    27  Ge    c     0.154630    0.747368    0.520111    0.000000
    28  Ge    c     0.754556    0.621217    0.351881    0.000000
    29  Ge    c     0.425844    0.146168    0.686291    0.000000
    30  Ge    c     0.902067    0.290037    0.020299    0.000000
    31  Ge    c     0.440286    0.322547    0.485667    0.000000
    32  Ge    c     0.917381    0.597180    0.156480    0.000000
    33  Ge    c     0.728076    0.129047    0.819031    0.000000
    34  Ge    c     0.618641    0.715739    0.984448    0.000000
    35  Ge    c     0.133695    0.428669    0.653075    0.000000
    36  Ge    c     0.331165    0.908909    0.320254    0.000000
    37  Ge    c     0.250796    0.349662    0.953763    0.000000
    38  Ge    c     0.699509    0.907576    0.291469    0.000000
    39  Ge    c     0.142189    0.802114    0.622172    0.000000
    40  Ge    c     0.811429    0.691961    0.454824    0.000000
    41  Ge    c     0.364680    0.133144    0.789506    0.000000
    42  Ge    c     0.912210    0.231124    0.122182    0.000000
    43  Ge    c     0.386546    0.267488    0.382934    0.000000
    44  Ge    c     0.918325    0.657861    0.053035    0.000000
    45  Ge    c     0.780009    0.127833    0.714056    0.000000
    46  Ge    c     0.665614    0.768283    0.881932    0.000000
    47  Ge    c     0.136850    0.374814    0.549074    0.000000
    48  Ge    c     0.280801    0.904785    0.216721    0.000000
    49  Ge    c     0.974077    0.113621    0.967613    0.000000
    50  Si    c     0.929440    0.868516    0.304052    0.000000
    51  Si    c     0.181983    0.071877    0.633970    0.000000
    52  Si    c     0.083678    0.920215    0.468484    0.000000
    53  Ge    c     0.128121    0.170510    0.800021    0.000000
    54  Si    c     0.871819    0.961538    0.135969    0.000000
    55  Si    c     0.164468    0.993785    0.368928    0.000000
    56  Si    c     0.867281    0.880999    0.036101    0.000000
    57  Si    c     0.052430    0.175414    0.698484    0.000000
    58  Si    c     0.889933    0.038689    0.865768    0.000000
    59  Si    c     0.189642    0.152498    0.534309    0.000000
    60  Ge    c     0.002444    0.855756    0.202964    0.000000
    61  O3    c     0.941642    0.991038    0.001906    0.000000
    62  O2    c     0.047962    0.943698    0.335829    0.000000
    63  O2    c     0.099664    0.112303    0.662786    0.000000
    64  O2    c     0.122378    0.038831    0.499868    0.000000
    65  O3    c     0.000310    0.078473    0.831513    0.000000
    66  O3    c     0.957208    0.926850    0.164574    0.000000
    67  O1    c     0.378612    0.587870    0.333186    0.000000
    68  O1    c     0.452855    0.793918    0.666124    0.000000
    69  O1    c     0.251444    0.666243    0.002759    0.000000
    70  O1    c     0.681293    0.452950    0.831105    0.000000
    71  O1    c     0.595720    0.230713    0.164970    0.000000
    72  O1    c     0.806256    0.371119    0.499616    0.000000
    73  O1    c     0.583405    0.343298    0.996886    0.000000
    74  O1    c     0.802284    0.471425    0.664888    0.000000
    75  O1    c     0.705902    0.250712    0.331473    0.000000
    76  O1    c     0.475842    0.695415    0.497880    0.000000
    77  O1    c     0.254080    0.560147    0.167710    0.000000
    78  O1    c     0.349914    0.793816    0.834307    0.000000
    79  O1    c     0.129297    0.214581    0.974399    0.000000
    80  O3    c     0.834183    0.917122    0.312818    0.000000
    81  O3    c     0.131331    0.927543    0.642974    0.000000
    82  O3    c     0.938154    0.828263    0.475006    0.000000
    83  O1    c     0.233124    0.124396    0.811469    0.000000
    84  O3    c     0.919141    0.105750    0.144299    0.000000
    85  O3    c     0.254220    0.138738    0.360320    0.000000
    86  O3    c     0.923700    0.790672    0.032077    0.000000
    87  O3    c     0.907115    0.123208    0.691632    0.000000
    88  O3    c     0.791411    0.895136    0.856989    0.000000
    89  O3    c     0.131891    0.240831    0.528038    0.000000
    90  O1    c     0.155666    0.908341    0.193444    0.000000
    91  O3    c     0.978885    0.898519    0.254381    0.000000
    92  O2    c     0.162981    0.095419    0.583218    0.000000
    93  O3    c     0.945229    0.057395    0.914567    0.000000
    94  O3    c     0.078434    0.139261    0.746150    0.000000
    95  O2    c     0.889584    0.938403    0.084973    0.000000
    96  O2    c     0.111907    0.968881    0.418415    0.000000
    97  O1    c     0.895952    0.189807    0.978891    0.000000
    98  O3    c     0.857619    0.721198    0.311814    0.000000
    99  O3    c     0.326196    0.149012    0.645964    0.000000
   100  O3    c     0.156580    0.848521    0.479362    0.000000
   101  O1    c     0.197910    0.325763    0.810848    0.000000
   102  O3    c     0.727836    0.880457    0.148007    0.000000
   103  O3    c     0.239164    0.921977    0.360764    0.000000
   104  O3    c     0.721824    0.807913    0.025738    0.000000
   105  O3    c     0.124436    0.323759    0.693110    0.000000
   106  O3    c     0.824213    0.120629    0.859111    0.000000
   107  O3    c     0.335883    0.229973    0.526406    0.000000
   108  O1    c     0.922672    0.697718    0.196992    0.000000
   109  O1    c     0.330375    0.633126    0.254387    0.000000
   110  O1    c     0.411132    0.730141    0.583059    0.000000
   111  O1    c     0.345104    0.719308    0.921150    0.000000
   112  O1    c     0.710387    0.405738    0.749831    0.000000
   113  O1    c     0.641322    0.301016    0.082712    0.000000
   114  O1    c     0.709637    0.320060    0.419131    0.000000
   115  O1    c     0.380510    0.361643    0.978628    0.000000
   116  O1    c     0.694139    0.031409    0.313789    0.000000
   117  O1    c     0.998016    0.674164    0.630133    0.000000
   118  O1    c     0.683287    0.682369    0.480077    0.000000
   119  O1    c     0.349690    0.990771    0.799189    0.000000
   120  O1    c     0.055642    0.358568    0.131990    0.000000
   121  O1    c     0.374164    0.395126    0.374199    0.000000
   122  O1    c     0.026304    0.638729    0.025454    0.000000
   123  O1    c     0.650889    0.010756    0.691012    0.000000
   124  O1    c     0.678067    0.640819    0.873355    0.000000
   125  O1    c     0.028961    0.394340    0.521669    0.000000
   126  O1    c     0.409496    0.043987    0.208521    0.000000
   127  O1    c     0.786658    0.320882    0.007918    0.000000
   128  O1    c     0.768202    0.490968    0.351126    0.000000
   129  O1    c     0.569279    0.269523    0.675263    0.000000
   130  O1    c     0.270667    0.717664    0.507289    0.000000
   131  O1    c     0.288437    0.550838    0.851435    0.000000
   132  O1    c     0.497817    0.743455    0.185840    0.000000
   133  O1    c     0.346132    0.783882    0.333226    0.000000
   134  O1    c     0.477572    0.696530    0.998812    0.000000
   135  O1    c     0.277954    0.557070    0.657065    0.000000
   136  O1    c     0.739873    0.271356    0.825081    0.000000
   137  O1    c     0.581516    0.340948    0.498794    0.000000
   138  O1    c     0.773464    0.468062    0.158875    0.000000
   139  O1    c     0.774001    0.534610    0.042248    0.000000
   140  O1    c     0.514698    0.280547    0.357136    0.000000
   141  O1    c     0.794628    0.267209    0.699193    0.000000
   142  O1    c     0.280071    0.499496    0.538732    0.000000
   143  O1    c     0.537889    0.759738    0.857133    0.000000
   144  O1    c     0.288883    0.784866    0.191842    0.000000
   145  O1    c     0.576156    0.771738    0.308919    0.000000
   146  O1    c     0.234669    0.472950    0.969017    0.000000
   147  O1    c     0.255586    0.789614    0.648623    0.000000
   148  O1    c     0.490331    0.254184    0.814311    0.000000
   149  O1    c     0.824719    0.567371    0.469474    0.000000
   150  O1    c     0.793275    0.235917    0.147952    0.000000
   151  O1    c     0.247069    0.330448    0.897404    0.000000
   152  O1    c     0.715306    0.915688    0.234965    0.000000
   153  O1    c     0.180115    0.833159    0.567290    0.000000
   154  O1    c     0.809893    0.710016    0.398698    0.000000
   155  O1    c     0.362588    0.162666    0.734073    0.000000
   156  O1    c     0.880259    0.202554    0.066749    0.000000
   157  O1    c     0.383219    0.236254    0.437996    0.000000
   158  O1    c     0.947514    0.681890    0.108480    0.000000
   159  O1    c     0.788368    0.113139    0.770055    0.000000
   160  O1    c     0.674420    0.803188    0.937234    0.000000
   161  O1    c     0.106089    0.348061    0.604260    0.000000
   162  O1    c     0.248002    0.880311    0.272028    0.000000
   163  O1    c     0.622745    0.579955    0.982529    0.000000
   164  O1    c     0.471345    0.045678    0.320474    0.000000
   165  O1    c     0.027210    0.474459    0.664448    0.000000
   166  O1    c     0.440935    0.460876    0.484792    0.000000
   167  O1    c     0.578508    0.013694    0.829633    0.000000
   168  O1    c     0.029080    0.557549    0.167312    0.000000
   169  O1    c     0.604065    0.573526    0.338788    0.000000
   170  O1    c     0.043713    0.421478    0.020818    0.000000
   171  O1    c     0.425838    0.009677    0.682728    0.000000
   172  O1    c     0.450915    0.459692    0.837377    0.000000
   173  O1    c     0.014462    0.614748    0.520095    0.000000
   174  O1    c     0.589954    0.995371    0.174008    0.000000
   175  O1    c     0.642346    0.153238    0.247358    0.000000
   176  O1    c     0.893211    0.439045    0.585546    0.000000
   177  O1    c     0.551534    0.404401    0.911583    0.000000
   178  O1    c     0.461750    0.877784    0.751777    0.000000
   179  O1    c     0.164069    0.593282    0.088198    0.000000
   180  O1    c     0.509409    0.632563    0.413126    0.000000
   181  F     c     0.475572    0.868724    0.261817    0.000000
   182  F     c     0.175339    0.610261    0.592728    0.000000
   183  F     c     0.440090    0.576662    0.925111    0.000000
   184  F     c     0.587021    0.169077    0.759489    0.000000
   185  F     c     0.878015    0.419089    0.094340    0.000000
   186  F     c     0.618805    0.464272    0.426475    0.000000
   187  O3    s     0.936785    0.990018    0.002529    0.000000
   188  O2    s     0.047758    0.941029    0.335975    0.000000
   189  O2    s     0.103455    0.114654    0.663480    0.000000
   190  O2    s     0.125413    0.038292    0.500188    0.000000
   191  O3    s     0.999827    0.082163    0.832347    0.000000
   192  O3    s     0.952174    0.924542    0.164815    0.000000
   193  O1    s     0.388604    0.593240    0.333686    0.000000
   194  O1    s     0.448107    0.798852    0.666629    0.000000
   195  O1    s     0.246373    0.656889    0.003084    0.000000
   196  O1    s     0.671377    0.447236    0.831659    0.000000
   197  O1    s     0.601455    0.226586    0.165605    0.000000
   198  O1    s     0.811317    0.380565    0.500101    0.000000
   199  O1    s     0.588574    0.351788    0.997420    0.000000
   200  O1    s     0.805392    0.465475    0.665262    0.000000
   201  O1    s     0.697132    0.247177    0.331894    0.000000
   202  O1    s     0.470671    0.686797    0.498320    0.000000
   203  O1    s     0.251199    0.566231    0.168008    0.000000
   204  O1    s     0.358877    0.796470    0.834476    0.000000
   205  O1    s     0.126386    0.216838    0.972368    0.000000
   206  O3    s     0.833332    0.911650    0.310382    0.000000
   207  O3    s     0.137120    0.932296    0.640577    0.000000
   208  O3    s     0.942918    0.827026    0.472867    0.000000
   209  O1    s     0.234741    0.128612    0.809001    0.000000
   210  O3    s     0.913965    0.101250    0.141824    0.000000
   211  O3    s     0.254914    0.133728    0.362768    0.000000
   212  O3    s     0.917782    0.789355    0.034057    0.000000
   213  O3    s     0.911935    0.128645    0.693932    0.000000
   214  O3    s     0.791566    0.899609    0.859688    0.000000
   215  O3    s     0.137923    0.241966    0.530174    0.000000
   216  O1    s     0.152798    0.904030    0.195824    0.000000
   217  O3    s     0.975981    0.892120    0.255040    0.000000
   218  O2    s     0.167818    0.098954    0.583422    0.000000
   219  O3    s     0.942120    0.060147    0.914103    0.000000
   220  O3    s     0.079895    0.145400    0.745787    0.000000
   221  O2    s     0.885335    0.934745    0.085144    0.000000
   222  O2    s     0.114531    0.966406    0.418426    0.000000
   223  O1    s     0.902423    0.190744    0.980840    0.000000
   224  O3    s     0.857095    0.728115    0.313922    0.000000
   225  O3    s     0.319259    0.141247    0.647694    0.000000
   226  O3    s     0.149247    0.848318    0.481205    0.000000
   227  O1    s     0.199777    0.320436    0.812775    0.000000
   228  O3    s     0.734611    0.888761    0.149735    0.000000
   229  O3    s     0.238783    0.928008    0.358541    0.000000
   230  O3    s     0.728365    0.808190    0.023681    0.000000
   231  O3    s     0.118248    0.317379    0.690682    0.000000
   232  O3    s     0.823328    0.113573    0.856798    0.000000
   233  O3    s     0.329221    0.229218    0.524181    0.000000
   234  O1    s     0.928317    0.702512    0.194574    0.000000
   235  O1    s     0.337157    0.642997    0.253415    0.000000
   236  O1    s     0.400983    0.722806    0.582460    0.000000
   237  O1    s     0.347886    0.712198    0.920350    0.000000
   238  O1    s     0.706448    0.395500    0.749261    0.000000
   239  O1    s     0.651478    0.308370    0.082264    0.000000
   240  O1    s     0.706848    0.327240    0.418314    0.000000
   241  O1    s     0.382480    0.365743    0.975870    0.000000
   242  O1    s     0.689231    0.028155    0.311250    0.000000
   243  O1    s     0.004154    0.672150    0.629853    0.000000
   244  O1    s     0.681314    0.677948    0.477346    0.000000
   245  O1    s     0.357525    0.996573    0.798663    0.000000
   246  O1    s     0.049733    0.360605    0.131622    0.000000
   247  O1    s     0.381579    0.395603    0.374189    0.000000
   248  O1    s     0.024695    0.636029    0.028091    0.000000
   249  O1    s     0.650396    0.014067    0.693291    0.000000
   250  O1    s     0.670951    0.640453    0.873293    0.000000
   251  O1    s     0.030819    0.397115    0.524381    0.000000
   252  O1    s     0.409872    0.037256    0.208426    0.000000
   253  O1    s     0.789411    0.322463    0.010734    0.000000
   254  O1    s     0.760467    0.490090    0.352282    0.000000
   255  O1    s     0.568630    0.265653    0.677815    0.000000
   256  O1    s     0.267682    0.715846    0.510090    0.000000
   257  O1    s     0.296186    0.551953    0.852623    0.000000
   258  O1    s     0.497001    0.750050    0.187099    0.000000
   259  O1    s     0.349709    0.789355    0.330008    0.000000
   260  O1    s     0.479217    0.693528    0.995503    0.000000
   261  O1    s     0.269988    0.556743    0.654997    0.000000
   262  O1    s     0.732819    0.263964    0.822759    0.000000
   263  O1    s     0.579327    0.344049    0.495523    0.000000
   264  O1    s     0.781283    0.468456    0.156793    0.000000
   265  O1    s     0.779651    0.532484    0.042518    0.000000
   266  O1    s     0.516278    0.283713    0.359731    0.000000
   267  O1    s     0.787864    0.262444    0.700314    0.000000
   268  O1    s     0.274432    0.501393    0.539181    0.000000
   269  O1    s     0.536238    0.756278    0.859752    0.000000
   270  O1    s     0.292226    0.786589    0.194343    0.000000
   271  O1    s     0.575819    0.778820    0.307128    0.000000
   272  O1    s     0.243198    0.474263    0.967640    0.000000
   273  O1    s     0.250953    0.785045    0.645599    0.000000
   274  O1    s     0.490564    0.249335    0.811552    0.000000
   275  O1    s     0.816488    0.566757    0.468009    0.000000
   276  O1    s     0.798068    0.240996    0.145111    0.000000
   277  O1    s     0.251407    0.338389    0.898079    0.000000
   278  O1    s     0.707734    0.912960    0.235561    0.000000
   279  O1    s     0.175588    0.824543    0.567777    0.000000
   280  O1    s     0.805799    0.702031    0.399324    0.000000
   281  O1    s     0.367534    0.159394    0.734499    0.000000
   282  O1    s     0.884091    0.211018    0.067372    0.000000
   283  O1    s     0.387669    0.244794    0.437328    0.000000
   284  O1    s     0.943252    0.674066    0.107818    0.000000
   285  O1    s     0.783322    0.115390    0.769513    0.000000
   286  O1    s     0.669725    0.794439    0.936642    0.000000
   287  O1    s     0.110354    0.355982    0.603727    0.000000
   288  O1    s     0.256360    0.884072    0.271487    0.000000
   289  O1    s     0.615932    0.578921    0.981412    0.000000
   290  O1    s     0.472011    0.040600    0.319087    0.000000
   291  O1    s     0.028496    0.474206    0.661492    0.000000
   292  O1    s     0.447311    0.461645    0.483559    0.000000
   293  O1    s     0.579514    0.015686    0.826895    0.000000
   294  O1    s     0.027581    0.557461    0.164401    0.000000
   295  O1    s     0.606153    0.575701    0.341496    0.000000
   296  O1    s     0.038394    0.422486    0.021676    0.000000
   297  O1    s     0.430534    0.014009    0.684024    0.000000
   298  O1    s     0.449164    0.458333    0.840065    0.000000
   299  O1    s     0.019770    0.613907    0.520864    0.000000
   300  O1    s     0.591332    0.995044    0.176661    0.000000
   301  O1    s     0.635461    0.147303    0.247876    0.000000
   302  O1    s     0.899201    0.446115    0.585446    0.000000
   303  O1    s     0.552736    0.411570    0.912188    0.000000
   304  O1    s     0.462076    0.884166    0.751835    0.000000
   305  O1    s     0.158037    0.586466    0.088076    0.000000
   306  O1    s     0.508023    0.625504    0.413735    0.000000
   307  F     s     0.472998    0.861959    0.263540    0.000000
   308  F     s     0.182286    0.614560    0.594470    0.000000
   309  F     s     0.436827    0.578780    0.926461    0.000000
   310  F     s     0.589565    0.175612    0.761092    0.000000
   311  F     s     0.871266    0.414744    0.095943    0.000000
   312  F     s     0.622755    0.461803    0.428060    0.000000
--------------------------------------------------------------------------------

  Final Cartesian lattice vectors (Angstroms) :

       12.467178   -0.007607   -0.009597
       -6.234974   10.764362   -0.012127
       -0.022768   -0.067269   30.421665


  Final cell parameters and derivatives :

--------------------------------------------------------------------------------
       a           12.467184 Angstrom     dE/de1(xx)    -0.000001 eV/strain
       b           12.439716 Angstrom     dE/de2(yy)    -0.000062 eV/strain
       c           30.421748 Angstrom     dE/de3(zz)    -0.000007 eV/strain
       alpha       90.143993 Degrees      dE/de4(yz)    -0.000009 eV/strain
       beta        90.086908 Degrees      dE/de5(xz)    -0.000008 eV/strain
       gamma      120.115325 Degrees      dE/de6(xy)    -0.000034 eV/strain
--------------------------------------------------------------------------------

  Primitive cell volume =          4081.165165 Angs**3

  Density of cell =      2.437209 g/cm**3

  Non-primitive cell volume =          4081.165165 Angs**3


  Final internal derivatives :

--------------------------------------------------------------------------------
   No.  Atomic          a             b             c           Radius
        Label          (eV)          (eV)          (eV)        (eV/Angs)
--------------------------------------------------------------------------------
      1 Ge    c       0.000000      0.000000      0.000000      0.000000
      2 Ge    c      -0.000002      0.000006      0.000002      0.000000
      3 Ge    c      -0.000006      0.000004      0.000002      0.000000
      4 Ge    c      -0.000006     -0.000003      0.000030      0.000000
      5 Ge    c       0.000002     -0.000008     -0.000007      0.000000
      6 Ge    c       0.000001     -0.000002     -0.000019      0.000000
      7 Ge    c       0.000004      0.000006      0.000012      0.000000
      8 Ge    c       0.000005     -0.000008     -0.000002      0.000000
      9 Ge    c       0.000007     -0.000004      0.000007      0.000000
     10 Ge    c      -0.000002      0.000001     -0.000016      0.000000
     11 Ge    c       0.000001      0.000006     -0.000003      0.000000
     12 Ge    c      -0.000009      0.000001      0.000008      0.000000
     13 Ge    c      -0.000002      0.000006     -0.000009      0.000000
     14 Ge    c      -0.000003      0.000006      0.000017      0.000000
     15 Ge    c       0.000003      0.000005     -0.000012      0.000000
     16 Ge    c       0.000005     -0.000009     -0.000004      0.000000
     17 Ge    c       0.000006     -0.000001      0.000029      0.000000
     18 Ge    c       0.000009     -0.000005     -0.000014      0.000000
     19 Ge    c       0.000002     -0.000008      0.000014      0.000000
     20 Ge    c      -0.000008     -0.000024     -0.000014      0.000000
     21 Ge    c       0.000004     -0.000013     -0.000013      0.000000
     22 Ge    c      -0.000007      0.000011      0.000000      0.000000
     23 Ge    c      -0.000010      0.000007     -0.000006      0.000000
     24 Ge    c      -0.000001     -0.000005      0.000002      0.000000
     25 Ge    c      -0.000004     -0.000002     -0.000019      0.000000
     26 Ge    c      -0.000005     -0.000003      0.000001      0.000000
     27 Ge    c      -0.000008      0.000002      0.000012      0.000000
     28 Ge    c       0.000000      0.000003      0.000001      0.000000
     29 Ge    c      -0.000005      0.000013     -0.000018      0.000000
     30 Ge    c       0.000009      0.000025      0.000015      0.000000
     31 Ge    c      -0.000003      0.000001     -0.000005      0.000000
     32 Ge    c      -0.000009      0.000005      0.000004      0.000000
     33 Ge    c      -0.000009      0.000005      0.000006      0.000000
     34 Ge    c       0.000002      0.000005      0.000013      0.000000
     35 Ge    c       0.000005      0.000005     -0.000015      0.000000
     36 Ge    c       0.000009     -0.000005     -0.000008      0.000000
     37 Ge    c      -0.000001      0.000001      0.000010      0.000000
     38 Ge    c      -0.000011     -0.000002      0.000013      0.000000
     39 Ge    c      -0.000003     -0.000006     -0.000006      0.000000
     40 Ge    c       0.000006      0.000002      0.000002      0.000000
     41 Ge    c       0.000011      0.000002      0.000024      0.000000
     42 Ge    c       0.000010     -0.000001     -0.000024      0.000000
     43 Ge    c      -0.000006     -0.000002     -0.000003      0.000000
     44 Ge    c       0.000013     -0.000027     -0.000040      0.000000
     45 Ge    c       0.000005     -0.000003      0.000011      0.000000
     46 Ge    c       0.000003      0.000002     -0.000004      0.000000
     47 Ge    c       0.000012     -0.000002      0.000003      0.000000
     48 Ge    c       0.000005      0.000004     -0.000005      0.000000
     49 Ge    c       0.000011     -0.000009     -0.000001      0.000000
     50 Si    c       0.000004     -0.000005      0.000018      0.000000
     51 Si    c       0.000011     -0.000007     -0.000003      0.000000
     52 Si    c      -0.000007      0.000005      0.000005      0.000000
     53 Ge    c      -0.000007      0.000003      0.000016      0.000000
     54 Si    c      -0.000000     -0.000001      0.000002      0.000000
     55 Si    c      -0.000006      0.000011     -0.000003      0.000000
     56 Si    c      -0.000009      0.000011     -0.000014      0.000000
     57 Si    c      -0.000003      0.000005     -0.000004      0.000000
     58 Si    c       0.000006     -0.000011      0.000000      0.000000
     59 Si    c       0.000005     -0.000007     -0.000008      0.000000
     60 Ge    c       0.000000     -0.000004     -0.000025      0.000000
     61 O3    c      -0.000005     -0.000002      0.000017      0.000000
     62 O2    c      -0.000000     -0.000002     -0.000001      0.000000
     63 O2    c      -0.000004      0.000003      0.000005      0.000000
     64 O2    c       0.000001      0.000001      0.000005      0.000000
     65 O3    c       0.000011      0.000004     -0.000024      0.000000
     66 O3    c       0.000002     -0.000001      0.000009      0.000000
     67 O1    c      -0.000008      0.000008     -0.000019      0.000000
     68 O1    c      -0.000009      0.000001     -0.000011      0.000000
     69 O1    c      -0.000013      0.000009      0.000027      0.000000
     70 O1    c       0.000015     -0.000012     -0.000024      0.000000
     71 O1    c      -0.000000      0.000013     -0.000026      0.000000
     72 O1    c       0.000008     -0.000002      0.000020      0.000000
     73 O1    c      -0.000011     -0.000005     -0.000009      0.000000
     74 O1    c      -0.000002     -0.000004      0.000010      0.000000
     75 O1    c       0.000002     -0.000014     -0.000027      0.000000
     76 O1    c       0.000000      0.000006     -0.000001      0.000000
     77 O1    c       0.000000      0.000006      0.000015      0.000000
     78 O1    c      -0.000005      0.000010     -0.000022      0.000000
     79 O1    c      -0.000007      0.000001     -0.000010      0.000000
     80 O3    c      -0.000001      0.000002      0.000005      0.000000
     81 O3    c      -0.000002      0.000014      0.000004      0.000000
     82 O3    c      -0.000000     -0.000005     -0.000012      0.000000
     83 O1    c      -0.000001     -0.000000      0.000002      0.000000
     84 O3    c       0.000001     -0.000003      0.000004      0.000000
     85 O3    c       0.000004     -0.000004      0.000015      0.000000
     86 O3    c       0.000000      0.000004     -0.000000      0.000000
     87 O3    c       0.000008     -0.000004     -0.000007      0.000000
     88 O3    c       0.000000      0.000005      0.000009      0.000000
     89 O3    c      -0.000006      0.000007      0.000002      0.000000
     90 O1    c       0.000000      0.000001     -0.000007      0.000000
     91 O3    c      -0.000004      0.000006      0.000029      0.000000
     92 O2    c       0.000000      0.000000     -0.000001      0.000000
     93 O3    c      -0.000003      0.000002      0.000009      0.000000
     94 O3    c       0.000004      0.000000      0.000006      0.000000
     95 O2    c       0.000001     -0.000001     -0.000009      0.000000
     96 O2    c       0.000000     -0.000000     -0.000002      0.000000
     97 O1    c      -0.000005      0.000000     -0.000002      0.000000
     98 O3    c      -0.000003      0.000006      0.000002      0.000000
     99 O3    c      -0.000004     -0.000001     -0.000003      0.000000
    100 O3    c       0.000007     -0.000006      0.000004      0.000000
    101 O1    c       0.000009     -0.000006      0.000024      0.000000
    102 O3    c       0.000007     -0.000002     -0.000012      0.000000
    103 O3    c       0.000002     -0.000006      0.000011      0.000000
    104 O3    c       0.000004     -0.000004     -0.000020      0.000000
    105 O3    c       0.000002     -0.000009      0.000005      0.000000
    106 O3    c      -0.000012      0.000014      0.000004      0.000000
    107 O3    c      -0.000003      0.000001     -0.000001      0.000000
    108 O1    c       0.000002      0.000005     -0.000000      0.000000
    109 O1    c      -0.000005     -0.000003      0.000005      0.000000
    110 O1    c       0.000004     -0.000002     -0.000041      0.000000
    111 O1    c       0.000000     -0.000001      0.000015      0.000000
    112 O1    c      -0.000002     -0.000003      0.000012      0.000000
    113 O1    c       0.000000      0.000007     -0.000015      0.000000
    114 O1    c      -0.000003      0.000002     -0.000003      0.000000
    115 O1    c      -0.000004     -0.000002      0.000005      0.000000
    116 O1    c       0.000005     -0.000005      0.000003      0.000000
    117 O1    c       0.000009     -0.000008     -0.000005      0.000000
    118 O1    c      -0.000010      0.000004      0.000004      0.000000
    119 O1    c      -0.000011      0.000003     -0.000010      0.000000
    120 O1    c      -0.000015     -0.000003     -0.000008      0.000000
    121 O1    c       0.000001      0.000010     -0.000012      0.000000
    122 O1    c      -0.000023      0.000014      0.000080      0.000000
    123 O1    c       0.000003     -0.000004     -0.000045      0.000000
    124 O1    c      -0.000001     -0.000006     -0.000007      0.000000
    125 O1    c      -0.000002     -0.000002     -0.000023      0.000000
    126 O1    c      -0.000009     -0.000009      0.000005      0.000000
    127 O1    c       0.000041     -0.000033      0.000052      0.000000
    128 O1    c      -0.000002     -0.000010      0.000008      0.000000
    129 O1    c       0.000008      0.000003     -0.000001      0.000000
    130 O1    c       0.000011     -0.000007     -0.000002      0.000000
    131 O1    c       0.000002      0.000010      0.000007      0.000000
    132 O1    c       0.000005      0.000010     -0.000005      0.000000
    133 O1    c       0.000001      0.000002      0.000003      0.000000
    134 O1    c      -0.000008      0.000002     -0.000014      0.000000
    135 O1    c      -0.000007     -0.000007      0.000004      0.000000
    136 O1    c       0.000008     -0.000006      0.000007      0.000000
    137 O1    c      -0.000002     -0.000000      0.000003      0.000000
    138 O1    c       0.000011      0.000001     -0.000007      0.000000
    139 O1    c       0.000040     -0.000036      0.000027      0.000000
    140 O1    c       0.000010     -0.000003     -0.000008      0.000000
    141 O1    c       0.000002      0.000015     -0.000009      0.000000
    142 O1    c      -0.000007      0.000010      0.000005      0.000000
    143 O1    c      -0.000004      0.000001      0.000002      0.000000
    144 O1    c      -0.000003      0.000004     -0.000003      0.000000
    145 O1    c       0.000000      0.000008     -0.000005      0.000000
    146 O1    c       0.000011      0.000012     -0.000020      0.000000
    147 O1    c      -0.000007      0.000017      0.000019      0.000000
    148 O1    c      -0.000008     -0.000003     -0.000005      0.000000
    149 O1    c      -0.000001     -0.000014      0.000003      0.000000
    150 O1    c      -0.000008     -0.000000      0.000022      0.000000
    151 O1    c       0.000000     -0.000004     -0.000002      0.000000
    152 O1    c       0.000001      0.000000     -0.000021      0.000000
    153 O1    c       0.000004     -0.000003     -0.000018      0.000000
    154 O1    c      -0.000000     -0.000003     -0.000015      0.000000
    155 O1    c      -0.000013      0.000015     -0.000005      0.000000
    156 O1    c       0.000002      0.000014     -0.000001      0.000000
    157 O1    c       0.000001      0.000003      0.000023      0.000000
    158 O1    c       0.000000     -0.000005      0.000009      0.000000
    159 O1    c       0.000005     -0.000006      0.000000      0.000000
    160 O1    c      -0.000001      0.000003      0.000004      0.000000
    161 O1    c      -0.000001      0.000000      0.000018      0.000000
    162 O1    c      -0.000003      0.000001     -0.000001      0.000000
    163 O1    c      -0.000001     -0.000011     -0.000009      0.000000
    164 O1    c      -0.000000     -0.000002      0.000009      0.000000
    165 O1    c      -0.000007      0.000007      0.000001      0.000000
    166 O1    c       0.000004      0.000006     -0.000004      0.000000
    167 O1    c      -0.000006      0.000001     -0.000010      0.000000
    168 O1    c       0.000004     -0.000000      0.000010      0.000000
    169 O1    c       0.000009     -0.000004     -0.000003      0.000000
    170 O1    c      -0.000060      0.000042      0.000023      0.000000
    171 O1    c      -0.000013     -0.000005     -0.000014      0.000000
    172 O1    c       0.000003     -0.000001      0.000000      0.000000
    173 O1    c       0.000006      0.000005     -0.000002      0.000000
    174 O1    c      -0.000001      0.000002     -0.000005      0.000000
    175 O1    c       0.000002      0.000001     -0.000004      0.000000
    176 O1    c      -0.000001      0.000001      0.000019      0.000000
    177 O1    c      -0.000005     -0.000002      0.000038      0.000000
    178 O1    c       0.000008     -0.000012      0.000019      0.000000
    179 O1    c      -0.000003     -0.000008     -0.000011      0.000000
    180 O1    c       0.000002     -0.000001      0.000004      0.000000
    181 F     c      -0.000002      0.000003      0.000016      0.000000
    182 F     c       0.000008     -0.000000      0.000007      0.000000
    183 F     c       0.000004     -0.000005     -0.000012      0.000000
    184 F     c       0.000001      0.000001     -0.000001      0.000000
    185 F     c       0.000001     -0.000002      0.000004      0.000000
    186 F     c      -0.000000      0.000001     -0.000003      0.000000
    187 O3    s       0.000004     -0.000002     -0.000008      0.000000
    188 O2    s      -0.000001      0.000001     -0.000000      0.000000
    189 O2    s       0.000000     -0.000001      0.000003      0.000000
    190 O2    s      -0.000001      0.000001     -0.000001      0.000000
    191 O3    s      -0.000002     -0.000001      0.000010      0.000000
    192 O3    s      -0.000002     -0.000000     -0.000009      0.000000
    193 O1    s       0.000008     -0.000006      0.000014      0.000000
    194 O1    s       0.000009     -0.000005      0.000001      0.000000
    195 O1    s       0.000002     -0.000010     -0.000007      0.000000
    196 O1    s      -0.000011      0.000005      0.000011      0.000000
    197 O1    s      -0.000001     -0.000005      0.000016      0.000000
    198 O1    s      -0.000005      0.000003     -0.000016      0.000000
    199 O1    s       0.000016      0.000006      0.000013      0.000000
    200 O1    s      -0.000001      0.000006     -0.000008      0.000000
    201 O1    s      -0.000002      0.000009      0.000016      0.000000
    202 O1    s      -0.000000     -0.000006      0.000001      0.000000
    203 O1    s      -0.000000     -0.000004     -0.000014      0.000000
    204 O1    s       0.000003     -0.000007      0.000019      0.000000
    205 O1    s       0.000001      0.000000      0.000003      0.000000
    206 O3    s       0.000003     -0.000003     -0.000001      0.000000
    207 O3    s      -0.000000     -0.000007      0.000003      0.000000
    208 O3    s      -0.000002      0.000004      0.000007      0.000000
    209 O1    s      -0.000005      0.000005      0.000007      0.000000
    210 O3    s      -0.000001      0.000004     -0.000005      0.000000
    211 O3    s      -0.000003      0.000002     -0.000008      0.000000
    212 O3    s       0.000000     -0.000010     -0.000001      0.000000
    213 O3    s       0.000004     -0.000000      0.000008      0.000000
    214 O3    s       0.000001     -0.000006     -0.000005      0.000000
    215 O3    s       0.000003     -0.000003     -0.000004      0.000000
    216 O1    s       0.000002     -0.000000      0.000006      0.000000
    217 O3    s       0.000001     -0.000005     -0.000010      0.000000
    218 O2    s       0.000000     -0.000000     -0.000000      0.000000
    219 O3    s       0.000006     -0.000001      0.000000      0.000000
    220 O3    s      -0.000005      0.000001      0.000003      0.000000
    221 O2    s      -0.000002     -0.000001     -0.000002      0.000000
    222 O2    s      -0.000001      0.000002     -0.000000      0.000000
    223 O1    s      -0.000000      0.000011      0.000014      0.000000
    224 O3    s       0.000002     -0.000002     -0.000001      0.000000
    225 O3    s      -0.000003      0.000002     -0.000003      0.000000
    226 O3    s      -0.000002      0.000001     -0.000001      0.000000
    227 O1    s      -0.000007      0.000001     -0.000010      0.000000
    228 O3    s      -0.000003      0.000001      0.000010      0.000000
    229 O3    s      -0.000001      0.000004     -0.000003      0.000000
    230 O3    s       0.000001      0.000002      0.000015      0.000000
    231 O3    s      -0.000003      0.000005     -0.000003      0.000000
    232 O3    s       0.000005     -0.000005     -0.000008      0.000000
    233 O3    s       0.000003     -0.000002     -0.000004      0.000000
    234 O1    s      -0.000003     -0.000005     -0.000006      0.000000
    235 O1    s       0.000009      0.000007     -0.000008      0.000000
    236 O1    s      -0.000004     -0.000001      0.000039      0.000000
    237 O1    s      -0.000004      0.000005     -0.000016      0.000000
    238 O1    s      -0.000003      0.000007     -0.000002      0.000000
    239 O1    s       0.000014      0.000002      0.000007      0.000000
    240 O1    s       0.000003     -0.000002      0.000000      0.000000
    241 O1    s       0.000003      0.000001     -0.000005      0.000000
    242 O1    s      -0.000004      0.000007     -0.000001      0.000000
    243 O1    s      -0.000009      0.000009      0.000008      0.000000
    244 O1    s       0.000005     -0.000003     -0.000004      0.000000
    245 O1    s       0.000000     -0.000004      0.000016      0.000000
    246 O1    s       0.000000      0.000007      0.000012      0.000000
    247 O1    s      -0.000002     -0.000005      0.000011      0.000000
    248 O1    s       0.000016     -0.000020      0.000009      0.000000
    249 O1    s       0.000008     -0.000008     -0.000006      0.000000
    250 O1    s       0.000000      0.000005      0.000007      0.000000
    251 O1    s       0.000000      0.000002      0.000013      0.000000
    252 O1    s       0.000003      0.000004     -0.000000      0.000000
    253 O1    s      -0.000013      0.000012      0.000022      0.000000
    254 O1    s       0.000002      0.000006     -0.000004      0.000000
    255 O1    s      -0.000002      0.000004     -0.000022      0.000000
    256 O1    s      -0.000008      0.000004     -0.000002      0.000000
    257 O1    s      -0.000000     -0.000009     -0.000002      0.000000
    258 O1    s      -0.000003     -0.000007      0.000012      0.000000
    259 O1    s      -0.000003     -0.000004      0.000011      0.000000
    260 O1    s       0.000006     -0.000003      0.000017      0.000000
    261 O1    s       0.000000      0.000014     -0.000020      0.000000
    262 O1    s      -0.000006      0.000004     -0.000010      0.000000
    263 O1    s      -0.000000      0.000001     -0.000006      0.000000
    264 O1    s      -0.000001     -0.000004     -0.000017      0.000000
    265 O1    s      -0.000008      0.000014     -0.000025      0.000000
    266 O1    s      -0.000004      0.000001      0.000005      0.000000
    267 O1    s       0.000002     -0.000002     -0.000006      0.000000
    268 O1    s       0.000006     -0.000008     -0.000013      0.000000
    269 O1    s       0.000004     -0.000002     -0.000003      0.000000
    270 O1    s       0.000002     -0.000002      0.000004      0.000000
    271 O1    s       0.000001     -0.000011      0.000002      0.000000
    272 O1    s      -0.000012     -0.000007      0.000025      0.000000
    273 O1    s       0.000007     -0.000026     -0.000027      0.000000
    274 O1    s       0.000007      0.000006      0.000017      0.000000
    275 O1    s       0.000000      0.000008     -0.000006      0.000000
    276 O1    s       0.000009      0.000005     -0.000037      0.000000
    277 O1    s      -0.000000      0.000006     -0.000003      0.000000
    278 O1    s      -0.000000     -0.000000      0.000004      0.000000
    279 O1    s      -0.000005      0.000004      0.000007      0.000000
    280 O1    s      -0.000000      0.000001      0.000007      0.000000
    281 O1    s      -0.000006      0.000002      0.000006      0.000000
    282 O1    s      -0.000003      0.000014     -0.000018      0.000000
    283 O1    s       0.000000      0.000000     -0.000011      0.000000
    284 O1    s      -0.000004     -0.000007     -0.000033      0.000000
    285 O1    s       0.000006     -0.000004      0.000022      0.000000
    286 O1    s       0.000001     -0.000004     -0.000010      0.000000
    287 O1    s       0.000003     -0.000003     -0.000008      0.000000
    288 O1    s       0.000001      0.000002     -0.000011      0.000000
    289 O1    s       0.000003      0.000003      0.000008      0.000000
    290 O1    s       0.000001      0.000005     -0.000007      0.000000
    291 O1    s       0.000005     -0.000007      0.000012      0.000000
    292 O1    s      -0.000001     -0.000003     -0.000002      0.000000
    293 O1    s       0.000004     -0.000001      0.000022      0.000000
    294 O1    s      -0.000003     -0.000001     -0.000026      0.000000
    295 O1    s      -0.000006      0.000004      0.000003      0.000000
    296 O1    s       0.000006     -0.000010      0.000009      0.000000
    297 O1    s       0.000000     -0.000002     -0.000013      0.000000
    298 O1    s      -0.000004      0.000001     -0.000001      0.000000
    299 O1    s      -0.000002     -0.000004      0.000005      0.000000
    300 O1    s       0.000001     -0.000002      0.000003      0.000000
    301 O1    s      -0.000001     -0.000003      0.000010      0.000000
    302 O1    s      -0.000001      0.000001     -0.000017      0.000000
    303 O1    s       0.000005     -0.000000     -0.000019      0.000000
    304 O1    s       0.000002     -0.000008      0.000002      0.000000
    305 O1    s      -0.000010     -0.000002     -0.000032      0.000000
    306 O1    s      -0.000003     -0.000001      0.000001      0.000000
    307 F     s       0.000004     -0.000010     -0.000035      0.000000
    308 F     s      -0.000005      0.000004      0.000011      0.000000
    309 F     s      -0.000001      0.000002      0.000010      0.000000
    310 F     s       0.000001     -0.000001      0.000008      0.000000
    311 F     s      -0.000002      0.000005     -0.000013      0.000000
    312 F     s      -0.000000     -0.000001      0.000006      0.000000
--------------------------------------------------------------------------------
  Maximum abs         0.000060      0.000042      0.000080      0.000000
--------------------------------------------------------------------------------


  Time to end of optimisation =     121.4945 seconds


  Peak dynamic memory used =      19.13 MB 


  Timing analysis for GULP :

--------------------------------------------------------------------------------
  Task / Subroutine                                          Time (Seconds)
--------------------------------------------------------------------------------
  Calculation of reciprocal space energy and derivatives          4.6434
  Calculation of real space energy and derivatives               74.4255
  Calculation of three-body energy and derivatives                1.1735
  Global summation overhead                                       0.0001
--------------------------------------------------------------------------------
  Total CPU time                                                121.4946
--------------------------------------------------------------------------------


  Dump file written as 51.2.res                                                
  CIF file written as 51.2.cif                                                


  Job Finished at 22:59.05  5th January    2017                               

