********************************************************************************
*                       GENERAL UTILITY LATTICE PROGRAM                        *
*                                 Julian Gale                                  *
*                      Nanochemistry Research Institute                        *
*                           Department of Chemistry                            *
*                    Curtin University, Western Australia                      *
********************************************************************************
* Version = 4.2.0 * Last modified =  20th January 2014                         *
********************************************************************************
*  optimise     - perform optimisation run                                     *
*  conp         - constant pressure calculation                                *
*  qok          - running with non charge neutral cell is OK                   *
*  rfo          - optimisation step to be determined by RFO method             *
********************************************************************************

  Job Started  at 23:15.44  5th January    2017                               

  Number of CPUs =     1


  Total number of configurations input =   1

********************************************************************************
*  Input for Configuration =   1                                               *
********************************************************************************

  Formula = Ge52Si8O120F6                                               

  Number of irreducible atoms/shells =     312


  Total number atoms/shells =     312

  Dimensionality = 3               :  Bulk   


  Charge on solid   =  -6.000000 =>neutralising background added


  Cartesian lattice vectors (Angstroms) :

       12.554655    0.000000    0.000000
       -6.274619   10.830268    0.000000
       -0.070216   -0.060812   30.617938

  Cell parameters (Angstroms/Degrees):

  a =      12.5547    alpha =  90.0326
  b =      12.5166    beta  =  90.1314
  c =      30.6181    gamma = 120.0863

  Initial cell volume =        4163.129536 Angs**3

  Temperature of configuration =  0.000     K 

  Pressure of configuration =         0.000 GPa 

  Fractional coordinates of asymmetric unit :

--------------------------------------------------------------------------------
   No.  Atomic       x           y          z         Charge      Occupancy
        Label      (Frac)      (Frac)     (Frac)        (e)         (Frac)  
--------------------------------------------------------------------------------
      1 Ge    c    0.699600    0.375700    0.033890     4.00000    1.000000    
      2 Ge    c    0.621263 *  0.321156 *  0.367499 *   4.00000    1.000000    
      3 Ge    c    0.675761 *  0.298596 *  0.700599 *   4.00000    1.000000    
      4 Ge    c    0.299275 *  0.621474 *  0.532289 *   4.00000    1.000000    
      5 Ge    c    0.375662 *  0.678272 *  0.868018 *   4.00000    1.000000    
      6 Ge    c    0.328275 *  0.704130 *  0.199960 *   4.00000    1.000000    
      7 Ge    c    0.377026 *  0.698109 *  0.301001 *   4.00000    1.000000    
      8 Ge    c    0.322359 *  0.625193 *  0.968648 *   4.00000    1.000000    
      9 Ge    c    0.299828 *  0.673207 *  0.633730 *   4.00000    1.000000    
     10 Ge    c    0.622749 *  0.299906 *  0.801278 *   4.00000    1.000000    
     11 Ge    c    0.678508 *  0.378503 *  0.467686 *   4.00000    1.000000    
     12 Ge    c    0.704623 *  0.323783 *  0.134426 *   4.00000    1.000000    
     13 Ge    c    0.527892 *  0.418212 *  0.969372 *   4.00000    1.000000    
     14 Ge    c    0.584415 *  0.110309 *  0.302238 *   4.00000    1.000000    
     15 Ge    c    0.889041 *  0.467568 *  0.635451 *   4.00000    1.000000    
     16 Ge    c    0.476477 *  0.584395 *  0.468719 *   4.00000    1.000000    
     17 Ge    c    0.414273 *  0.888380 *  0.802108 *   4.00000    1.000000    
     18 Ge    c    0.111563 *  0.528312 *  0.136499 *   4.00000    1.000000    
     19 Ge    c    0.417305 *  0.523399 *  0.364835 *   4.00000    1.000000    
     20 Ge    c    0.109211 *  0.587916 *  0.032689 *   4.00000    1.000000    
     21 Ge    c    0.470755 *  0.889495 *  0.698296 *   4.00000    1.000000    
     22 Ge    c    0.581659 *  0.474245 *  0.865284 *   4.00000    1.000000    
     23 Ge    c    0.892593 *  0.414556 *  0.531712 *   4.00000    1.000000    
     24 Ge    c    0.529330 *  0.108569 *  0.198527 *   4.00000    1.000000    
     25 Ge    c    0.295349 *  0.399380 *  0.850690 *   4.00000    1.000000    
     26 Ge    c    0.607647 *  0.899385 *  0.184320 *   4.00000    1.000000    
     27 Ge    c    0.100452 *  0.703323 *  0.516955 *   4.00000    1.000000    
     28 Ge    c    0.701936 *  0.599549 *  0.348909 *   4.00000    1.000000    
     29 Ge    c    0.396597 *  0.101702 *  0.683608 *   4.00000    1.000000    
     30 Ge    c    0.901305 *  0.300803 *  0.016737 *   4.00000    1.000000    
     31 Ge    c    0.398576 *  0.296570 *  0.484299 *   4.00000    1.000000    
     32 Ge    c    0.901397 *  0.604670 *  0.151242 *   4.00000    1.000000    
     33 Ge    c    0.702004 *  0.099109 *  0.817755 *   4.00000    1.000000    
     34 Ge    c    0.602508 *  0.705180 *  0.984685 *   4.00000    1.000000    
     35 Ge    c    0.100555 *  0.392988 *  0.648882 *   4.00000    1.000000    
     36 Ge    c    0.297633 *  0.899323 *  0.316176 *   4.00000    1.000000    
     37 Ge    c    0.245223 *  0.339750 *  0.953373 *   4.00000    1.000000    
     38 Ge    c    0.662322 *  0.905577 *  0.287164 *   4.00000    1.000000    
     39 Ge    c    0.092978 *  0.751473 *  0.620059 *   4.00000    1.000000    
     40 Ge    c    0.759491 *  0.665425 *  0.451319 *   4.00000    1.000000    
     41 Ge    c    0.337287 *  0.093657 *  0.786212 *   4.00000    1.000000    
     42 Ge    c    0.910198 *  0.243457 *  0.118991 *   4.00000    1.000000    
     43 Ge    c    0.337795 *  0.240609 *  0.381637 *   4.00000    1.000000    
     44 Ge    c    0.903474 *  0.662571 *  0.048605 *   4.00000    1.000000    
     45 Ge    c    0.754655 *  0.092901 *  0.714804 *   4.00000    1.000000    
     46 Ge    c    0.659726 *  0.757398 *  0.881791 *   4.00000    1.000000    
     47 Ge    c    0.095661 *  0.334604 *  0.546045 *   4.00000    1.000000    
     48 Ge    c    0.244915 *  0.906868 *  0.213209 *   4.00000    1.000000    
     49 Ge    c    0.965492 *  0.116888 *  0.967084 *   4.00000    1.000000    
     50 Ge    c    0.884670 *  0.848150 *  0.299237 *   4.00000    1.000000    
     51 Ge    c    0.148487 *  0.031935 *  0.631771 *   4.00000    1.000000    
     52 Si    c    0.035944 *  0.882089 *  0.465687 *   4.00000    1.000000    
     53 Ge    c    0.114669 *  0.150844 *  0.799284 *   4.00000    1.000000    
     54 Si    c    0.851902 *  0.966802 *  0.133738 *   4.00000    1.000000    
     55 Si    c    0.121658 *  0.964504 *  0.367027 *   4.00000    1.000000    
     56 Si    c    0.845435 *  0.880253 *  0.034977 *   4.00000    1.000000    
     57 Si    c    0.028075 *  0.147966 *  0.698352 *   4.00000    1.000000    
     58 Si    c    0.877805 *  0.030328 *  0.866406 *   4.00000    1.000000    
     59 Si    c    0.150794 *  0.115689 *  0.530638 *   4.00000    1.000000    
     60 Si    c    0.971334 *  0.853217 *  0.198517 *   4.00000    1.000000    
     61 O3    c    0.914909 *  0.993955 *  0.002248 *   1.33043    1.000000    
     62 O3    c    0.008602 *  0.919944 *  0.334115 *   1.33043    1.000000    
     63 O3    c    0.065710 *  0.077787 *  0.663383 *   1.33043    1.000000    
     64 O2    c    0.084676 *  0.002901 *  0.496125 *   0.87073    1.000000    
     65 O3    c    0.987303 *  0.073778 *  0.831965 *   1.33043    1.000000    
     66 O2    c    0.925681 *  0.922094 *  0.165036 *   0.87073    1.000000    
     67 O1    c    0.335780 *  0.570548 *  0.333433 *   1.73396    1.000000    
     68 O1    c    0.426765 *  0.762319 *  0.666247 *   1.73396    1.000000    
     69 O1    c    0.237592 *  0.667589 *  0.001285 *   1.73396    1.000000    
     70 O1    c    0.662835 *  0.427871 *  0.833715 *   1.73396    1.000000    
     71 O1    c    0.577921 *  0.236753 *  0.166982 *   1.73396    1.000000    
     72 O1    c    0.764457 *  0.336601 *  0.499863 *   1.73396    1.000000    
     73 O1    c    0.572947 *  0.335845 *  0.000959 *   1.73396    1.000000    
     74 O1    c    0.763691 *  0.424917 *  0.667561 *   1.73396    1.000000    
     75 O1    c    0.663843 *  0.235598 *  0.334927 *   1.73396    1.000000    
     76 O1    c    0.427679 *  0.664219 *  0.499965 *   1.73396    1.000000    
     77 O1    c    0.239620 *  0.575045 *  0.167642 *   1.73396    1.000000    
     78 O1    c    0.333930 *  0.762983 *  0.834556 *   1.73396    1.000000    
     79 O1    c    0.120109 *  0.210196 *  0.975306 *   1.73396    1.000000    
     80 O1    c    0.790200 *  0.907182 *  0.309283 *   1.73396    1.000000    
     81 O1    c    0.092282 *  0.878426 *  0.642001 *   1.73396    1.000000    
     82 O3    c    0.890215 *  0.795896 *  0.472241 *   1.33043    1.000000    
     83 O1    c    0.210001 *  0.092444 *  0.808522 *   1.73396    1.000000    
     84 O3    c    0.910022 *  0.112915 *  0.139904 *   1.33043    1.000000    
     85 O3    c    0.207610 *  0.110700 *  0.360923 *   1.33043    1.000000    
     86 O3    c    0.901695 *  0.791626 *  0.027664 *   1.33043    1.000000    
     87 O3    c    0.882330 *  0.092612 *  0.692895 *   1.33043    1.000000    
     88 O3    c    0.787838 *  0.884839 *  0.859348 *   1.33043    1.000000    
     89 O3    c    0.095428 *  0.205645 *  0.523690 *   1.33043    1.000000    
     90 O3    c    0.116461 *  0.908209 *  0.191419 *   1.33043    1.000000    
     91 O3    c    0.943732 *  0.881369 *  0.246990 *   1.33043    1.000000    
     92 O3    c    0.121434 *  0.055717 *  0.578287 *   1.33043    1.000000    
     93 O3    c    0.935949 *  0.058882 *  0.914547 *   1.33043    1.000000    
     94 O3    c    0.062235 *  0.122116 *  0.746085 *   1.33043    1.000000    
     95 O2    c    0.868713 *  0.934696 *  0.084093 *   0.87073    1.000000    
     96 O2    c    0.066607 *  0.928681 *  0.415834 *   0.87073    1.000000    
     97 O1    c    0.897883 *  0.203883 *  0.975491 *   1.73396    1.000000    
     98 O1    c    0.799424 *  0.692780 *  0.307761 *   1.73396    1.000000    
     99 O1    c    0.302124 *  0.106856 *  0.642885 *   1.73396    1.000000    
    100 O3    c    0.100728 *  0.803308 *  0.476844 *   1.33043    1.000000    
    101 O1    c    0.196481 *  0.305192 *  0.809717 *   1.73396    1.000000    
    102 O3    c    0.708474 *  0.899449 *  0.144699 *   1.33043    1.000000    
    103 O3    c    0.201417 *  0.899627 *  0.357345 *   1.33043    1.000000    
    104 O3    c    0.700314 *  0.803327 *  0.025621 *   1.33043    1.000000    
    105 O3    c    0.098283 *  0.293954 *  0.689745 *   1.33043    1.000000    
    106 O3    c    0.799379 *  0.098308 *  0.858671 *   1.33043    1.000000    
    107 O3    c    0.297083 *  0.196039 *  0.523976 *   1.33043    1.000000    
    108 O3    c    0.903099 *  0.706873 *  0.191041 *   1.33043    1.000000    
    109 O1    c    0.328695 *  0.639303 *  0.249488 *   1.73396    1.000000    
    110 O1    c    0.360562 *  0.679213 *  0.582934 *   1.73396    1.000000    
    111 O1    c    0.319087 *  0.684731 *  0.918362 *   1.73396    1.000000    
    112 O1    c    0.683073 *  0.361924 *  0.751094 *   1.73396    1.000000    
    113 O1    c    0.639487 *  0.320908 *  0.084599 *   1.73396    1.000000    
    114 O1    c    0.674603 *  0.311951 *  0.418188 *   1.73396    1.000000    
    115 O1    c    0.369768 *  0.331575 *  0.971018 *   1.73396    1.000000    
    116 O1    c    0.675968 *  0.043847 *  0.300821 *   1.73396    1.000000    
    117 O1    c    0.958394 *  0.626409 *  0.635957 *   1.73396    1.000000    
    118 O1    c    0.635271 *  0.669778 *  0.471897 *   1.73396    1.000000    
    119 O1    c    0.327876 *  0.960168 *  0.803823 *   1.73396    1.000000    
    120 O1    c    0.040836 *  0.368847 *  0.138065 *   1.73396    1.000000    
    121 O1    c    0.325891 *  0.364656 *  0.365236 *   1.73396    1.000000    
    122 O1    c    0.039152 *  0.676222 *  0.031308 *   1.73396    1.000000    
    123 O1    c    0.629268 *  0.959046 *  0.697786 *   1.73396    1.000000    
    124 O1    c    0.669051 *  0.633163 *  0.864071 *   1.73396    1.000000    
    125 O1    c    0.962704 *  0.326418 *  0.528319 *   1.73396    1.000000    
    126 O1    c    0.370997 *  0.035464 *  0.193498 *   1.73396    1.000000    
    127 O1    c    0.763292 *  0.295553 *  0.010949 *   1.73396    1.000000    
    128 O1    c    0.705661 *  0.465684 *  0.344602 *   1.73396    1.000000    
    129 O1    c    0.532229 *  0.236963 *  0.677020 *   1.73396    1.000000    
    130 O1    c    0.233577 *  0.700028 *  0.508855 *   1.73396    1.000000    
    131 O1    c    0.295291 *  0.534579 *  0.844163 *   1.73396    1.000000    
    132 O1    c    0.469100 *  0.769888 *  0.173993 *   1.73396    1.000000    
    133 O1    c    0.291793 *  0.760456 *  0.321124 *   1.73396    1.000000    
    134 O1    c    0.466774 *  0.702915 *  0.992219 *   1.73396    1.000000    
    135 O1    c    0.236387 *  0.527853 *  0.656382 *   1.73396    1.000000    
    136 O1    c    0.699800 *  0.233337 *  0.825221 *   1.73396    1.000000    
    137 O1    c    0.536910 *  0.305437 *  0.493325 *   1.73396    1.000000    
    138 O1    c    0.769074 *  0.467178 *  0.159113 *   1.73396    1.000000    
    139 O1    c    0.780010 *  0.534858 *  0.026597 *   1.73396    1.000000    
    140 O1    c    0.463603 *  0.243833 *  0.358598 *   1.73396    1.000000    
    141 O1    c    0.752884 *  0.217991 *  0.693229 *   1.73396    1.000000    
    142 O1    c    0.220930 *  0.462917 *  0.525245 *   1.73396    1.000000    
    143 O1    c    0.533454 *  0.757331 *  0.860739 *   1.73396    1.000000    
    144 O1    c    0.242651 *  0.777186 *  0.194373 *   1.73396    1.000000    
    145 O1    c    0.533954 *  0.784883 *  0.310301 *   1.73396    1.000000    
    146 O1    c    0.243972 *  0.466351 *  0.974187 *   1.73396    1.000000    
    147 O1    c    0.217558 *  0.748377 *  0.641437 *   1.73396    1.000000    
    148 O1    c    0.464586 *  0.221121 *  0.806966 *   1.73396    1.000000    
    149 O1    c    0.761366 *  0.538163 *  0.470674 *   1.73396    1.000000    
    150 O1    c    0.783228 *  0.243566 *  0.139023 *   1.73396    1.000000    
    151 O1    c    0.223770 *  0.321169 *  0.897735 *   1.73396    1.000000    
    152 O1    c    0.675429 *  0.890472 *  0.231984 *   1.73396    1.000000    
    153 O1    c    0.100946 *  0.775498 *  0.564580 *   1.73396    1.000000    
    154 O1    c    0.770411 *  0.683045 *  0.395695 *   1.73396    1.000000    
    155 O1    c    0.318859 *  0.096357 *  0.730568 *   1.73396    1.000000    
    156 O1    c    0.912290 *  0.229623 *  0.063290 *   1.73396    1.000000    
    157 O1    c    0.326863 *  0.220536 *  0.437032 *   1.73396    1.000000    
    158 O1    c    0.900748 *  0.678241 *  0.104076 *   1.73396    1.000000    
    159 O1    c    0.775091 *  0.098892 *  0.770378 *   1.73396    1.000000    
    160 O1    c    0.676519 *  0.778169 *  0.937339 *   1.73396    1.000000    
    161 O1    c    0.098746 *  0.317650 *  0.601565 *   1.73396    1.000000    
    162 O1    c    0.229817 *  0.910551 *  0.268908 *   1.73396    1.000000    
    163 O1    c    0.584236 *  0.562146 *  0.992709 *   1.73396    1.000000    
    164 O1    c    0.443267 *  0.016619 *  0.326461 *   1.73396    1.000000    
    165 O1    c    0.977918 *  0.412906 *  0.658600 *   1.73396    1.000000    
    166 O1    c    0.415296 *  0.439363 *  0.491541 *   1.73396    1.000000    
    167 O1    c    0.558630 *  0.975392 *  0.825204 *   1.73396    1.000000    
    168 O1    c    0.024553 *  0.584827 *  0.159933 *   1.73396    1.000000    
    169 O1    c    0.556854 *  0.574537 *  0.339073 *   1.73396    1.000000    
    170 O1    c    0.021662 *  0.445906 *  0.007715 *   1.73396    1.000000    
    171 O1    c    0.414882 *  0.976855 *  0.674478 *   1.73396    1.000000    
    172 O1    c    0.438157 *  0.417891 *  0.841859 *   1.73396    1.000000    
    173 O1    c    0.976096 *  0.559881 *  0.508931 *   1.73396    1.000000    
    174 O1    c    0.596615 *  0.028729 *  0.177214 *   1.73396    1.000000    
    175 O1    c    0.573733 *  0.160093 *  0.251130 *   1.73396    1.000000    
    176 O1    c    0.840038 *  0.411841 *  0.583641 *   1.73396    1.000000    
    177 O1    c    0.579353 *  0.421522 *  0.917237 *   1.73396    1.000000    
    178 O1    c    0.415518 *  0.838432 *  0.749925 *   1.73396    1.000000    
    179 O1    c    0.158899 *  0.581874 *  0.084352 *   1.73396    1.000000    
    180 O1    c    0.427969 *  0.583337 *  0.416129 *   1.73396    1.000000    
    181 F     c    0.446934 *  0.888336 *  0.247452 *   0.56000    1.000000    
    182 F     c    0.110526 *  0.549604 *  0.582826 *   0.56000    1.000000    
    183 F     c    0.441179 *  0.558144 *  0.916885 *   0.56000    1.000000    
    184 F     c    0.552432 *  0.112080 *  0.749584 *   0.56000    1.000000    
    185 F     c    0.888620 *  0.446318 *  0.083801 *   0.56000    1.000000    
    186 F     c    0.556587 *  0.441418 *  0.415852 *   0.56000    1.000000    
    187 O3    s    0.912099 *  0.992708 *  0.002626 *  -3.33043    1.000000    
    188 O3    s    0.009850 *  0.918516 *  0.334579 *  -3.33043    1.000000    
    189 O3    s    0.068862 *  0.080984 *  0.664248 *  -3.33043    1.000000    
    190 O2    s    0.086374 *  0.001803 *  0.496486 *  -2.87073    1.000000    
    191 O3    s    0.986927 *  0.075844 *  0.832705 *  -3.33043    1.000000    
    192 O2    s    0.922673 *  0.919615 *  0.165230 *  -2.87073    1.000000    
    193 O1    s    0.344870 *  0.576168 *  0.333464 *  -3.73396    1.000000    
    194 O1    s    0.421004 *  0.765544 *  0.666342 *  -3.73396    1.000000    
    195 O1    s    0.233918 *  0.658515 *  0.001330 *  -3.73396    1.000000    
    196 O1    s    0.653799 *  0.422305 *  0.833816 *  -3.73396    1.000000    
    197 O1    s    0.583289 *  0.233165 *  0.167063 *  -3.73396    1.000000    
    198 O1    s    0.768022 *  0.345580 *  0.499966 *  -3.73396    1.000000    
    199 O1    s    0.578516 *  0.344989 *  0.000887 *  -3.73396    1.000000    
    200 O1    s    0.767129 *  0.419261 *  0.667424 *  -3.73396    1.000000    
    201 O1    s    0.654650 *  0.231862 *  0.334678 *  -3.73396    1.000000    
    202 O1    s    0.422408 *  0.655136 *  0.499848 *  -3.73396    1.000000    
    203 O1    s    0.235856 *  0.580388 *  0.167470 *  -3.73396    1.000000    
    204 O1    s    0.343099 *  0.766744 *  0.834402 *  -3.73396    1.000000    
    205 O1    s    0.117234 *  0.212337 *  0.973127 *  -3.73396    1.000000    
    206 O1    s    0.788218 *  0.902588 *  0.306960 *  -3.73396    1.000000    
    207 O1    s    0.096605 *  0.880892 *  0.639667 *  -3.73396    1.000000    
    208 O3    s    0.894686 *  0.794633 *  0.470098 *  -3.33043    1.000000    
    209 O1    s    0.211823 *  0.096983 *  0.806249 *  -3.73396    1.000000    
    210 O3    s    0.904430 *  0.108394 *  0.137797 *  -3.33043    1.000000    
    211 O3    s    0.209104 *  0.106310 *  0.363056 *  -3.33043    1.000000    
    212 O3    s    0.896317 *  0.790585 *  0.029914 *  -3.33043    1.000000    
    213 O3    s    0.886546 *  0.097962 *  0.695074 *  -3.33043    1.000000    
    214 O3    s    0.786789 *  0.889216 *  0.861706 *  -3.33043    1.000000    
    215 O3    s    0.100756 *  0.206542 *  0.525980 *  -3.33043    1.000000    
    216 O3    s    0.112093 *  0.902850 *  0.193679 *  -3.33043    1.000000    
    217 O3    s    0.941675 *  0.875919 *  0.246452 *  -3.33043    1.000000    
    218 O3    s    0.126562 *  0.059811 *  0.577835 *  -3.33043    1.000000    
    219 O3    s    0.932578 *  0.060740 *  0.914047 *  -3.33043    1.000000    
    220 O3    s    0.063094 *  0.127019 *  0.745673 *  -3.33043    1.000000    
    221 O2    s    0.864520 *  0.932358 *  0.084188 *  -2.87073    1.000000    
    222 O2    s    0.069155 *  0.927541 *  0.416000 *  -2.87073    1.000000    
    223 O1    s    0.903323 *  0.203945 *  0.977724 *  -3.73396    1.000000    
    224 O1    s    0.799172 *  0.698182 *  0.309954 *  -3.73396    1.000000    
    225 O1    s    0.296759 *  0.100709 *  0.644822 *  -3.73396    1.000000    
    226 O3    s    0.094346 *  0.803678 *  0.478690 *  -3.33043    1.000000    
    227 O1    s    0.196997 *  0.299774 *  0.811741 *  -3.73396    1.000000    
    228 O3    s    0.715271 *  0.906101 *  0.146501 *  -3.33043    1.000000    
    229 O3    s    0.200802 *  0.905866 *  0.355242 *  -3.33043    1.000000    
    230 O3    s    0.707152 *  0.803559 *  0.023523 *  -3.33043    1.000000    
    231 O3    s    0.091748 *  0.287213 *  0.687600 *  -3.33043    1.000000    
    232 O3    s    0.799677 *  0.091985 *  0.856432 *  -3.33043    1.000000    
    233 O3    s    0.290471 *  0.195650 *  0.521763 *  -3.33043    1.000000    
    234 O3    s    0.909533 *  0.713600 *  0.188924 *  -3.33043    1.000000    
    235 O1    s    0.332397 *  0.648639 *  0.249700 *  -3.73396    1.000000    
    236 O1    s    0.351360 *  0.674414 *  0.582947 *  -3.73396    1.000000    
    237 O1    s    0.323630 *  0.679787 *  0.918323 *  -3.73396    1.000000    
    238 O1    s    0.677989 *  0.352476 *  0.751061 *  -3.73396    1.000000    
    239 O1    s    0.648955 *  0.325327 *  0.084450 *  -3.73396    1.000000    
    240 O1    s    0.670779 *  0.317648 *  0.418073 *  -3.73396    1.000000    
    241 O1    s    0.371802 *  0.338685 *  0.969507 *  -3.73396    1.000000    
    242 O1    s    0.668185 *  0.037940 *  0.299842 *  -3.73396    1.000000    
    243 O1    s    0.963904 *  0.624580 *  0.634655 *  -3.73396    1.000000    
    244 O1    s    0.633317 *  0.663257 *  0.470094 *  -3.73396    1.000000    
    245 O1    s    0.335049 *  0.965328 *  0.802308 *  -3.73396    1.000000    
    246 O1    s    0.035740 *  0.370543 *  0.136470 *  -3.73396    1.000000    
    247 O1    s    0.333473 *  0.366688 *  0.366477 *  -3.73396    1.000000    
    248 O1    s    0.033905 *  0.668697 *  0.032735 *  -3.73396    1.000000    
    249 O1    s    0.627467 *  0.964406 *  0.699156 *  -3.73396    1.000000    
    250 O1    s    0.661886 *  0.631143 *  0.865546 *  -3.73396    1.000000    
    251 O1    s    0.967859 *  0.333518 *  0.529939 *  -3.73396    1.000000    
    252 O1    s    0.372702 *  0.030753 *  0.195387 *  -3.73396    1.000000    
    253 O1    s    0.769083 *  0.301951 *  0.013146 *  -3.73396    1.000000    
    254 O1    s    0.699179 *  0.465497 *  0.346660 *  -3.73396    1.000000    
    255 O1    s    0.532398 *  0.231106 *  0.679300 *  -3.73396    1.000000    
    256 O1    s    0.228214 *  0.694517 *  0.511205 *  -3.73396    1.000000    
    257 O1    s    0.301253 *  0.534684 *  0.846471 *  -3.73396    1.000000    
    258 O1    s    0.469485 *  0.775069 *  0.176681 *  -3.73396    1.000000    
    259 O1    s    0.298420 *  0.766487 *  0.319250 *  -3.73396    1.000000    
    260 O1    s    0.466746 *  0.697410 *  0.989894 *  -3.73396    1.000000    
    261 O1    s    0.230625 *  0.528122 *  0.654132 *  -3.73396    1.000000    
    262 O1    s    0.694332 *  0.227921 *  0.822883 *  -3.73396    1.000000    
    263 O1    s    0.536415 *  0.310054 *  0.490767 *  -3.73396    1.000000    
    264 O1    s    0.774629 *  0.467410 *  0.156706 *  -3.73396    1.000000    
    265 O1    s    0.783874 *  0.533397 *  0.028779 *  -3.73396    1.000000    
    266 O1    s    0.465359 *  0.249181 *  0.360946 *  -3.73396    1.000000    
    267 O1    s    0.747325 *  0.214219 *  0.695397 *  -3.73396    1.000000    
    268 O1    s    0.216978 *  0.464627 *  0.527331 *  -3.73396    1.000000    
    269 O1    s    0.531656 *  0.751494 *  0.862872 *  -3.73396    1.000000    
    270 O1    s    0.249026 *  0.781969 *  0.196212 *  -3.73396    1.000000    
    271 O1    s    0.532265 *  0.787738 *  0.307923 *  -3.73396    1.000000    
    272 O1    s    0.249827 *  0.468338 *  0.972219 *  -3.73396    1.000000    
    273 O1    s    0.214027 *  0.743052 *  0.639268 *  -3.73396    1.000000    
    274 O1    s    0.466515 *  0.217171 *  0.804991 *  -3.73396    1.000000    
    275 O1    s    0.755160 *  0.536365 *  0.468973 *  -3.73396    1.000000    
    276 O1    s    0.787372 *  0.249486 *  0.137148 *  -3.73396    1.000000    
    277 O1    s    0.230609 *  0.328287 *  0.898376 *  -3.73396    1.000000    
    278 O1    s    0.669328 *  0.892170 *  0.232574 *  -3.73396    1.000000    
    279 O1    s    0.100365 *  0.768248 *  0.565110 *  -3.73396    1.000000    
    280 O1    s    0.764523 *  0.675597 *  0.396457 *  -3.73396    1.000000    
    281 O1    s    0.325936 *  0.096549 *  0.731214 *  -3.73396    1.000000    
    282 O1    s    0.911379 *  0.235947 *  0.064040 *  -3.73396    1.000000    
    283 O1    s    0.333210 *  0.227876 *  0.436342 *  -3.73396    1.000000    
    284 O1    s    0.900972 *  0.671394 *  0.103400 *  -3.73396    1.000000    
    285 O1    s    0.768101 *  0.098494 *  0.769728 *  -3.73396    1.000000    
    286 O1    s    0.669706 *  0.771159 *  0.936693 *  -3.73396    1.000000    
    287 O1    s    0.098650 *  0.324527 *  0.600880 *  -3.73396    1.000000    
    288 O1    s    0.236055 *  0.909473 *  0.268285 *  -3.73396    1.000000    
    289 O1    s    0.581407 *  0.562682 *  0.990354 *  -3.73396    1.000000    
    290 O1    s    0.442176 *  0.014162 *  0.323892 *  -3.73396    1.000000    
    291 O1    s    0.981042 *  0.415516 *  0.656127 *  -3.73396    1.000000    
    292 O1    s    0.418588 *  0.438911 *  0.489296 *  -3.73396    1.000000    
    293 O1    s    0.559344 *  0.978872 *  0.822915 *  -3.73396    1.000000    
    294 O1    s    0.021194 *  0.582123 *  0.157534 *  -3.73396    1.000000    
    295 O1    s    0.557695 *  0.572595 *  0.341690 *  -3.73396    1.000000    
    296 O1    s    0.018588 *  0.444987 *  0.010235 *  -3.73396    1.000000    
    297 O1    s    0.417669 *  0.980102 *  0.676909 *  -3.73396    1.000000    
    298 O1    s    0.437778 *  0.420733 *  0.844262 *  -3.73396    1.000000    
    299 O1    s    0.979810 *  0.560446 *  0.511237 *  -3.73396    1.000000    
    300 O1    s    0.592457 *  0.024420 *  0.179345 *  -3.73396    1.000000    
    301 O1    s    0.571134 *  0.152391 *  0.251075 *  -3.73396    1.000000    
    302 O1    s    0.847749 *  0.416267 *  0.583644 *  -3.73396    1.000000    
    303 O1    s    0.575608 *  0.425249 *  0.917264 *  -3.73396    1.000000    
    304 O1    s    0.419597 *  0.846058 *  0.749957 *  -3.73396    1.000000    
    305 O1    s    0.151506 *  0.578269 *  0.084331 *  -3.73396    1.000000    
    306 O1    s    0.430881 *  0.578898 *  0.416204 *  -3.73396    1.000000    
    307 F     s    0.445994 *  0.886491 *  0.247187 *  -1.56000    1.000000    
    308 F     s    0.112075 *  0.550263 *  0.582814 *  -1.56000    1.000000    
    309 F     s    0.440220 *  0.559060 *  0.916793 *  -1.56000    1.000000    
    310 F     s    0.553246 *  0.113927 *  0.749489 *  -1.56000    1.000000    
    311 F     s    0.886769 *  0.445396 *  0.083776 *  -1.56000    1.000000    
    312 F     s    0.557416 *  0.440343 *  0.415734 *  -1.56000    1.000000    
--------------------------------------------------------------------------------



********************************************************************************
*  General input information                                                   *
********************************************************************************

  Species output for all configurations : 

--------------------------------------------------------------------------------
  Species    Type    Atomic    Atomic    Charge       Radii (Angs)     Library
                     Number     Mass       (e)     Cova   Ionic  VDW   Symbol
--------------------------------------------------------------------------------
    Si       Core       14      28.09   4.000000   1.200  0.000  2.100          
    O1       Core        8      16.00   1.733957   0.730  0.000  1.360          
    O1       Shell       8       0.00  -3.733957   0.730  0.000  1.360          
    O2       Core        8      16.00   0.870733   0.730  0.000  1.360          
    O2       Shell       8       0.00  -2.870733   0.730  0.000  1.360          
    O3       Core        8      16.00   1.330431   0.730  0.000  1.360          
    O3       Shell       8       0.00  -3.330431   0.730  0.000  1.360          
    F        Core        9      19.00   0.560000   0.710  0.000  1.300          
    F        Shell       9       0.00  -1.560000   0.710  0.000  1.300          
    Ge       Core       32      72.61   4.000000   1.170  0.000  1.750          
--------------------------------------------------------------------------------


  Lattice summation method               =    Ewald          (3-D)
                                         =    Parry          (2-D)
                                         =    Saunders et al (1-D)
  Accuracy factor for lattice sums       =   12.000


  Time limit = Infinity

  Maximum range for interatomic potentials =        16.000000 Angstroms

  Taper potentials to zero over   1.0000 Angstroms using polynomial

  General interatomic potentials :

--------------------------------------------------------------------------------
Atom  Types   Potential         A         B         C         D     Cutoffs(Ang)
  1     2                                                            Min    Max 
--------------------------------------------------------------------------------
Si   c O1   s Buckingham    0.132E+04 0.318      10.1      0.00     0.000 16.000
Si   c O2   s Buckingham    0.132E+04 0.318      10.1      0.00     0.000 16.000
Si   c O3   s Buckingham    0.132E+04 0.318      10.1      0.00     0.000 16.000
Ge   c O1   s Buckingham    0.150E+04 0.326      16.8      0.00     0.000 16.000
Ge   c O2   s Buckingham    0.150E+04 0.326      16.8      0.00     0.000 16.000
Ge   c O3   s Buckingham    0.150E+04 0.326      16.8      0.00     0.000 16.000
O1   s O1   s Buckingham    0.228E+05 0.149      10.9      0.00     0.000 16.000
O1   s O2   s Buckingham    0.228E+05 0.149      10.9      0.00     0.000 16.000
O1   s O3   s Buckingham    0.228E+05 0.149      10.9      0.00     0.000 16.000
O2   s O2   s Buckingham    0.228E+05 0.149      10.9      0.00     0.000 16.000
O2   s O3   s Buckingham    0.228E+05 0.149      10.9      0.00     0.000 16.000
O3   s O3   s Buckingham    0.228E+05 0.149      10.9      0.00     0.000 16.000
Si   c F    s Buckingham     977.     0.282      0.00      0.00     0.000 16.000
Ge   c F    s Buckingham     681.     0.320      0.00      0.00     0.000 16.000
F    s F    s Buckingham     540.     0.262      0.00      0.00     0.000 16.000
O1   s F    s Buckingham    0.168E+04 0.268      0.00      0.00     0.000 16.000
O2   s F    s Buckingham    0.168E+04 0.268      0.00      0.00     0.000 16.000
O3   s F    s Buckingham    0.168E+04 0.268      0.00      0.00     0.000 16.000
O2   c O2   s Spring (c-s)   76.0      0.00      0.00      0.00     0.000  0.800
O3   c O3   s Spring (c-s)   128.      0.00      0.00      0.00     0.000  0.800
O1   c O1   s Spring (c-s)   180.      0.00      0.00      0.00     0.000  0.800
F    c F    s Spring (c-s)   33.5      0.00      0.00      0.00     0.000  0.800
--------------------------------------------------------------------------------

  General Three-body potentials :

  Harmonic form:

--------------------------------------------------------------------------------
Atom    Atom    Atom           Force Constants            Theta     Cutoffs  
  1       2       3     (eVrad**-2/eVrad**-3/eVrad**-4)   (deg)  1-2  1-3  2-3
--------------------------------------------------------------------------------
Si    c O1    s O1    s  1.261        0.0000    0.0000   109.470 0.00 0.00 0.00
                                                                 1.90 1.90 3.50
Si    c O1    s O2    s  1.261        0.0000    0.0000   109.470 0.00 0.00 0.00
                                                                 1.90 1.90 3.50
Si    c O2    s O2    s  1.261        0.0000    0.0000   109.470 0.00 0.00 0.00
                                                                 1.90 1.90 3.50
--------------------------------------------------------------------------------

********************************************************************************
*  Output for configuration   1                                                *
********************************************************************************


  Components of energy : 

--------------------------------------------------------------------------------
  Interatomic potentials     =        1936.65420063 eV
  Three-body potentials      =           0.00040028 eV
  Monopole - monopole (real) =       -5152.95955811 eV
  Monopole - monopole (recip)=       -4160.55902009 eV
  Monopole - monopole (total)=       -9313.51857820 eV
  Neutralising energy        =          -6.18674150 eV
--------------------------------------------------------------------------------
  Total lattice energy       =       -7383.05071879 eV
--------------------------------------------------------------------------------
  Total lattice energy       =         -712351.5341 kJ/(mole unit cells)
--------------------------------------------------------------------------------


  Number of variables =      939

  Maximum number of calculations  =          1000
  Maximum Hessian update interval =            10
  Maximum step size               =   1.000000000
  Maximum parameter tolerance     =   0.000010000
  Maximum function  tolerance     =   0.000010000
  Maximum gradient  tolerance     =   0.001000000
  Maximum gradient  component     =   0.010000000

  Symmetry not applied to optimisation

  Cell parameters to be optimised using strains

  RFO method to be used

  DFP hessian update to be used

  Dumpfile to be written after every cycle

  Start of bulk optimisation :

  Cycle:      0 Energy:     -7383.050719  Gnorm:      0.005424  CPU:    1.204
  ** Hessian has wrong structure
  ** Imaginary eigenvectors =   8
  ** Hessian has wrong structure
  ** Imaginary eigenvectors =   7
  Cycle:      1 Energy:     -7383.108182  Gnorm:      0.030588  CPU:    8.966
  ** Hessian has wrong structure
  ** Imaginary eigenvectors =   6
  Cycle:      2 Energy:     -7383.146005  Gnorm:      0.037120  CPU:   15.727
  ** Hessian has wrong structure
  ** Imaginary eigenvectors =   6
  ** Hessian has wrong structure
  ** Imaginary eigenvectors =   6
  Cycle:      3 Energy:     -7383.183037  Gnorm:      0.050205  CPU:   24.654
  ** Hessian has wrong structure
  ** Imaginary eigenvectors =   5
  ** Hessian has wrong structure
  ** Imaginary eigenvectors =   4
  Cycle:      4 Energy:     -7383.212075  Gnorm:      0.052421  CPU:   32.445
  ** Hessian has wrong structure
  ** Imaginary eigenvectors =   3
  ** Hessian has wrong structure
  ** Imaginary eigenvectors =   2
  Cycle:      5 Energy:     -7383.316583  Gnorm:      0.059913  CPU:   39.812
  ** Hessian has wrong structure
  ** Imaginary eigenvectors =   1
  ** Hessian has required structure
  Cycle:      6 Energy:     -7383.575324  Gnorm:      0.064752  CPU:   46.415
  ** Hessian has required structure
  Cycle:      7 Energy:     -7383.653584  Gnorm:      0.054806  CPU:   49.728
  ** Hessian has required structure
  Cycle:      8 Energy:     -7383.735656  Gnorm:      0.028317  CPU:   53.045
  ** Hessian has required structure
  Cycle:      9 Energy:     -7383.787658  Gnorm:      0.023249  CPU:   56.358
  ** Hessian has required structure
  Cycle:     10 Energy:     -7383.820596  Gnorm:      0.019870  CPU:   59.672
  ** Hessian has required structure
  Cycle:     11 Energy:     -7383.827736  Gnorm:      0.016744  CPU:   62.988
  ** Hessian has required structure
  Cycle:     12 Energy:     -7383.830974  Gnorm:      0.012984  CPU:   65.921
  ** Hessian has required structure
  Cycle:     13 Energy:     -7383.833407  Gnorm:      0.004414  CPU:   68.852
  ** Hessian has required structure
  Cycle:     14 Energy:     -7383.834058  Gnorm:      0.002998  CPU:   71.786
  ** Hessian has required structure
  Cycle:     15 Energy:     -7383.834306  Gnorm:      0.002749  CPU:   74.719
  ** Hessian has required structure
  Cycle:     16 Energy:     -7383.834486  Gnorm:      0.000020  CPU:   78.458
  ** Hessian has required structure


  **** Optimisation achieved ****


  Final energy =   -7383.83448626 eV
  Final Gnorm  =       0.00000024

  Components of energy : 

--------------------------------------------------------------------------------
  Interatomic potentials     =        1942.46044851 eV
  Three-body potentials      =           0.00037373 eV
  Monopole - monopole (real) =       -5136.39309506 eV
  Monopole - monopole (recip)=       -4183.68106841 eV
  Monopole - monopole (total)=       -9320.07416347 eV
  Neutralising energy        =          -6.22114503 eV
--------------------------------------------------------------------------------
  Total lattice energy       =       -7383.83448626 eV
--------------------------------------------------------------------------------
  Total lattice energy       =         -712427.1557 kJ/(mole unit cells)
--------------------------------------------------------------------------------

  Final fractional coordinates of atoms :

--------------------------------------------------------------------------------
   No.  Atomic        x           y          z          Radius
        Label       (Frac)      (Frac)     (Frac)       (Angs) 
--------------------------------------------------------------------------------
     1  Ge    c     0.699600    0.375700    0.033890    0.000000
     2  Ge    c     0.672019    0.334700    0.367738    0.000000
     3  Ge    c     0.711142    0.347726    0.700629    0.000000
     4  Ge    c     0.351357    0.663683    0.531223    0.000000
     5  Ge    c     0.382961    0.700805    0.865671    0.000000
     6  Ge    c     0.346911    0.694503    0.197282    0.000000
     7  Ge    c     0.412535    0.718655    0.296589    0.000000
     8  Ge    c     0.341326    0.633453    0.964583    0.000000
     9  Ge    c     0.326996    0.703830    0.630718    0.000000
    10  Ge    c     0.639518    0.314547    0.799246    0.000000
    11  Ge    c     0.713249    0.413534    0.465989    0.000000
    12  Ge    c     0.737400    0.336758    0.131814    0.000000
    13  Ge    c     0.529518    0.424613    0.968512    0.000000
    14  Ge    c     0.616114    0.114620    0.302573    0.000000
    15  Ge    c     0.930886    0.515445    0.635366    0.000000
    16  Ge    c     0.524835    0.618591    0.466088    0.000000
    17  Ge    c     0.434470    0.918691    0.799345    0.000000
    18  Ge    c     0.127813    0.523033    0.131729    0.000000
    19  Ge    c     0.467967    0.555680    0.360953    0.000000
    20  Ge    c     0.121065    0.578782    0.027303    0.000000
    21  Ge    c     0.491783    0.924441    0.694345    0.000000
    22  Ge    c     0.583273    0.478227    0.863585    0.000000
    23  Ge    c     0.932094    0.462352    0.530064    0.000000
    24  Ge    c     0.567108    0.118814    0.197375    0.000000
    25  Ge    c     0.298410    0.416059    0.852549    0.000000
    26  Ge    c     0.635879    0.896245    0.186793    0.000000
    27  Ge    c     0.150931    0.748858    0.519276    0.000000
    28  Ge    c     0.753322    0.618104    0.350716    0.000000
    29  Ge    c     0.428215    0.148007    0.685061    0.000000
    30  Ge    c     0.899601    0.294009    0.017037    0.000000
    31  Ge    c     0.441198    0.329290    0.486154    0.000000
    32  Ge    c     0.926083    0.609939    0.152192    0.000000
    33  Ge    c     0.722360    0.124191    0.819315    0.000000
    34  Ge    c     0.612218    0.714643    0.986262    0.000000
    35  Ge    c     0.137524    0.432069    0.651826    0.000000
    36  Ge    c     0.332124    0.909902    0.318480    0.000000
    37  Ge    c     0.247168    0.349686    0.956153    0.000000
    38  Ge    c     0.693829    0.905986    0.289620    0.000000
    39  Ge    c     0.138416    0.798402    0.623518    0.000000
    40  Ge    c     0.809156    0.697122    0.453763    0.000000
    41  Ge    c     0.357786    0.126432    0.788644    0.000000
    42  Ge    c     0.922050    0.238500    0.119455    0.000000
    43  Ge    c     0.388736    0.269685    0.382662    0.000000
    44  Ge    c     0.917523    0.658910    0.049322    0.000000
    45  Ge    c     0.776302    0.128657    0.715899    0.000000
    46  Ge    c     0.664912    0.764696    0.883003    0.000000
    47  Ge    c     0.135394    0.378613    0.548128    0.000000
    48  Ge    c     0.280176    0.912605    0.213783    0.000000
    49  Ge    c     0.971306    0.115715    0.967183    0.000000
    50  Ge    c     0.929000    0.867554    0.300477    0.000000
    51  Ge    c     0.180107    0.075252    0.632793    0.000000
    52  Si    c     0.081806    0.923371    0.466529    0.000000
    53  Ge    c     0.122943    0.166831    0.799934    0.000000
    54  Si    c     0.878575    0.967149    0.133768    0.000000
    55  Si    c     0.166642    0.994172    0.366896    0.000000
    56  Si    c     0.862923    0.878864    0.034407    0.000000
    57  Si    c     0.048805    0.179741    0.698648    0.000000
    58  Si    c     0.887075    0.035806    0.866041    0.000000
    59  Si    c     0.186977    0.156816    0.531191    0.000000
    60  Si    c     0.008155    0.864206    0.198915    0.000000
    61  O3    c     0.929011    0.986997    0.998947    0.000000
    62  O3    c     0.056917    0.956547    0.332474    0.000000
    63  O3    c     0.086384    0.117174    0.659978    0.000000
    64  O2    c     0.125318    0.049145    0.494125    0.000000
    65  O3    c     0.989021    0.074924    0.828136    0.000000
    66  O2    c     0.960675    0.927312    0.163119    0.000000
    67  O1    c     0.377380    0.586579    0.329321    0.000000
    68  O1    c     0.459715    0.801533    0.663054    0.000000
    69  O1    c     0.244118    0.669371    0.996589    0.000000
    70  O1    c     0.673703    0.444599    0.833130    0.000000
    71  O1    c     0.610221    0.245263    0.167299    0.000000
    72  O1    c     0.807283    0.376473    0.499381    0.000000
    73  O1    c     0.577696    0.340742    0.999489    0.000000
    74  O1    c     0.799023    0.468409    0.665927    0.000000
    75  O1    c     0.705177    0.244361    0.334213    0.000000
    76  O1    c     0.471304    0.700312    0.495732    0.000000
    77  O1    c     0.263380    0.575516    0.161008    0.000000
    78  O1    c     0.349826    0.785212    0.829328    0.000000
    79  O1    c     0.123565    0.217343    0.977309    0.000000
    80  O1    c     0.826739    0.917248    0.311484    0.000000
    81  O1    c     0.132086    0.923972    0.644778    0.000000
    82  O3    c     0.936943    0.832472    0.473774    0.000000
    83  O1    c     0.224844    0.116170    0.810065    0.000000
    84  O3    c     0.932755    0.112951    0.140037    0.000000
    85  O3    c     0.260917    0.139035    0.360448    0.000000
    86  O3    c     0.917641    0.788489    0.027058    0.000000
    87  O3    c     0.903504    0.126913    0.693217    0.000000
    88  O3    c     0.794807    0.890085    0.859941    0.000000
    89  O3    c     0.130956    0.247164    0.525064    0.000000
    90  O3    c     0.153784    0.919928    0.192174    0.000000
    91  O3    c     0.980347    0.898097    0.246723    0.000000
    92  O3    c     0.154497    0.089271    0.577708    0.000000
    93  O3    c     0.954557    0.067433    0.912866    0.000000
    94  O3    c     0.083183    0.143434    0.744770    0.000000
    95  O2    c     0.893507    0.939301    0.083000    0.000000
    96  O2    c     0.107770    0.963086    0.415526    0.000000
    97  O1    c     0.890778    0.190679    0.976568    0.000000
    98  O1    c     0.855989    0.712179    0.310410    0.000000
    99  O1    c     0.333606    0.158390    0.645171    0.000000
   100  O3    c     0.154307    0.852425    0.479545    0.000000
   101  O1    c     0.194574    0.320617    0.812478    0.000000
   102  O3    c     0.735675    0.894569    0.146495    0.000000
   103  O3    c     0.235535    0.916490    0.358530    0.000000
   104  O3    c     0.716238    0.805867    0.027373    0.000000
   105  O3    c     0.122808    0.327955    0.693081    0.000000
   106  O3    c     0.812069    0.108975    0.860373    0.000000
   107  O3    c     0.334280    0.237337    0.526122    0.000000
   108  O3    c     0.940342    0.716676    0.192774    0.000000
   109  O1    c     0.356788    0.635916    0.247112    0.000000
   110  O1    c     0.407188    0.700497    0.584023    0.000000
   111  O1    c     0.346823    0.720242    0.918390    0.000000
   112  O1    c     0.726716    0.399772    0.753808    0.000000
   113  O1    c     0.649864    0.340085    0.087235    0.000000
   114  O1    c     0.711399    0.324658    0.420801    0.000000
   115  O1    c     0.374592    0.356038    0.980174    0.000000
   116  O1    c     0.708955    0.049165    0.298233    0.000000
   117  O1    c     0.017308    0.671161    0.647352    0.000000
   118  O1    c     0.681644    0.694296    0.476385    0.000000
   119  O1    c     0.364279    0.003928    0.811516    0.000000
   120  O1    c     0.042243    0.367283    0.143978    0.000000
   121  O1    c     0.376933    0.396653    0.371793    0.000000
   122  O1    c     0.057238    0.672764    0.039401    0.000000
   123  O1    c     0.649286    0.989281    0.706192    0.000000
   124  O1    c     0.676560    0.636242    0.875167    0.000000
   125  O1    c     0.995932    0.367398    0.539788    0.000000
   126  O1    c     0.409087    0.023020    0.188297    0.000000
   127  O1    c     0.755868    0.278785    0.018365    0.000000
   128  O1    c     0.765164    0.487103    0.351011    0.000000
   129  O1    c     0.558558    0.291307    0.685319    0.000000
   130  O1    c     0.293300    0.760260    0.517212    0.000000
   131  O1    c     0.285767    0.546752    0.851658    0.000000
   132  O1    c     0.491170    0.779827    0.172981    0.000000
   133  O1    c     0.317520    0.766113    0.322505    0.000000
   134  O1    c     0.473103    0.701581    0.998548    0.000000
   135  O1    c     0.264456    0.571050    0.664193    0.000000
   136  O1    c     0.707308    0.249137    0.832625    0.000000
   137  O1    c     0.580956    0.345091    0.499400    0.000000
   138  O1    c     0.804996    0.468806    0.166071    0.000000
   139  O1    c     0.801003    0.530813    0.023913    0.000000
   140  O1    c     0.516259    0.278297    0.357997    0.000000
   141  O1    c     0.764134    0.245348    0.690964    0.000000
   142  O1    c     0.249366    0.507482    0.522482    0.000000
   143  O1    c     0.537651    0.751900    0.856836    0.000000
   144  O1    c     0.263384    0.770800    0.201985    0.000000
   145  O1    c     0.569203    0.786489    0.314648    0.000000
   146  O1    c     0.232126    0.473221    0.972067    0.000000
   147  O1    c     0.276099    0.812911    0.639429    0.000000
   148  O1    c     0.479695    0.263577    0.806093    0.000000
   149  O1    c     0.821175    0.574504    0.472565    0.000000
   150  O1    c     0.785389    0.225031    0.135375    0.000000
   151  O1    c     0.241772    0.329021    0.899618    0.000000
   152  O1    c     0.693677    0.870553    0.234406    0.000000
   153  O1    c     0.123042    0.804072    0.567079    0.000000
   154  O1    c     0.811585    0.709234    0.397221    0.000000
   155  O1    c     0.340257    0.115697    0.731990    0.000000
   156  O1    c     0.937183    0.238046    0.063033    0.000000
   157  O1    c     0.384542    0.244789    0.438286    0.000000
   158  O1    c     0.893517    0.664260    0.104739    0.000000
   159  O1    c     0.806827    0.153019    0.771439    0.000000
   160  O1    c     0.669784    0.798213    0.938250    0.000000
   161  O1    c     0.162434    0.374021    0.603458    0.000000
   162  O1    c     0.277913    0.935426    0.269608    0.000000
   163  O1    c     0.610966    0.575905    0.986865    0.000000
   164  O1    c     0.481294    0.021544    0.331021    0.000000
   165  O1    c     0.000809    0.433946    0.653124    0.000000
   166  O1    c     0.446248    0.469993    0.486853    0.000000
   167  O1    c     0.584239    0.986824    0.818615    0.000000
   168  O1    c     0.062996    0.608954    0.150192    0.000000
   169  O1    c     0.605065    0.578855    0.337735    0.000000
   170  O1    c     0.004191    0.443512    0.003670    0.000000
   171  O1    c     0.470231    0.040655    0.671801    0.000000
   172  O1    c     0.447141    0.456858    0.840004    0.000000
   173  O1    c     0.045172    0.599047    0.506548    0.000000
   174  O1    c     0.642355    0.035951    0.187575    0.000000
   175  O1    c     0.585877    0.157728    0.253017    0.000000
   176  O1    c     0.892477    0.496492    0.580814    0.000000
   177  O1    c     0.547836    0.403180    0.914069    0.000000
   178  O1    c     0.416031    0.882059    0.744635    0.000000
   179  O1    c     0.162478    0.540379    0.076912    0.000000
   180  O1    c     0.500341    0.630637    0.411486    0.000000
   181  F     c     0.474695    0.871550    0.259337    0.000000
   182  F     c     0.173713    0.612639    0.593891    0.000000
   183  F     c     0.432291    0.571136    0.927481    0.000000
   184  F     c     0.580549    0.164491    0.760614    0.000000
   185  F     c     0.884991    0.429653    0.092549    0.000000
   186  F     c     0.621266    0.470190    0.427021    0.000000
   187  O3    s     0.925890    0.986953    0.999845    0.000000
   188  O3    s     0.057381    0.952919    0.333302    0.000000
   189  O3    s     0.090568    0.119846    0.661522    0.000000
   190  O2    s     0.127090    0.046939    0.495035    0.000000
   191  O3    s     0.990201    0.078782    0.829510    0.000000
   192  O2    s     0.956920    0.924957    0.163735    0.000000
   193  O1    s     0.387145    0.592090    0.329988    0.000000
   194  O1    s     0.454275    0.805866    0.663709    0.000000
   195  O1    s     0.239787    0.659550    0.997202    0.000000
   196  O1    s     0.663951    0.439395    0.833614    0.000000
   197  O1    s     0.614222    0.239931    0.167736    0.000000
   198  O1    s     0.812104    0.386117    0.499937    0.000000
   199  O1    s     0.583330    0.349466    0.999810    0.000000
   200  O1    s     0.802056    0.462819    0.666288    0.000000
   201  O1    s     0.696253    0.241728    0.334422    0.000000
   202  O1    s     0.466284    0.691659    0.496214    0.000000
   203  O1    s     0.259798    0.580535    0.161588    0.000000
   204  O1    s     0.358485    0.788586    0.829871    0.000000
   205  O1    s     0.120789    0.219136    0.975000    0.000000
   206  O1    s     0.824904    0.912580    0.309070    0.000000
   207  O1    s     0.136263    0.926509    0.642335    0.000000
   208  O3    s     0.941596    0.831293    0.471604    0.000000
   209  O1    s     0.226588    0.120827    0.807759    0.000000
   210  O3    s     0.926635    0.108004    0.137910    0.000000
   211  O3    s     0.261311    0.134670    0.362734    0.000000
   212  O3    s     0.912203    0.787749    0.029428    0.000000
   213  O3    s     0.908028    0.132209    0.695453    0.000000
   214  O3    s     0.793968    0.894797    0.862258    0.000000
   215  O3    s     0.136691    0.248116    0.527325    0.000000
   216  O3    s     0.149084    0.914040    0.194389    0.000000
   217  O3    s     0.978981    0.892246    0.246267    0.000000
   218  O3    s     0.159881    0.095041    0.577399    0.000000
   219  O3    s     0.949150    0.068110    0.912506    0.000000
   220  O3    s     0.082909    0.148959    0.744542    0.000000
   221  O2    s     0.888681    0.935847    0.083236    0.000000
   222  O2    s     0.111272    0.962178    0.415781    0.000000
   223  O1    s     0.897574    0.192044    0.978635    0.000000
   224  O1    s     0.854500    0.717568    0.312426    0.000000
   225  O1    s     0.328391    0.151317    0.646972    0.000000
   226  O3    s     0.146934    0.851761    0.481187    0.000000
   227  O1    s     0.196223    0.315331    0.814280    0.000000
   228  O3    s     0.742484    0.901844    0.148165    0.000000
   229  O3    s     0.236109    0.923476    0.356343    0.000000
   230  O3    s     0.722661    0.806134    0.025008    0.000000
   231  O3    s     0.116925    0.321686    0.690572    0.000000
   232  O3    s     0.812508    0.103200    0.857894    0.000000
   233  O3    s     0.328180    0.236504    0.523662    0.000000
   234  O3    s     0.945829    0.723036    0.190420    0.000000
   235  O1    s     0.359907    0.646029    0.246650    0.000000
   236  O1    s     0.397430    0.697796    0.583249    0.000000
   237  O1    s     0.349344    0.712981    0.917539    0.000000
   238  O1    s     0.719721    0.390001    0.752860    0.000000
   239  O1    s     0.659611    0.342697    0.086243    0.000000
   240  O1    s     0.708346    0.331405    0.419769    0.000000
   241  O1    s     0.376523    0.360721    0.977519    0.000000
   242  O1    s     0.700956    0.043172    0.297871    0.000000
   243  O1    s     0.020106    0.669239    0.644691    0.000000
   244  O1    s     0.679701    0.688974    0.473980    0.000000
   245  O1    s     0.369071    0.006902    0.808905    0.000000
   246  O1    s     0.039605    0.369185    0.141315    0.000000
   247  O1    s     0.383987    0.397134    0.371959    0.000000
   248  O1    s     0.050438    0.665319    0.039399    0.000000
   249  O1    s     0.648777    0.996035    0.706190    0.000000
   250  O1    s     0.669271    0.635773    0.875033    0.000000
   251  O1    s     0.002634    0.374739    0.539809    0.000000
   252  O1    s     0.409826    0.020880    0.190914    0.000000
   253  O1    s     0.762778    0.286700    0.019396    0.000000
   254  O1    s     0.757744    0.486356    0.352200    0.000000
   255  O1    s     0.559587    0.284594    0.686421    0.000000
   256  O1    s     0.286711    0.752708    0.518377    0.000000
   257  O1    s     0.293570    0.547780    0.852760    0.000000
   258  O1    s     0.492015    0.782709    0.175748    0.000000
   259  O1    s     0.324958    0.773828    0.320409    0.000000
   260  O1    s     0.475076    0.697974    0.995337    0.000000
   261  O1    s     0.258735    0.569130    0.661016    0.000000
   262  O1    s     0.703889    0.243725    0.829376    0.000000
   263  O1    s     0.578918    0.348500    0.496155    0.000000
   264  O1    s     0.810015    0.471006    0.162741    0.000000
   265  O1    s     0.802546    0.529246    0.026541    0.000000
   266  O1    s     0.517848    0.281690    0.360503    0.000000
   267  O1    s     0.761127    0.243840    0.693543    0.000000
   268  O1    s     0.248025    0.508996    0.525029    0.000000
   269  O1    s     0.536101    0.749075    0.859453    0.000000
   270  O1    s     0.270753    0.776281    0.202598    0.000000
   271  O1    s     0.569099    0.791263    0.311768    0.000000
   272  O1    s     0.239835    0.473752    0.970467    0.000000
   273  O1    s     0.268943    0.805228    0.637753    0.000000
   274  O1    s     0.480355    0.256469    0.804404    0.000000
   275  O1    s     0.813627    0.573893    0.470763    0.000000
   276  O1    s     0.792900    0.233271    0.133877    0.000000
   277  O1    s     0.246335    0.336856    0.900191    0.000000
   278  O1    s     0.689315    0.874864    0.234795    0.000000
   279  O1    s     0.126218    0.799440    0.567554    0.000000
   280  O1    s     0.807127    0.701725    0.397980    0.000000
   281  O1    s     0.347922    0.118786    0.732612    0.000000
   282  O1    s     0.933437    0.242139    0.063815    0.000000
   283  O1    s     0.389105    0.252875    0.437610    0.000000
   284  O1    s     0.897567    0.659823    0.104065    0.000000
   285  O1    s     0.798580    0.149268    0.770812    0.000000
   286  O1    s     0.665268    0.789844    0.937650    0.000000
   287  O1    s     0.158776    0.378536    0.602833    0.000000
   288  O1    s     0.282076    0.931897    0.269058    0.000000
   289  O1    s     0.605000    0.575146    0.985454    0.000000
   290  O1    s     0.480059    0.019952    0.328072    0.000000
   291  O1    s     0.005870    0.439912    0.651694    0.000000
   292  O1    s     0.451697    0.470409    0.485275    0.000000
   293  O1    s     0.583520    0.992107    0.817239    0.000000
   294  O1    s     0.057407    0.602655    0.148949    0.000000
   295  O1    s     0.606762    0.580166    0.340332    0.000000
   296  O1    s     0.004322    0.441596    0.006340    0.000000
   297  O1    s     0.468631    0.040759    0.674382    0.000000
   298  O1    s     0.445386    0.455343    0.842611    0.000000
   299  O1    s     0.045372    0.600866    0.509187    0.000000
   300  O1    s     0.636348    0.030802    0.188263    0.000000
   301  O1    s     0.586864    0.151632    0.252981    0.000000
   302  O1    s     0.898267    0.495588    0.581394    0.000000
   303  O1    s     0.548880    0.410076    0.914651    0.000000
   304  O1    s     0.422753    0.887880    0.745278    0.000000
   305  O1    s     0.156864    0.541701    0.077585    0.000000
   306  O1    s     0.499954    0.624361    0.412079    0.000000
   307  F     s     0.472170    0.864837    0.260980    0.000000
   308  F     s     0.180436    0.616776    0.595581    0.000000
   309  F     s     0.428185    0.573682    0.929131    0.000000
   310  F     s     0.583000    0.171113    0.762354    0.000000
   311  F     s     0.878570    0.425608    0.094241    0.000000
   312  F     s     0.625432    0.467818    0.428757    0.000000
--------------------------------------------------------------------------------

  Final Cartesian lattice vectors (Angstroms) :

       12.494251    0.023853    0.003636
       -6.223854   10.775437   -0.009027
       -0.061125   -0.081086   30.378869


  Final cell parameters and derivatives :

--------------------------------------------------------------------------------
       a           12.494275 Angstrom     dE/de1(xx)     0.000002 eV/strain
       b           12.443733 Angstrom     dE/de2(yy)     0.000015 eV/strain
       c           30.379038 Angstrom     dE/de3(zz)     0.000036 eV/strain
       alpha       90.116330 Degrees      dE/de4(yz)     0.000003 eV/strain
       beta        90.098900 Degrees      dE/de5(xz)     0.000002 eV/strain
       gamma      119.901193 Degrees      dE/de6(xy)    -0.000016 eV/strain
--------------------------------------------------------------------------------

  Primitive cell volume =          4094.443252 Angs**3

  Density of cell =      2.447361 g/cm**3

  Non-primitive cell volume =          4094.443252 Angs**3


  Final internal derivatives :

--------------------------------------------------------------------------------
   No.  Atomic          a             b             c           Radius
        Label          (eV)          (eV)          (eV)        (eV/Angs)
--------------------------------------------------------------------------------
      1 Ge    c       0.000000      0.000000      0.000000      0.000000
      2 Ge    c      -0.000003      0.000004      0.000013      0.000000
      3 Ge    c      -0.000004      0.000000      0.000002      0.000000
      4 Ge    c      -0.000001      0.000000     -0.000012      0.000000
      5 Ge    c       0.000007     -0.000006     -0.000004      0.000000
      6 Ge    c       0.000003      0.000000     -0.000030      0.000000
      7 Ge    c       0.000006      0.000004      0.000024      0.000000
      8 Ge    c      -0.000002      0.000002      0.000005      0.000000
      9 Ge    c       0.000003     -0.000001      0.000019      0.000000
     10 Ge    c      -0.000007      0.000014      0.000007      0.000000
     11 Ge    c       0.000009     -0.000010     -0.000003      0.000000
     12 Ge    c       0.000010     -0.000001     -0.000039      0.000000
     13 Ge    c      -0.000005      0.000003     -0.000003      0.000000
     14 Ge    c      -0.000001     -0.000003      0.000015      0.000000
     15 Ge    c       0.000005      0.000000     -0.000018      0.000000
     16 Ge    c       0.000001      0.000003      0.000005      0.000000
     17 Ge    c       0.000001     -0.000004      0.000003      0.000000
     18 Ge    c      -0.000001      0.000000      0.000009      0.000000
     19 Ge    c       0.000003     -0.000000     -0.000017      0.000000
     20 Ge    c      -0.000005      0.000002      0.000007      0.000000
     21 Ge    c       0.000002      0.000003     -0.000004      0.000000
     22 Ge    c      -0.000002      0.000001     -0.000002      0.000000
     23 Ge    c      -0.000005      0.000002      0.000009      0.000000
     24 Ge    c      -0.000003      0.000000      0.000002      0.000000
     25 Ge    c       0.000004     -0.000000     -0.000007      0.000000
     26 Ge    c      -0.000003     -0.000003     -0.000012      0.000000
     27 Ge    c       0.000001     -0.000004     -0.000015      0.000000
     28 Ge    c      -0.000004      0.000001     -0.000006      0.000000
     29 Ge    c       0.000004     -0.000000     -0.000009      0.000000
     30 Ge    c      -0.000005      0.000004      0.000012      0.000000
     31 Ge    c      -0.000001     -0.000002      0.000016      0.000000
     32 Ge    c       0.000006     -0.000002     -0.000012      0.000000
     33 Ge    c       0.000002     -0.000005      0.000004      0.000000
     34 Ge    c      -0.000000     -0.000007      0.000006      0.000000
     35 Ge    c      -0.000011      0.000008      0.000006      0.000000
     36 Ge    c       0.000005     -0.000000      0.000006      0.000000
     37 Ge    c       0.000003     -0.000003      0.000016      0.000000
     38 Ge    c      -0.000006     -0.000000      0.000014      0.000000
     39 Ge    c       0.000000     -0.000008      0.000022      0.000000
     40 Ge    c      -0.000002      0.000006      0.000007      0.000000
     41 Ge    c      -0.000003      0.000005      0.000006      0.000000
     42 Ge    c      -0.000000      0.000002      0.000006      0.000000
     43 Ge    c       0.000004     -0.000003     -0.000017      0.000000
     44 Ge    c       0.000004     -0.000002      0.000003      0.000000
     45 Ge    c       0.000001     -0.000003     -0.000012      0.000000
     46 Ge    c      -0.000000      0.000002     -0.000013      0.000000
     47 Ge    c      -0.000005      0.000003      0.000004      0.000000
     48 Ge    c      -0.000002      0.000004     -0.000020      0.000000
     49 Ge    c      -0.000001      0.000004     -0.000016      0.000000
     50 Ge    c      -0.000004      0.000005      0.000006      0.000000
     51 Ge    c       0.000002      0.000002      0.000010      0.000000
     52 Si    c      -0.000003      0.000000      0.000004      0.000000
     53 Ge    c      -0.000002     -0.000001      0.000007      0.000000
     54 Si    c      -0.000004      0.000001      0.000001      0.000000
     55 Si    c      -0.000003      0.000002     -0.000004      0.000000
     56 Si    c      -0.000002      0.000001      0.000012      0.000000
     57 Si    c      -0.000004      0.000001     -0.000005      0.000000
     58 Si    c       0.000005     -0.000005     -0.000002      0.000000
     59 Si    c       0.000003     -0.000000     -0.000009      0.000000
     60 Si    c       0.000004     -0.000000      0.000012      0.000000
     61 O3    c       0.000003     -0.000007      0.000013      0.000000
     62 O3    c       0.000002     -0.000002     -0.000001      0.000000
     63 O3    c       0.000001     -0.000001     -0.000000      0.000000
     64 O2    c      -0.000000     -0.000001     -0.000003      0.000000
     65 O3    c       0.000001      0.000003      0.000005      0.000000
     66 O2    c      -0.000001      0.000002     -0.000003      0.000000
     67 O1    c       0.000007     -0.000007      0.000019      0.000000
     68 O1    c      -0.000001     -0.000003     -0.000012      0.000000
     69 O1    c       0.000001      0.000003     -0.000009      0.000000
     70 O1    c      -0.000001      0.000006      0.000005      0.000000
     71 O1    c      -0.000001      0.000004     -0.000011      0.000000
     72 O1    c       0.000011     -0.000006      0.000015      0.000000
     73 O1    c       0.000009     -0.000008      0.000016      0.000000
     74 O1    c      -0.000004      0.000003      0.000003      0.000000
     75 O1    c       0.000005     -0.000004     -0.000009      0.000000
     76 O1    c       0.000002      0.000001     -0.000002      0.000000
     77 O1    c      -0.000003      0.000000     -0.000005      0.000000
     78 O1    c      -0.000006      0.000010     -0.000020      0.000000
     79 O1    c       0.000011      0.000001      0.000017      0.000000
     80 O1    c       0.000014     -0.000010      0.000000      0.000000
     81 O1    c      -0.000002      0.000002      0.000009      0.000000
     82 O3    c       0.000002      0.000000     -0.000002      0.000000
     83 O1    c       0.000004     -0.000002      0.000001      0.000000
     84 O3    c       0.000003     -0.000003      0.000005      0.000000
     85 O3    c      -0.000000      0.000001     -0.000001      0.000000
     86 O3    c       0.000004     -0.000002     -0.000007      0.000000
     87 O3    c       0.000002     -0.000001      0.000001      0.000000
     88 O3    c      -0.000002     -0.000001      0.000004      0.000000
     89 O3    c      -0.000001     -0.000001     -0.000004      0.000000
     90 O3    c      -0.000003     -0.000002      0.000006      0.000000
     91 O3    c       0.000004     -0.000001     -0.000015      0.000000
     92 O3    c      -0.000002     -0.000002     -0.000001      0.000000
     93 O3    c      -0.000001      0.000001     -0.000008      0.000000
     94 O3    c       0.000000     -0.000001      0.000004      0.000000
     95 O2    c       0.000000     -0.000001     -0.000004      0.000000
     96 O2    c      -0.000000      0.000001     -0.000006      0.000000
     97 O1    c      -0.000009      0.000002     -0.000015      0.000000
     98 O1    c       0.000001     -0.000001      0.000002      0.000000
     99 O1    c      -0.000006      0.000002     -0.000009      0.000000
    100 O3    c       0.000001      0.000002     -0.000004      0.000000
    101 O1    c      -0.000001      0.000001     -0.000000      0.000000
    102 O3    c       0.000007     -0.000001     -0.000006      0.000000
    103 O3    c       0.000000     -0.000002      0.000005      0.000000
    104 O3    c      -0.000001      0.000001      0.000006      0.000000
    105 O3    c       0.000002     -0.000003      0.000009      0.000000
    106 O3    c      -0.000003      0.000003      0.000002      0.000000
    107 O3    c      -0.000001      0.000001     -0.000005      0.000000
    108 O3    c      -0.000001      0.000004      0.000008      0.000000
    109 O1    c       0.000004     -0.000013     -0.000006      0.000000
    110 O1    c       0.000004      0.000001      0.000014      0.000000
    111 O1    c      -0.000004      0.000003      0.000020      0.000000
    112 O1    c       0.000002     -0.000002      0.000010      0.000000
    113 O1    c      -0.000004      0.000001      0.000012      0.000000
    114 O1    c      -0.000008      0.000009      0.000015      0.000000
    115 O1    c       0.000001      0.000001     -0.000007      0.000000
    116 O1    c       0.000002     -0.000000     -0.000001      0.000000
    117 O1    c       0.000002     -0.000008     -0.000038      0.000000
    118 O1    c       0.000005     -0.000002     -0.000005      0.000000
    119 O1    c      -0.000000     -0.000000      0.000013      0.000000
    120 O1    c       0.000000      0.000006     -0.000003      0.000000
    121 O1    c      -0.000003      0.000003     -0.000006      0.000000
    122 O1    c       0.000004     -0.000004      0.000003      0.000000
    123 O1    c      -0.000006     -0.000000     -0.000009      0.000000
    124 O1    c       0.000001     -0.000005      0.000010      0.000000
    125 O1    c       0.000011     -0.000005      0.000004      0.000000
    126 O1    c      -0.000001     -0.000002      0.000013      0.000000
    127 O1    c       0.000018     -0.000016      0.000004      0.000000
    128 O1    c       0.000003     -0.000002      0.000005      0.000000
    129 O1    c      -0.000001     -0.000002      0.000005      0.000000
    130 O1    c       0.000006     -0.000005     -0.000000      0.000000
    131 O1    c      -0.000002      0.000001      0.000002      0.000000
    132 O1    c      -0.000006      0.000001      0.000017      0.000000
    133 O1    c      -0.000002      0.000001      0.000007      0.000000
    134 O1    c       0.000010     -0.000007     -0.000004      0.000000
    135 O1    c      -0.000001      0.000005     -0.000011      0.000000
    136 O1    c       0.000004      0.000001      0.000023      0.000000
    137 O1    c      -0.000000     -0.000001      0.000004      0.000000
    138 O1    c      -0.000009      0.000015      0.000019      0.000000
    139 O1    c       0.000001     -0.000006      0.000001      0.000000
    140 O1    c      -0.000004      0.000003      0.000004      0.000000
    141 O1    c       0.000001      0.000000     -0.000010      0.000000
    142 O1    c       0.000001     -0.000002      0.000007      0.000000
    143 O1    c      -0.000008      0.000001      0.000007      0.000000
    144 O1    c      -0.000001     -0.000001      0.000002      0.000000
    145 O1    c      -0.000008      0.000014     -0.000036      0.000000
    146 O1    c      -0.000002      0.000004     -0.000000      0.000000
    147 O1    c      -0.000011      0.000004     -0.000010      0.000000
    148 O1    c       0.000002     -0.000002     -0.000010      0.000000
    149 O1    c       0.000001     -0.000007      0.000004      0.000000
    150 O1    c       0.000003     -0.000009      0.000005      0.000000
    151 O1    c       0.000000     -0.000004     -0.000027      0.000000
    152 O1    c       0.000006     -0.000008     -0.000003      0.000000
    153 O1    c      -0.000006      0.000008      0.000017      0.000000
    154 O1    c      -0.000000      0.000004      0.000004      0.000000
    155 O1    c      -0.000006     -0.000000      0.000007      0.000000
    156 O1    c       0.000002     -0.000001     -0.000017      0.000000
    157 O1    c       0.000001     -0.000006      0.000005      0.000000
    158 O1    c       0.000011     -0.000011      0.000048      0.000000
    159 O1    c       0.000004     -0.000001      0.000017      0.000000
    160 O1    c       0.000000     -0.000001      0.000035      0.000000
    161 O1    c      -0.000001      0.000001     -0.000021      0.000000
    162 O1    c      -0.000004      0.000005      0.000016      0.000000
    163 O1    c      -0.000010      0.000021     -0.000018      0.000000
    164 O1    c       0.000000     -0.000000     -0.000008      0.000000
    165 O1    c       0.000005      0.000004     -0.000028      0.000000
    166 O1    c      -0.000003      0.000000      0.000006      0.000000
    167 O1    c       0.000006      0.000002      0.000009      0.000000
    168 O1    c      -0.000015      0.000006     -0.000010      0.000000
    169 O1    c      -0.000002      0.000001      0.000010      0.000000
    170 O1    c      -0.000000      0.000003      0.000005      0.000000
    171 O1    c       0.000002     -0.000001     -0.000002      0.000000
    172 O1    c      -0.000007      0.000002      0.000001      0.000000
    173 O1    c      -0.000005     -0.000000      0.000020      0.000000
    174 O1    c       0.000002      0.000004     -0.000001      0.000000
    175 O1    c      -0.000006      0.000006     -0.000027      0.000000
    176 O1    c       0.000014     -0.000008      0.000033      0.000000
    177 O1    c       0.000003     -0.000002      0.000004      0.000000
    178 O1    c      -0.000001     -0.000001     -0.000006      0.000000
    179 O1    c      -0.000003     -0.000003      0.000006      0.000000
    180 O1    c      -0.000000      0.000004     -0.000003      0.000000
    181 F     c       0.000002      0.000002      0.000007      0.000000
    182 F     c      -0.000001      0.000001     -0.000002      0.000000
    183 F     c       0.000001     -0.000002     -0.000007      0.000000
    184 F     c      -0.000001     -0.000003     -0.000016      0.000000
    185 F     c      -0.000007     -0.000002     -0.000005      0.000000
    186 F     c      -0.000004      0.000003     -0.000021      0.000000
    187 O3    s       0.000000     -0.000001     -0.000004      0.000000
    188 O3    s      -0.000003      0.000002      0.000000      0.000000
    189 O3    s      -0.000001      0.000000     -0.000000      0.000000
    190 O2    s      -0.000000      0.000001     -0.000002      0.000000
    191 O3    s      -0.000001     -0.000003     -0.000003      0.000000
    192 O2    s       0.000002     -0.000003     -0.000002      0.000000
    193 O1    s      -0.000007      0.000005     -0.000017      0.000000
    194 O1    s       0.000002     -0.000002      0.000010      0.000000
    195 O1    s       0.000001     -0.000006      0.000010      0.000000
    196 O1    s       0.000004     -0.000004     -0.000003      0.000000
    197 O1    s       0.000001     -0.000002      0.000004      0.000000
    198 O1    s      -0.000004      0.000004      0.000000      0.000000
    199 O1    s      -0.000002      0.000005     -0.000012      0.000000
    200 O1    s       0.000006      0.000001     -0.000014      0.000000
    201 O1    s      -0.000002      0.000002      0.000005      0.000000
    202 O1    s      -0.000002      0.000000      0.000000      0.000000
    203 O1    s       0.000002     -0.000002      0.000001      0.000000
    204 O1    s       0.000003     -0.000005      0.000009      0.000000
    205 O1    s       0.000002     -0.000005     -0.000005      0.000000
    206 O1    s      -0.000006      0.000005      0.000005      0.000000
    207 O1    s       0.000002     -0.000003     -0.000002      0.000000
    208 O3    s      -0.000001     -0.000001      0.000002      0.000000
    209 O1    s      -0.000002      0.000000      0.000001      0.000000
    210 O3    s      -0.000002      0.000000     -0.000002      0.000000
    211 O3    s      -0.000000     -0.000000     -0.000002      0.000000
    212 O3    s      -0.000002      0.000000     -0.000001      0.000000
    213 O3    s       0.000001     -0.000001     -0.000004      0.000000
    214 O3    s       0.000001      0.000001     -0.000007      0.000000
    215 O3    s      -0.000001      0.000004      0.000003      0.000000
    216 O3    s      -0.000001     -0.000001     -0.000004      0.000000
    217 O3    s      -0.000000     -0.000000      0.000007      0.000000
    218 O3    s       0.000002      0.000001      0.000002      0.000000
    219 O3    s       0.000001     -0.000004     -0.000005      0.000000
    220 O3    s      -0.000000      0.000000     -0.000003      0.000000
    221 O2    s       0.000000      0.000001      0.000005      0.000000
    222 O2    s      -0.000001      0.000000      0.000001      0.000000
    223 O1    s      -0.000005      0.000006      0.000006      0.000000
    224 O1    s      -0.000000      0.000001     -0.000006      0.000000
    225 O1    s       0.000003     -0.000000      0.000001      0.000000
    226 O3    s      -0.000001     -0.000001     -0.000000      0.000000
    227 O1    s      -0.000001      0.000001     -0.000002      0.000000
    228 O3    s      -0.000002      0.000000     -0.000002      0.000000
    229 O3    s       0.000000      0.000001      0.000002      0.000000
    230 O3    s      -0.000003     -0.000002     -0.000004      0.000000
    231 O3    s      -0.000002      0.000003     -0.000003      0.000000
    232 O3    s       0.000000     -0.000002     -0.000003      0.000000
    233 O3    s       0.000001      0.000000      0.000004      0.000000
    234 O3    s       0.000004     -0.000003     -0.000011      0.000000
    235 O1    s      -0.000003      0.000011      0.000005      0.000000
    236 O1    s      -0.000006     -0.000001     -0.000011      0.000000
    237 O1    s       0.000002      0.000001     -0.000007      0.000000
    238 O1    s       0.000000      0.000006     -0.000009      0.000000
    239 O1    s      -0.000002      0.000001     -0.000008      0.000000
    240 O1    s       0.000012     -0.000014     -0.000011      0.000000
    241 O1    s       0.000001      0.000001      0.000003      0.000000
    242 O1    s       0.000000     -0.000001      0.000000      0.000000
    243 O1    s       0.000005     -0.000007      0.000006      0.000000
    244 O1    s      -0.000002     -0.000002      0.000000      0.000000
    245 O1    s       0.000001      0.000000     -0.000006      0.000000
    246 O1    s       0.000001     -0.000002      0.000001      0.000000
    247 O1    s       0.000001     -0.000002      0.000010      0.000000
    248 O1    s      -0.000000      0.000002     -0.000007      0.000000
    249 O1    s       0.000006     -0.000004      0.000007      0.000000
    250 O1    s       0.000002      0.000002     -0.000014      0.000000
    251 O1    s      -0.000005      0.000009     -0.000003      0.000000
    252 O1    s      -0.000000      0.000001     -0.000013      0.000000
    253 O1    s      -0.000010      0.000009     -0.000016      0.000000
    254 O1    s      -0.000000      0.000001     -0.000012      0.000000
    255 O1    s      -0.000002      0.000005     -0.000010      0.000000
    256 O1    s      -0.000002      0.000001      0.000001      0.000000
    257 O1    s       0.000001     -0.000003     -0.000005      0.000000
    258 O1    s       0.000005     -0.000003     -0.000015      0.000000
    259 O1    s       0.000002     -0.000003     -0.000007      0.000000
    260 O1    s      -0.000002     -0.000000     -0.000002      0.000000
    261 O1    s      -0.000000     -0.000005      0.000004      0.000000
    262 O1    s      -0.000002     -0.000005     -0.000012      0.000000
    263 O1    s      -0.000004      0.000002      0.000006      0.000000
    264 O1    s       0.000011     -0.000012     -0.000019      0.000000
    265 O1    s      -0.000005      0.000006     -0.000006      0.000000
    266 O1    s       0.000002     -0.000003     -0.000005      0.000000
    267 O1    s       0.000001      0.000001      0.000000      0.000000
    268 O1    s      -0.000005      0.000001      0.000001      0.000000
    269 O1    s       0.000006      0.000001     -0.000012      0.000000
    270 O1    s      -0.000001      0.000002     -0.000001      0.000000
    271 O1    s       0.000010     -0.000017      0.000040      0.000000
    272 O1    s      -0.000001      0.000001      0.000001      0.000000
    273 O1    s       0.000003     -0.000001      0.000005      0.000000
    274 O1    s      -0.000004     -0.000001      0.000009      0.000000
    275 O1    s      -0.000002      0.000009     -0.000005      0.000000
    276 O1    s      -0.000005      0.000010      0.000002      0.000000
    277 O1    s       0.000001      0.000004      0.000015      0.000000
    278 O1    s      -0.000004      0.000004      0.000001      0.000000
    279 O1    s       0.000007     -0.000004     -0.000000      0.000000
    280 O1    s      -0.000000     -0.000003      0.000006      0.000000
    281 O1    s       0.000003      0.000000      0.000005      0.000000
    282 O1    s      -0.000001      0.000000      0.000007      0.000000
    283 O1    s       0.000000      0.000004      0.000001      0.000000
    284 O1    s      -0.000005      0.000005     -0.000011      0.000000
    285 O1    s      -0.000003      0.000001     -0.000001      0.000000
    286 O1    s      -0.000004      0.000001     -0.000007      0.000000
    287 O1    s      -0.000003      0.000005      0.000008      0.000000
    288 O1    s       0.000003     -0.000003     -0.000014      0.000000
    289 O1    s       0.000003     -0.000008      0.000004      0.000000
    290 O1    s      -0.000002      0.000001      0.000011      0.000000
    291 O1    s      -0.000007      0.000008     -0.000001      0.000000
    292 O1    s       0.000005     -0.000002     -0.000007      0.000000
    293 O1    s      -0.000004      0.000002     -0.000007      0.000000
    294 O1    s       0.000003     -0.000003     -0.000001      0.000000
    295 O1    s       0.000002      0.000001     -0.000014      0.000000
    296 O1    s       0.000001     -0.000003     -0.000008      0.000000
    297 O1    s      -0.000002      0.000000     -0.000005      0.000000
    298 O1    s       0.000001      0.000001     -0.000003      0.000000
    299 O1    s       0.000001     -0.000004     -0.000001      0.000000
    300 O1    s      -0.000001     -0.000001     -0.000000      0.000000
    301 O1    s       0.000002     -0.000002      0.000016      0.000000
    302 O1    s       0.000004      0.000001     -0.000009      0.000000
    303 O1    s      -0.000002      0.000001      0.000006      0.000000
    304 O1    s       0.000001      0.000000      0.000009      0.000000
    305 O1    s       0.000001      0.000003      0.000001      0.000000
    306 O1    s      -0.000000     -0.000002      0.000006      0.000000
    307 F     s      -0.000004     -0.000002     -0.000012      0.000000
    308 F     s       0.000000     -0.000002     -0.000004      0.000000
    309 F     s       0.000002      0.000001      0.000006      0.000000
    310 F     s       0.000002     -0.000008      0.000005      0.000000
    311 F     s      -0.000001      0.000001      0.000039      0.000000
    312 F     s      -0.000008      0.000009      0.000011      0.000000
--------------------------------------------------------------------------------
  Maximum abs         0.000018      0.000021      0.000048      0.000000
--------------------------------------------------------------------------------


  Time to end of optimisation =      81.3958 seconds


  Peak dynamic memory used =      19.13 MB 


  Timing analysis for GULP :

--------------------------------------------------------------------------------
  Task / Subroutine                                          Time (Seconds)
--------------------------------------------------------------------------------
  Calculation of reciprocal space energy and derivatives          2.6874
  Calculation of real space energy and derivatives               48.5529
  Calculation of three-body energy and derivatives                0.6277
--------------------------------------------------------------------------------
  Total CPU time                                                 81.3958
--------------------------------------------------------------------------------


  Dump file written as 52.1.res                                                
  CIF file written as 52.1.cif                                                


  Job Finished at 23:17.05  5th January    2017                               

