********************************************************************************
*                       GENERAL UTILITY LATTICE PROGRAM                        *
*                                 Julian Gale                                  *
*                      Nanochemistry Research Institute                        *
*                           Department of Chemistry                            *
*                    Curtin University, Western Australia                      *
********************************************************************************
* Version = 4.2.0 * Last modified =  20th January 2014                         *
********************************************************************************
*  optimise     - perform optimisation run                                     *
*  conp         - constant pressure calculation                                *
*  qok          - running with non charge neutral cell is OK                   *
*  rfo          - optimisation step to be determined by RFO method             *
********************************************************************************

  Job Started  at 14:28.57 18th December   2016                               

  Number of CPUs =     1


  Total number of configurations input =   1

********************************************************************************
*  Input for Configuration =   1                                               *
********************************************************************************

  Formula = Ge8Si52O120F6                                               

  Number of irreducible atoms/shells =     312


  Total number atoms/shells =     312

  Dimensionality = 3               :  Bulk   


  Charge on solid   =  -6.000000 =>neutralising background added


  Cartesian lattice vectors (Angstroms) :

       12.043824    0.000000    0.000000
       -6.024477   10.429975    0.000000
        0.164768    0.109811   29.598028

  Cell parameters (Angstroms/Degrees):

  a =      12.0438    alpha =  89.9755
  b =      12.0449    beta  =  89.6810
  c =      29.5987    gamma = 120.0112

  Initial cell volume =        3718.009003 Angs**3

  Temperature of configuration =  0.000     K 

  Pressure of configuration =         0.000 GPa 

  Fractional coordinates of asymmetric unit :

--------------------------------------------------------------------------------
   No.  Atomic       x           y          z         Charge      Occupancy
        Label      (Frac)      (Frac)     (Frac)        (e)         (Frac)  
--------------------------------------------------------------------------------
      1 Ge    c    0.699600    0.375700    0.033890     4.00000    1.000000    
      2 Ge    c    0.618123 *  0.328197 *  0.368950 *   4.00000    1.000000    
      3 Ge    c    0.666215 *  0.281733 *  0.702871 *   4.00000    1.000000    
      4 Si    c    0.301933 *  0.625970 *  0.527954 *   4.00000    1.000000    
      5 Si    c    0.370459 *  0.681738 *  0.860889 *   4.00000    1.000000    
      6 Si    c    0.324948 *  0.694353 *  0.194426 *   4.00000    1.000000    
      7 Ge    c    0.391382 *  0.717865 *  0.292338 *   4.00000    1.000000    
      8 Ge    c    0.326940 *  0.612483 *  0.958806 *   4.00000    1.000000    
      9 Ge    c    0.280004 *  0.670186 *  0.626143 *   4.00000    1.000000    
     10 Si    c    0.622583 *  0.306271 *  0.800656 *   4.00000    1.000000    
     11 Ge    c    0.678268 *  0.377673 *  0.467479 *   4.00000    1.000000    
     12 Ge    c    0.708659 *  0.324263 *  0.131623 *   4.00000    1.000000    
     13 Si    c    0.519735 *  0.416125 *  0.970125 *   4.00000    1.000000    
     14 Si    c    0.586955 *  0.110318 *  0.304866 *   4.00000    1.000000    
     15 Si    c    0.888410 *  0.473003 *  0.641474 *   4.00000    1.000000    
     16 Si    c    0.465404 *  0.581025 *  0.459470 *   4.00000    1.000000    
     17 Si    c    0.417527 *  0.889373 *  0.792498 *   4.00000    1.000000    
     18 Si    c    0.115621 *  0.531229 *  0.127185 *   4.00000    1.000000    
     19 Si    c    0.418433 *  0.528536 *  0.356355 *   4.00000    1.000000    
     20 Si    c    0.110444 *  0.580663 *  0.024259 *   4.00000    1.000000    
     21 Si    c    0.469004 *  0.888810 *  0.689260 *   4.00000    1.000000    
     22 Si    c    0.575204 *  0.469748 *  0.867264 *   4.00000    1.000000    
     23 Si    c    0.883659 *  0.418588 *  0.538203 *   4.00000    1.000000    
     24 Si    c    0.538117 *  0.114191 *  0.201403 *   4.00000    1.000000    
     25 Si    c    0.292538 *  0.397651 *  0.850793 *   4.00000    1.000000    
     26 Si    c    0.609386 *  0.901976 *  0.185360 *   4.00000    1.000000    
     27 Si    c    0.093022 *  0.701700 *  0.519839 *   4.00000    1.000000    
     28 Si    c    0.706029 *  0.600861 *  0.345561 *   4.00000    1.000000    
     29 Si    c    0.397357 *  0.103974 *  0.677801 *   4.00000    1.000000    
     30 Si    c    0.894806 *  0.293641 *  0.014511 *   4.00000    1.000000    
     31 Si    c    0.392028 *  0.296556 *  0.477796 *   4.00000    1.000000    
     32 Si    c    0.904718 *  0.604881 *  0.146057 *   4.00000    1.000000    
     33 Si    c    0.700305 *  0.100085 *  0.809560 *   4.00000    1.000000    
     34 Si    c    0.596570 *  0.702731 *  0.983941 *   4.00000    1.000000    
     35 Si    c    0.102905 *  0.401375 *  0.652763 *   4.00000    1.000000    
     36 Si    c    0.300399 *  0.896200 *  0.318015 *   4.00000    1.000000    
     37 Si    c    0.236565 *  0.332460 *  0.952883 *   4.00000    1.000000    
     38 Si    c    0.670920 *  0.910649 *  0.287542 *   4.00000    1.000000    
     39 Si    c    0.086596 *  0.755980 *  0.622187 *   4.00000    1.000000    
     40 Si    c    0.749111 *  0.662326 *  0.448118 *   4.00000    1.000000    
     41 Si    c    0.340723 *  0.093643 *  0.780788 *   4.00000    1.000000    
     42 Si    c    0.914375 *  0.247052 *  0.116404 *   4.00000    1.000000    
     43 Si    c    0.336081 *  0.245931 *  0.375496 *   4.00000    1.000000    
     44 Si    c    0.908568 *  0.660047 *  0.043840 *   4.00000    1.000000    
     45 Si    c    0.752356 *  0.088547 *  0.707299 *   4.00000    1.000000    
     46 Si    c    0.652570 *  0.749888 *  0.880821 *   4.00000    1.000000    
     47 Si    c    0.090125 *  0.344525 *  0.550095 *   4.00000    1.000000    
     48 Si    c    0.257257 *  0.907874 *  0.215284 *   4.00000    1.000000    
     49 Si    c    0.963325 *  0.113116 *  0.964259 *   4.00000    1.000000    
     50 Si    c    0.887874 *  0.854028 *  0.297905 *   4.00000    1.000000    
     51 Si    c    0.144043 *  0.030062 *  0.630959 *   4.00000    1.000000    
     52 Si    c    0.022908 *  0.880417 *  0.466784 *   4.00000    1.000000    
     53 Si    c    0.119362 *  0.147472 *  0.799841 *   4.00000    1.000000    
     54 Si    c    0.859494 *  0.972978 *  0.132948 *   4.00000    1.000000    
     55 Si    c    0.121198 *  0.970716 *  0.366102 *   4.00000    1.000000    
     56 Si    c    0.850179 *  0.877110 *  0.032036 *   4.00000    1.000000    
     57 Si    c    0.027001 *  0.146648 *  0.699594 *   4.00000    1.000000    
     58 Si    c    0.872763 *  0.025298 *  0.863171 *   4.00000    1.000000    
     59 Si    c    0.141753 *  0.123420 *  0.530708 *   4.00000    1.000000    
     60 Si    c    0.983972 *  0.855460 *  0.197584 *   4.00000    1.000000    
     61 O2    c    0.920062 *  0.995149 *  0.997900 *   0.87073    1.000000    
     62 O2    c    0.001969 *  0.919243 *  0.333083 *   0.87073    1.000000    
     63 O2    c    0.079525 *  0.080985 *  0.665922 *   0.87073    1.000000    
     64 O2    c    0.059972 *  0.001717 *  0.498773 *   0.87073    1.000000    
     65 O2    c    0.999293 *  0.065630 *  0.833208 *   0.87073    1.000000    
     66 O2    c    0.942595 *  0.934450 *  0.164677 *   0.87073    1.000000    
     67 O3    c    0.347968 *  0.576355 *  0.324672 *   1.33043    1.000000    
     68 O3    c    0.420885 *  0.768758 *  0.658385 *   1.33043    1.000000    
     69 O3    c    0.228517 *  0.653276 *  0.992078 *   1.33043    1.000000    
     70 O2    c    0.650956 *  0.415551 *  0.838284 *   0.87073    1.000000    
     71 O3    c    0.586261 *  0.237784 *  0.171704 *   1.33043    1.000000    
     72 O3    c    0.758304 *  0.342625 *  0.509248 *   1.33043    1.000000    
     73 O3    c    0.567806 *  0.339189 *  0.998700 *   1.33043    1.000000    
     74 O3    c    0.766637 *  0.424423 *  0.672109 *   1.33043    1.000000    
     75 O3    c    0.659367 *  0.232385 *  0.334885 *   1.33043    1.000000    
     76 O2    c    0.408923 *  0.654205 *  0.489130 *   0.87073    1.000000    
     77 O2    c    0.245507 *  0.586986 *  0.156148 *   0.87073    1.000000    
     78 O2    c    0.342409 *  0.761472 *  0.822940 *   0.87073    1.000000    
     79 O2    c    0.117048 *  0.194030 *  0.967727 *   0.87073    1.000000    
     80 O2    c    0.808460 *  0.928096 *  0.302759 *   0.87073    1.000000    
     81 O2    c    0.069816 *  0.876904 *  0.637103 *   0.87073    1.000000    
     82 O2    c    0.868835 *  0.793475 *  0.467899 *   0.87073    1.000000    
     83 O2    c    0.214579 *  0.089445 *  0.802674 *   0.87073    1.000000    
     84 O2    c    0.927625 *  0.127063 *  0.134903 *   0.87073    1.000000    
     85 O2    c    0.201267 *  0.123773 *  0.359268 *   0.87073    1.000000    
     86 O2    c    0.918000 *  0.792079 *  0.025636 *   0.87073    1.000000    
     87 O2    c    0.874123 *  0.072563 *  0.692730 *   0.87073    1.000000    
     88 O2    c    0.778789 *  0.872001 *  0.859296 *   0.87073    1.000000    
     89 O2    c    0.081678 *  0.216713 *  0.528491 *   0.87073    1.000000    
     90 O2    c    0.137087 *  0.915287 *  0.193910 *   0.87073    1.000000    
     91 O2    c    0.944730 *  0.868715 *  0.247931 *   0.87073    1.000000    
     92 O2    c    0.130377 *  0.070674 *  0.580900 *   0.87073    1.000000    
     93 O2    c    0.916595 *  0.061576 *  0.914252 *   0.87073    1.000000    
     94 O2    c    0.063757 *  0.131387 *  0.750201 *   0.87073    1.000000    
     95 O2    c    0.864852 *  0.928327 *  0.082562 *   0.87073    1.000000    
     96 O2    c    0.071568 *  0.932806 *  0.416989 *   0.87073    1.000000    
     97 O2    c    0.902209 *  0.201185 *  0.976391 *   0.87073    1.000000    
     98 O2    c    0.797783 *  0.703345 *  0.307700 *   0.87073    1.000000    
     99 O2    c    0.294624 *  0.091617 *  0.640426 *   0.87073    1.000000    
    100 O2    c    0.086771 *  0.796045 *  0.481970 *   0.87073    1.000000    
    101 O2    c    0.199220 *  0.298051 *  0.812700 *   0.87073    1.000000    
    102 O2    c    0.710453 *  0.907643 *  0.147419 *   0.87073    1.000000    
    103 O2    c    0.208320 *  0.907538 *  0.355515 *   0.87073    1.000000    
    104 O2    c    0.699584 *  0.793357 *  0.021283 *   0.87073    1.000000    
    105 O2    c    0.090386 *  0.297578 *  0.690217 *   0.87073    1.000000    
    106 O2    c    0.794449 *  0.095197 *  0.847755 *   0.87073    1.000000    
    107 O2    c    0.289966 *  0.205016 *  0.516062 *   0.87073    1.000000    
    108 O2    c    0.916135 *  0.706604 *  0.184125 *   0.87073    1.000000    
    109 O3    c    0.317111 *  0.627180 *  0.241162 *   1.33043    1.000000    
    110 O3    c    0.369626 *  0.687383 *  0.574309 *   1.33043    1.000000    
    111 O3    c    0.310961 *  0.687967 *  0.907931 *   1.33043    1.000000    
    112 O3    c    0.682887 *  0.372964 *  0.754138 *   1.33043    1.000000    
    113 O1    c    0.618252 *  0.307959 *  0.084082 *   1.73396    1.000000    
    114 O1    c    0.690561 *  0.310478 *  0.418764 *   1.73396    1.000000    
    115 O2    c    0.363865 *  0.331598 *  0.969943 *   0.87073    1.000000    
    116 O2    c    0.671979 *  0.038736 *  0.304669 *   0.87073    1.000000    
    117 O2    c    0.958433 *  0.629484 *  0.640009 *   0.87073    1.000000    
    118 O2    c    0.620175 *  0.662915 *  0.463971 *   0.87073    1.000000    
    119 O2    c    0.336935 *  0.963651 *  0.797321 *   0.87073    1.000000    
    120 O2    c    0.043665 *  0.376338 *  0.131759 *   0.87073    1.000000    
    121 O2    c    0.332995 *  0.372111 *  0.358810 *   0.87073    1.000000    
    122 O2    c    0.038182 *  0.664680 *  0.026845 *   0.87073    1.000000    
    123 O2    c    0.625577 *  0.958454 *  0.691423 *   0.87073    1.000000    
    124 O2    c    0.656984 *  0.624782 *  0.863421 *   0.87073    1.000000    
    125 O2    c    0.960865 *  0.340709 *  0.534113 *   0.87073    1.000000    
    126 O2    c    0.382293 *  0.037333 *  0.198902 *   0.87073    1.000000    
    127 O3    c    0.759803 *  0.285406 *  0.007597 *   1.33043    1.000000    
    128 O3    c    0.714572 *  0.474762 *  0.338946 *   1.33043    1.000000    
    129 O3    c    0.523773 *  0.238048 *  0.670872 *   1.33043    1.000000    
    130 O2    c    0.221560 *  0.694309 *  0.509609 *   0.87073    1.000000    
    131 O2    c    0.299337 *  0.533445 *  0.842069 *   0.87073    1.000000    
    132 O2    c    0.474231 *  0.772174 *  0.175911 *   0.87073    1.000000    
    133 O3    c    0.294279 *  0.763020 *  0.325347 *   1.33043    1.000000    
    134 O3    c    0.469694 *  0.709139 *  0.991232 *   1.33043    1.000000    
    135 O3    c    0.236803 *  0.527988 *  0.659008 *   1.33043    1.000000    
    136 O2    c    0.692322 *  0.227937 *  0.819813 *   0.87073    1.000000    
    137 O3    c    0.521366 *  0.298612 *  0.489655 *   1.33043    1.000000    
    138 O3    c    0.776631 *  0.475855 *  0.157867 *   1.33043    1.000000    
    139 O3    c    0.783059 *  0.542290 *  0.023509 *   1.33043    1.000000    
    140 O3    c    0.451641 *  0.235008 *  0.354830 *   1.33043    1.000000    
    141 O3    c    0.765027 *  0.214201 *  0.685779 *   1.33043    1.000000    
    142 O2    c    0.214106 *  0.469259 *  0.529685 *   0.87073    1.000000    
    143 O2    c    0.526906 *  0.747987 *  0.861662 *   0.87073    1.000000    
    144 O2    c    0.258080 *  0.783962 *  0.195101 *   0.87073    1.000000    
    145 O3    c    0.557806 *  0.782727 *  0.308297 *   1.33043    1.000000    
    146 O3    c    0.222553 *  0.445122 *  0.974016 *   1.33043    1.000000    
    147 O3    c    0.214427 *  0.771037 *  0.642485 *   1.33043    1.000000    
    148 O2    c    0.465822 *  0.216821 *  0.800639 *   0.87073    1.000000    
    149 O3    c    0.755444 *  0.545416 *  0.470114 *   1.33043    1.000000    
    150 O3    c    0.790082 *  0.237612 *  0.138693 *   1.33043    1.000000    
    151 O2    c    0.224925 *  0.330720 *  0.897795 *   0.87073    1.000000    
    152 O2    c    0.674692 *  0.900525 *  0.232397 *   0.87073    1.000000    
    153 O2    c    0.096467 *  0.769027 *  0.567030 *   0.87073    1.000000    
    154 O2    c    0.764757 *  0.671100 *  0.393817 *   0.87073    1.000000    
    155 O2    c    0.328493 *  0.096048 *  0.726729 *   0.87073    1.000000    
    156 O2    c    0.906733 *  0.232591 *  0.061877 *   0.87073    1.000000    
    157 O2    c    0.328682 *  0.229964 *  0.430410 *   0.87073    1.000000    
    158 O2    c    0.901034 *  0.669005 *  0.098408 *   0.87073    1.000000    
    159 O2    c    0.768155 *  0.103223 *  0.762433 *   0.87073    1.000000    
    160 O2    c    0.664740 *  0.762981 *  0.934982 *   0.87073    1.000000    
    161 O2    c    0.094441 *  0.332143 *  0.604193 *   0.87073    1.000000    
    162 O2    c    0.239104 *  0.902171 *  0.269385 *   0.87073    1.000000    
    163 O2    c    0.569154 *  0.557368 *  0.991502 *   0.87073    1.000000    
    164 O2    c    0.444583 *  0.014516 *  0.325280 *   0.87073    1.000000    
    165 O2    c    0.986371 *  0.429533 *  0.661369 *   0.87073    1.000000    
    166 O2    c    0.412827 *  0.439908 *  0.480750 *   0.87073    1.000000    
    167 O2    c    0.559290 *  0.975305 *  0.813527 *   0.87073    1.000000    
    168 O2    c    0.027545 *  0.584154 *  0.148674 *   0.87073    1.000000    
    169 O2    c    0.560491 *  0.568805 *  0.337706 *   0.87073    1.000000    
    170 O2    c    0.007718 *  0.438909 *  0.006121 *   0.87073    1.000000    
    171 O2    c    0.426946 *  0.988372 *  0.669946 *   0.87073    1.000000    
    172 O2    c    0.434250 *  0.416262 *  0.845988 *   0.87073    1.000000    
    173 O2    c    0.968956 *  0.560693 *  0.516060 *   0.87073    1.000000    
    174 O2    c    0.590919 *  0.024427 *  0.180222 *   0.87073    1.000000    
    175 O2    c    0.580638 *  0.151694 *  0.253114 *   0.87073    1.000000    
    176 O2    c    0.846117 *  0.422375 *  0.590021 *   0.87073    1.000000    
    177 O2    c    0.571591 *  0.426751 *  0.918611 *   0.87073    1.000000    
    178 O2    c    0.417349 *  0.847179 *  0.741250 *   0.87073    1.000000    
    179 O2    c    0.155601 *  0.572705 *  0.075411 *   0.87073    1.000000    
    180 O2    c    0.425182 *  0.580216 *  0.407908 *   0.87073    1.000000    
    181 F     c    0.445199 *  0.863610 *  0.257740 *   0.56000    1.000000    
    182 F     c    0.133405 *  0.576510 *  0.592440 *   0.56000    1.000000    
    183 F     c    0.418847 *  0.558701 *  0.924066 *   0.56000    1.000000    
    184 F     c    0.573894 *  0.136600 *  0.738072 *   0.56000    1.000000    
    185 F     c    0.854347 *  0.425031 *  0.081356 *   0.56000    1.000000    
    186 F     c    0.567207 *  0.422921 *  0.408804 *   0.56000    1.000000    
    187 O2    s    0.917010 *  0.995231 *  0.997921 *  -2.87073    1.000000    
    188 O2    s    0.002564 *  0.917611 *  0.332828 *  -2.87073    1.000000    
    189 O2    s    0.080927 *  0.082798 *  0.665796 *  -2.87073    1.000000    
    190 O2    s    0.064906 *  0.001823 *  0.498785 *  -2.87073    1.000000    
    191 O2    s    0.998500 *  0.070082 *  0.832861 *  -2.87073    1.000000    
    192 O2    s    0.937947 *  0.930018 *  0.164782 *  -2.87073    1.000000    
    193 O3    s    0.358766 *  0.580539 *  0.326029 *  -3.33043    1.000000    
    194 O3    s    0.416825 *  0.775554 *  0.659658 *  -3.33043    1.000000    
    195 O3    s    0.222078 *  0.642435 *  0.993387 *  -3.33043    1.000000    
    196 O2    s    0.639863 *  0.410311 *  0.837602 *  -2.87073    1.000000    
    197 O3    s    0.589853 *  0.230552 *  0.172051 *  -3.33043    1.000000    
    198 O3    s    0.765562 *  0.353319 *  0.509165 *  -3.33043    1.000000    
    199 O3    s    0.572002 *  0.350216 *  0.998085 *  -3.33043    1.000000    
    200 O3    s    0.773077 *  0.419834 *  0.670867 *  -3.33043    1.000000    
    201 O3    s    0.648503 *  0.225492 *  0.333908 *  -3.33043    1.000000    
    202 O2    s    0.403996 *  0.643578 *  0.489953 *  -2.87073    1.000000    
    203 O2    s    0.239730 *  0.591934 *  0.156945 *  -2.87073    1.000000    
    204 O2    s    0.353312 *  0.766834 *  0.823639 *  -2.87073    1.000000    
    205 O2    s    0.112714 *  0.199488 *  0.965834 *  -2.87073    1.000000    
    206 O2    s    0.803152 *  0.918335 *  0.300703 *  -2.87073    1.000000    
    207 O2    s    0.079524 *  0.881241 *  0.634940 *  -2.87073    1.000000    
    208 O2    s    0.873147 *  0.789469 *  0.465788 *  -2.87073    1.000000    
    209 O2    s    0.217444 *  0.095988 *  0.800158 *  -2.87073    1.000000    
    210 O2    s    0.919032 *  0.122863 *  0.132822 *  -2.87073    1.000000    
    211 O2    s    0.206271 *  0.119668 *  0.361631 *  -2.87073    1.000000    
    212 O2    s    0.909737 *  0.787880 *  0.028155 *  -2.87073    1.000000    
    213 O2    s    0.878227 *  0.082140 *  0.694937 *  -2.87073    1.000000    
    214 O2    s    0.775634 *  0.875516 *  0.861910 *  -2.87073    1.000000    
    215 O2    s    0.088940 *  0.219956 *  0.530934 *  -2.87073    1.000000    
    216 O2    s    0.133018 *  0.908145 *  0.196466 *  -2.87073    1.000000    
    217 O2    s    0.942853 *  0.865577 *  0.247785 *  -2.87073    1.000000    
    218 O2    s    0.133208 *  0.072082 *  0.580858 *  -2.87073    1.000000    
    219 O2    s    0.916835 *  0.063202 *  0.914019 *  -2.87073    1.000000    
    220 O2    s    0.066093 *  0.134941 *  0.750294 *  -2.87073    1.000000    
    221 O2    s    0.862587 *  0.927543 *  0.082492 *  -2.87073    1.000000    
    222 O2    s    0.071568 *  0.931067 *  0.416962 *  -2.87073    1.000000    
    223 O2    s    0.908122 *  0.201188 *  0.979042 *  -2.87073    1.000000    
    224 O2    s    0.798010 *  0.709033 *  0.310577 *  -2.87073    1.000000    
    225 O2    s    0.289066 *  0.086220 *  0.643337 *  -2.87073    1.000000    
    226 O2    s    0.080684 *  0.795255 *  0.484262 *  -2.87073    1.000000    
    227 O2    s    0.200424 *  0.292507 *  0.815263 *  -2.87073    1.000000    
    228 O2    s    0.716027 *  0.914003 *  0.149736 *  -2.87073    1.000000    
    229 O2    s    0.208402 *  0.913264 *  0.352758 *  -2.87073    1.000000    
    230 O2    s    0.705064 *  0.792902 *  0.018527 *  -2.87073    1.000000    
    231 O2    s    0.084765 *  0.291870 *  0.687355 *  -2.87073    1.000000    
    232 O2    s    0.793184 *  0.088275 *  0.845503 *  -2.87073    1.000000    
    233 O2    s    0.284225 *  0.205491 *  0.513733 *  -2.87073    1.000000    
    234 O2    s    0.922361 *  0.712261 *  0.181630 *  -2.87073    1.000000    
    235 O3    s    0.322587 *  0.639944 *  0.239437 *  -3.33043    1.000000    
    236 O3    s    0.356890 *  0.679875 *  0.572716 *  -3.33043    1.000000    
    237 O3    s    0.318242 *  0.682519 *  0.906212 *  -3.33043    1.000000    
    238 O3    s    0.675293 *  0.360017 *  0.755988 *  -3.33043    1.000000    
    239 O1    s    0.630703 *  0.314042 *  0.083921 *  -3.73396    1.000000    
    240 O1    s    0.684978 *  0.317018 *  0.419533 *  -3.73396    1.000000    
    241 O2    s    0.366467 *  0.340311 *  0.968180 *  -2.87073    1.000000    
    242 O2    s    0.663426 *  0.032324 *  0.302884 *  -2.87073    1.000000    
    243 O2    s    0.964988 *  0.627287 *  0.638278 *  -2.87073    1.000000    
    244 O2    s    0.617451 *  0.654401 *  0.461872 *  -2.87073    1.000000    
    245 O2    s    0.345648 *  0.969553 *  0.795099 *  -2.87073    1.000000    
    246 O2    s    0.037821 *  0.379054 *  0.129707 *  -2.87073    1.000000    
    247 O2    s    0.341777 *  0.374258 *  0.360339 *  -2.87073    1.000000    
    248 O2    s    0.031496 *  0.655828 *  0.028414 *  -2.87073    1.000000    
    249 O2    s    0.623476 *  0.965249 *  0.692885 *  -2.87073    1.000000    
    250 O2    s    0.648049 *  0.621815 *  0.865637 *  -2.87073    1.000000    
    251 O2    s    0.966886 *  0.349170 *  0.536260 *  -2.87073    1.000000    
    252 O2    s    0.384436 *  0.030979 *  0.200942 *  -2.87073    1.000000    
    253 O3    s    0.768980 *  0.292819 *  0.010273 *  -3.33043    1.000000    
    254 O3    s    0.707140 *  0.477817 *  0.341737 *  -3.33043    1.000000    
    255 O3    s    0.520034 *  0.227003 *  0.673757 *  -3.33043    1.000000    
    256 O2    s    0.215912 *  0.688534 *  0.512451 *  -2.87073    1.000000    
    257 O2    s    0.305442 *  0.533346 *  0.844823 *  -2.87073    1.000000    
    258 O2    s    0.473963 *  0.778164 *  0.178678 *  -2.87073    1.000000    
    259 O3    s    0.301277 *  0.773877 *  0.322369 *  -3.33043    1.000000    
    260 O3    s    0.473615 *  0.702152 *  0.988296 *  -3.33043    1.000000    
    261 O3    s    0.225686 *  0.524055 *  0.656166 *  -3.33043    1.000000    
    262 O2    s    0.686481 *  0.222030 *  0.816891 *  -2.87073    1.000000    
    263 O3    s    0.519589 *  0.304216 *  0.486757 *  -3.33043    1.000000    
    264 O3    s    0.785020 *  0.478293 *  0.154687 *  -3.33043    1.000000    
    265 O3    s    0.789930 *  0.542156 *  0.026359 *  -3.33043    1.000000    
    266 O3    s    0.450827 *  0.242588 *  0.357935 *  -3.33043    1.000000    
    267 O3    s    0.757323 *  0.205099 *  0.689089 *  -3.33043    1.000000    
    268 O2    s    0.209396 *  0.471322 *  0.531724 *  -2.87073    1.000000    
    269 O2    s    0.525040 *  0.741552 *  0.863683 *  -2.87073    1.000000    
    270 O2    s    0.264662 *  0.788419 *  0.197205 *  -2.87073    1.000000    
    271 O3    s    0.559087 *  0.792076 *  0.305158 *  -3.33043    1.000000    
    272 O3    s    0.230680 *  0.443763 *  0.970876 *  -3.33043    1.000000    
    273 O3    s    0.205105 *  0.762939 *  0.639358 *  -3.33043    1.000000    
    274 O2    s    0.467711 *  0.212237 *  0.798489 *  -2.87073    1.000000    
    275 O3    s    0.748849 *  0.544810 *  0.467608 *  -3.33043    1.000000    
    276 O3    s    0.797266 *  0.245055 *  0.135817 *  -3.33043    1.000000    
    277 O2    s    0.233450 *  0.338263 *  0.898118 *  -2.87073    1.000000    
    278 O2    s    0.667158 *  0.901580 *  0.232707 *  -2.87073    1.000000    
    279 O2    s    0.095220 *  0.760415 *  0.567316 *  -2.87073    1.000000    
    280 O2    s    0.757273 *  0.663169 *  0.394763 *  -2.87073    1.000000    
    281 O2    s    0.336455 *  0.096571 *  0.727826 *  -2.87073    1.000000    
    282 O2    s    0.906258 *  0.240370 *  0.062643 *  -2.87073    1.000000    
    283 O2    s    0.336296 *  0.238686 *  0.430020 *  -2.87073    1.000000    
    284 O2    s    0.902110 *  0.661340 *  0.097773 *  -2.87073    1.000000    
    285 O2    s    0.759182 *  0.101555 *  0.762276 *  -2.87073    1.000000    
    286 O2    s    0.656763 *  0.755691 *  0.933966 *  -2.87073    1.000000    
    287 O2    s    0.094839 *  0.340221 *  0.603156 *  -2.87073    1.000000    
    288 O2    s    0.247005 *  0.902158 *  0.268369 *  -2.87073    1.000000    
    289 O2    s    0.566679 *  0.557703 *  0.988535 *  -2.87073    1.000000    
    290 O2    s    0.444050 *  0.011693 *  0.322425 *  -2.87073    1.000000    
    291 O2    s    0.988730 *  0.431337 *  0.658410 *  -2.87073    1.000000    
    292 O2    s    0.416304 *  0.439878 *  0.478181 *  -2.87073    1.000000    
    293 O2    s    0.559473 *  0.979686 *  0.810909 *  -2.87073    1.000000    
    294 O2    s    0.024028 *  0.580584 *  0.146113 *  -2.87073    1.000000    
    295 O2    s    0.561196 *  0.567796 *  0.340501 *  -2.87073    1.000000    
    296 O2    s    0.005979 *  0.437923 *  0.008922 *  -2.87073    1.000000    
    297 O2    s    0.428471 *  0.990492 *  0.672797 *  -2.87073    1.000000    
    298 O2    s    0.433963 *  0.420004 *  0.848739 *  -2.87073    1.000000    
    299 O2    s    0.973668 *  0.561375 *  0.518695 *  -2.87073    1.000000    
    300 O2    s    0.587479 *  0.020053 *  0.182918 *  -2.87073    1.000000    
    301 O2    s    0.576669 *  0.143358 *  0.252830 *  -2.87073    1.000000    
    302 O2    s    0.854572 *  0.427118 *  0.589555 *  -2.87073    1.000000    
    303 O2    s    0.566654 *  0.430517 *  0.918156 *  -2.87073    1.000000    
    304 O2    s    0.422451 *  0.856008 *  0.741842 *  -2.87073    1.000000    
    305 O2    s    0.146675 *  0.568942 *  0.075894 *  -2.87073    1.000000    
    306 O2    s    0.428983 *  0.575189 *  0.408484 *  -2.87073    1.000000    
    307 F     s    0.441040 *  0.852189 *  0.260279 *  -1.56000    1.000000    
    308 F     s    0.144743 *  0.583775 *  0.594898 *  -1.56000    1.000000    
    309 F     s    0.411656 *  0.562725 *  0.926633 *  -1.56000    1.000000    
    310 F     s    0.581090 *  0.147839 *  0.735587 *  -1.56000    1.000000    
    311 F     s    0.845906 *  0.420706 *  0.081574 *  -1.56000    1.000000    
    312 F     s    0.571249 *  0.416979 *  0.407252 *  -1.56000    1.000000    
--------------------------------------------------------------------------------



********************************************************************************
*  General input information                                                   *
********************************************************************************

  Species output for all configurations : 

--------------------------------------------------------------------------------
  Species    Type    Atomic    Atomic    Charge       Radii (Angs)     Library
                     Number     Mass       (e)     Cova   Ionic  VDW   Symbol
--------------------------------------------------------------------------------
    Si       Core       14      28.09   4.000000   1.200  0.000  2.100          
    O1       Core        8      16.00   1.733957   0.730  0.000  1.360          
    O1       Shell       8       0.00  -3.733957   0.730  0.000  1.360          
    O2       Core        8      16.00   0.870733   0.730  0.000  1.360          
    O2       Shell       8       0.00  -2.870733   0.730  0.000  1.360          
    O3       Core        8      16.00   1.330431   0.730  0.000  1.360          
    O3       Shell       8       0.00  -3.330431   0.730  0.000  1.360          
    F        Core        9      19.00   0.560000   0.710  0.000  1.300          
    F        Shell       9       0.00  -1.560000   0.710  0.000  1.300          
    Ge       Core       32      72.61   4.000000   1.170  0.000  1.750          
--------------------------------------------------------------------------------


  Lattice summation method               =    Ewald          (3-D)
                                         =    Parry          (2-D)
                                         =    Saunders et al (1-D)
  Accuracy factor for lattice sums       =   12.000


  Time limit = Infinity

  Maximum range for interatomic potentials =        16.000000 Angstroms

  Taper potentials to zero over   1.0000 Angstroms using polynomial

  General interatomic potentials :

--------------------------------------------------------------------------------
Atom  Types   Potential         A         B         C         D     Cutoffs(Ang)
  1     2                                                            Min    Max 
--------------------------------------------------------------------------------
Si   c O1   s Buckingham    0.132E+04 0.318      10.1      0.00     0.000 16.000
Si   c O2   s Buckingham    0.132E+04 0.318      10.1      0.00     0.000 16.000
Si   c O3   s Buckingham    0.132E+04 0.318      10.1      0.00     0.000 16.000
Ge   c O1   s Buckingham    0.150E+04 0.326      16.8      0.00     0.000 16.000
Ge   c O2   s Buckingham    0.150E+04 0.326      16.8      0.00     0.000 16.000
Ge   c O3   s Buckingham    0.150E+04 0.326      16.8      0.00     0.000 16.000
O1   s O1   s Buckingham    0.228E+05 0.149      10.9      0.00     0.000 16.000
O1   s O2   s Buckingham    0.228E+05 0.149      10.9      0.00     0.000 16.000
O1   s O3   s Buckingham    0.228E+05 0.149      10.9      0.00     0.000 16.000
O2   s O2   s Buckingham    0.228E+05 0.149      10.9      0.00     0.000 16.000
O2   s O3   s Buckingham    0.228E+05 0.149      10.9      0.00     0.000 16.000
O3   s O3   s Buckingham    0.228E+05 0.149      10.9      0.00     0.000 16.000
Si   c F    s Buckingham     977.     0.282      0.00      0.00     0.000 16.000
Ge   c F    s Buckingham     681.     0.320      0.00      0.00     0.000 16.000
F    s F    s Buckingham     540.     0.262      0.00      0.00     0.000 16.000
O1   s F    s Buckingham    0.168E+04 0.268      0.00      0.00     0.000 16.000
O2   s F    s Buckingham    0.168E+04 0.268      0.00      0.00     0.000 16.000
O3   s F    s Buckingham    0.168E+04 0.268      0.00      0.00     0.000 16.000
O2   c O2   s Spring (c-s)   76.0      0.00      0.00      0.00     0.000  0.800
O3   c O3   s Spring (c-s)   128.      0.00      0.00      0.00     0.000  0.800
O1   c O1   s Spring (c-s)   180.      0.00      0.00      0.00     0.000  0.800
F    c F    s Spring (c-s)   33.5      0.00      0.00      0.00     0.000  0.800
--------------------------------------------------------------------------------

  General Three-body potentials :

  Harmonic form:

--------------------------------------------------------------------------------
Atom    Atom    Atom           Force Constants            Theta     Cutoffs  
  1       2       3     (eVrad**-2/eVrad**-3/eVrad**-4)   (deg)  1-2  1-3  2-3
--------------------------------------------------------------------------------
Si    c O1    s O1    s  1.261        0.0000    0.0000   109.470 0.00 0.00 0.00
                                                                 1.90 1.90 3.50
Si    c O1    s O2    s  1.261        0.0000    0.0000   109.470 0.00 0.00 0.00
                                                                 1.90 1.90 3.50
Si    c O2    s O2    s  1.261        0.0000    0.0000   109.470 0.00 0.00 0.00
                                                                 1.90 1.90 3.50
--------------------------------------------------------------------------------

********************************************************************************
*  Output for configuration   1                                                *
********************************************************************************


  Components of energy : 

--------------------------------------------------------------------------------
  Interatomic potentials     =        2062.54964395 eV
  Three-body potentials      =           0.35229039 eV
  Monopole - monopole (real) =       -6482.45647742 eV
  Monopole - monopole (recip)=       -3270.39410952 eV
  Monopole - monopole (total)=       -9752.85058694 eV
  Neutralising energy        =          -6.42438855 eV
--------------------------------------------------------------------------------
  Total lattice energy       =       -7696.37304115 eV
--------------------------------------------------------------------------------
  Total lattice energy       =         -742582.3486 kJ/(mole unit cells)
--------------------------------------------------------------------------------


  Number of variables =      939

  Maximum number of calculations  =          1000
  Maximum Hessian update interval =            10
  Maximum step size               =   1.000000000
  Maximum parameter tolerance     =   0.000010000
  Maximum function  tolerance     =   0.000010000
  Maximum gradient  tolerance     =   0.001000000
  Maximum gradient  component     =   0.010000000

  Symmetry not applied to optimisation

  Cell parameters to be optimised using strains

  RFO method to be used

  DFP hessian update to be used

  Dumpfile to be written after every cycle

  Start of bulk optimisation :

  Cycle:      0 Energy:     -7696.373041  Gnorm:      0.001128  CPU:    1.030
  ** Hessian has wrong structure
  ** Imaginary eigenvectors =   1
  Cycle:      1 Energy:     -7696.380615  Gnorm:      0.011017  CPU:    5.339
  ** Hessian has required structure
  Cycle:      2 Energy:     -7696.409899  Gnorm:      0.015715  CPU:    9.015
  ** Hessian has required structure
  Cycle:      3 Energy:     -7696.435997  Gnorm:      0.007899  CPU:   11.718
  ** Hessian has required structure
  Cycle:      4 Energy:     -7696.439744  Gnorm:      0.002196  CPU:   14.098
  ** Hessian has required structure
  Cycle:      5 Energy:     -7696.439965  Gnorm:      0.000510  CPU:   16.478
  ** Hessian has required structure
  Cycle:      6 Energy:     -7696.439987  Gnorm:      0.000328  CPU:   18.856
  ** Hessian has required structure
  Cycle:      7 Energy:     -7696.439989  Gnorm:      0.000048  CPU:   21.235
  ** Hessian has required structure


  **** Optimisation achieved ****


  Final energy =   -7696.43998907 eV
  Final Gnorm  =       0.00001049

  Components of energy : 

--------------------------------------------------------------------------------
  Interatomic potentials     =        2062.74867887 eV
  Three-body potentials      =           0.34283348 eV
  Monopole - monopole (real) =       -6479.10072760 eV
  Monopole - monopole (recip)=       -3273.99930676 eV
  Monopole - monopole (total)=       -9753.10003436 eV
  Neutralising energy        =          -6.43146706 eV
--------------------------------------------------------------------------------
  Total lattice energy       =       -7696.43998907 eV
--------------------------------------------------------------------------------
  Total lattice energy       =         -742588.8081 kJ/(mole unit cells)
--------------------------------------------------------------------------------

  Final fractional coordinates of atoms :

--------------------------------------------------------------------------------
   No.  Atomic        x           y          z          Radius
        Label       (Frac)      (Frac)     (Frac)       (Angs) 
--------------------------------------------------------------------------------
     1  Ge    c     0.699600    0.375700    0.033890    0.000000
     2  Ge    c     0.613840    0.316583    0.368558    0.000000
     3  Ge    c     0.669890    0.286037    0.702229    0.000000
     4  Si    c     0.296298    0.620218    0.522794    0.000000
     5  Si    c     0.368345    0.674208    0.855421    0.000000
     6  Si    c     0.318275    0.689829    0.189052    0.000000
     7  Ge    c     0.380619    0.702117    0.287428    0.000000
     8  Ge    c     0.319688    0.609668    0.953747    0.000000
     9  Ge    c     0.286118    0.671306    0.621278    0.000000
    10  Si    c     0.619964    0.299084    0.800410    0.000000
    11  Ge    c     0.672835    0.371684    0.467422    0.000000
    12  Ge    c     0.693733    0.314990    0.132619    0.000000
    13  Si    c     0.513773    0.412467    0.971368    0.000000
    14  Si    c     0.576607    0.093073    0.306623    0.000000
    15  Si    c     0.894858    0.476436    0.642039    0.000000
    16  Si    c     0.456019    0.571894    0.453576    0.000000
    17  Si    c     0.418014    0.882398    0.786504    0.000000
    18  Si    c     0.110435    0.529957    0.120181    0.000000
    19  Si    c     0.411940    0.513837    0.350435    0.000000
    20  Si    c     0.099553    0.576365    0.017025    0.000000
    21  Si    c     0.474835    0.893133    0.683202    0.000000
    22  Si    c     0.571121    0.459742    0.868203    0.000000
    23  Si    c     0.879301    0.416260    0.538774    0.000000
    24  Si    c     0.530434    0.106952    0.203409    0.000000
    25  Si    c     0.289155    0.388909    0.849122    0.000000
    26  Si    c     0.603950    0.898372    0.183125    0.000000
    27  Si    c     0.087664    0.697825    0.517744    0.000000
    28  Si    c     0.700544    0.586331    0.342020    0.000000
    29  Si    c     0.402845    0.109070    0.674266    0.000000
    30  Si    c     0.883197    0.288701    0.008168    0.000000
    31  Si    c     0.384493    0.288557    0.473840    0.000000
    32  Si    c     0.898823    0.602356    0.140111    0.000000
    33  Si    c     0.699826    0.093350    0.806041    0.000000
    34  Si    c     0.587548    0.699923    0.981391    0.000000
    35  Si    c     0.110780    0.404756    0.650605    0.000000
    36  Si    c     0.289232    0.877981    0.316284    0.000000
    37  Si    c     0.231057    0.329535    0.951419    0.000000
    38  Si    c     0.660495    0.894706    0.285565    0.000000
    39  Si    c     0.092716    0.757944    0.620261    0.000000
    40  Si    c     0.740799    0.654251    0.444580    0.000000
    41  Si    c     0.340060    0.086941    0.777177    0.000000
    42  Si    c     0.908066    0.245834    0.110728    0.000000
    43  Si    c     0.331259    0.232294    0.371356    0.000000
    44  Si    c     0.898690    0.657565    0.037636    0.000000
    45  Si    c     0.757075    0.093191    0.703600    0.000000
    46  Si    c     0.648901    0.741298    0.878369    0.000000
    47  Si    c     0.086117    0.341028    0.547949    0.000000
    48  Si    c     0.249008    0.900350    0.213520    0.000000
    49  Si    c     0.957298    0.109971    0.960836    0.000000
    50  Si    c     0.879460    0.839554    0.294848    0.000000
    51  Si    c     0.148364    0.032098    0.628002    0.000000
    52  Si    c     0.013819    0.874056    0.463943    0.000000
    53  Si    c     0.117450    0.138461    0.796944    0.000000
    54  Si    c     0.854309    0.972258    0.129924    0.000000
    55  Si    c     0.113646    0.957184    0.363118    0.000000
    56  Si    c     0.841416    0.875178    0.028978    0.000000
    57  Si    c     0.031789    0.149280    0.696414    0.000000
    58  Si    c     0.870861    0.015243    0.859864    0.000000
    59  Si    c     0.134470    0.117868    0.527530    0.000000
    60  Si    c     0.977139    0.851195    0.193985    0.000000
    61  O2    c     0.910435    0.995189    0.995992    0.000000
    62  O2    c     0.994693    0.906374    0.329735    0.000000
    63  O2    c     0.083166    0.083276    0.662450    0.000000
    64  O2    c     0.049585    0.995824    0.495733    0.000000
    65  O2    c     0.996257    0.053715    0.829467    0.000000
    66  O2    c     0.938517    0.935761    0.162478    0.000000
    67  O3    c     0.339721    0.557945    0.317624    0.000000
    68  O3    c     0.430576    0.775520    0.651054    0.000000
    69  O3    c     0.216659    0.649657    0.984565    0.000000
    70  O2    c     0.646088    0.403067    0.839943    0.000000
    71  O3    c     0.581697    0.235229    0.175473    0.000000
    72  O3    c     0.750754    0.339809    0.510991    0.000000
    73  O3    c     0.558996    0.337460    0.002184    0.000000
    74  O3    c     0.775898    0.431707    0.673802    0.000000
    75  O3    c     0.651720    0.212663    0.337654    0.000000
    76  O2    c     0.397905    0.645251    0.482281    0.000000
    77  O2    c     0.241401    0.587200    0.149034    0.000000
    78  O2    c     0.342947    0.752009    0.815641    0.000000
    79  O2    c     0.110366    0.192319    0.966676    0.000000
    80  O2    c     0.797070    0.910163    0.301136    0.000000
    81  O2    c     0.078333    0.879788    0.635729    0.000000
    82  O2    c     0.859591    0.787096    0.464006    0.000000
    83  O2    c     0.212000    0.079248    0.798739    0.000000
    84  O2    c     0.921352    0.126404    0.130171    0.000000
    85  O2    c     0.197595    0.109245    0.354643    0.000000
    86  O2    c     0.910296    0.791718    0.020807    0.000000
    87  O2    c     0.879606    0.079720    0.688166    0.000000
    88  O2    c     0.776711    0.861784    0.856932    0.000000
    89  O2    c     0.074214    0.211314    0.526537    0.000000
    90  O2    c     0.130766    0.911541    0.192060    0.000000
    91  O2    c     0.933943    0.857276    0.244456    0.000000
    92  O2    c     0.128171    0.065419    0.577483    0.000000
    93  O2    c     0.917477    0.054471    0.910734    0.000000
    94  O2    c     0.063256    0.127686    0.747118    0.000000
    95  O2    c     0.857804    0.922798    0.080233    0.000000
    96  O2    c     0.064309    0.926158    0.414217    0.000000
    97  O2    c     0.892360    0.196462    0.970279    0.000000
    98  O2    c     0.793185    0.687974    0.304118    0.000000
    99  O2    c     0.300362    0.098923    0.636664    0.000000
   100  O2    c     0.077492    0.789975    0.479807    0.000000
   101  O2    c     0.197068    0.287745    0.811055    0.000000
   102  O2    c     0.705889    0.908265    0.145043    0.000000
   103  O2    c     0.196223    0.887803    0.353803    0.000000
   104  O2    c     0.690102    0.792472    0.018873    0.000000
   105  O2    c     0.100314    0.301489    0.688090    0.000000
   106  O2    c     0.792330    0.084931    0.844275    0.000000
   107  O2    c     0.281480    0.198694    0.511865    0.000000
   108  O2    c     0.910797    0.704307    0.178315    0.000000
   109  O3    c     0.308973    0.617450    0.234844    0.000000
   110  O3    c     0.369751    0.683798    0.568309    0.000000
   111  O3    c     0.306799    0.683470    0.901576    0.000000
   112  O3    c     0.681492    0.371142    0.754619    0.000000
   113  O1    c     0.612058    0.301774    0.084327    0.000000
   114  O1    c     0.687647    0.303940    0.419245    0.000000
   115  O2    c     0.357358    0.327619    0.969158    0.000000
   116  O2    c     0.661431    0.021287    0.304371    0.000000
   117  O2    c     0.965722    0.632868    0.639311    0.000000
   118  O2    c     0.610778    0.655014    0.458665    0.000000
   119  O2    c     0.336302    0.955591    0.791936    0.000000
   120  O2    c     0.038487    0.375231    0.125224    0.000000
   121  O2    c     0.327637    0.357486    0.353567    0.000000
   122  O2    c     0.027515    0.660826    0.020126    0.000000
   123  O2    c     0.631442    0.964088    0.686210    0.000000
   124  O2    c     0.652923    0.614496    0.862833    0.000000
   125  O2    c     0.955389    0.337406    0.533531    0.000000
   126  O2    c     0.375478    0.030886    0.198627    0.000000
   127  O3    c     0.747803    0.279695    0.002614    0.000000
   128  O3    c     0.710217    0.460219    0.336858    0.000000
   129  O3    c     0.528922    0.244465    0.669072    0.000000
   130  O2    c     0.214369    0.688558    0.505641    0.000000
   131  O2    c     0.297542    0.524507    0.837873    0.000000
   132  O2    c     0.468269    0.771222    0.171593    0.000000
   133  O3    c     0.281458    0.743292    0.321217    0.000000
   134  O3    c     0.461174    0.708751    0.986746    0.000000
   135  O3    c     0.246042    0.531085    0.655001    0.000000
   136  O2    c     0.690482    0.219668    0.817994    0.000000
   137  O3    c     0.513881    0.292120    0.487468    0.000000
   138  O3    c     0.772518    0.472935    0.153311    0.000000
   139  O3    c     0.770929    0.541640    0.018205    0.000000
   140  O3    c     0.448159    0.221332    0.352264    0.000000
   141  O3    c     0.770142    0.220958    0.683900    0.000000
   142  O2    c     0.207923    0.463733    0.525660    0.000000
   143  O2    c     0.524761    0.739687    0.857346    0.000000
   144  O2    c     0.250149    0.778354    0.191602    0.000000
   145  O3    c     0.546371    0.764946    0.304469    0.000000
   146  O3    c     0.217019    0.443727    0.971111    0.000000
   147  O3    c     0.222516    0.773221    0.638879    0.000000
   148  O2    c     0.463439    0.208307    0.798952    0.000000
   149  O3    c     0.746927    0.539268    0.468455    0.000000
   150  O3    c     0.786376    0.239767    0.134178    0.000000
   151  O2    c     0.218636    0.325586    0.896093    0.000000
   152  O2    c     0.666100    0.889940    0.230162    0.000000
   153  O2    c     0.097300    0.768412    0.564842    0.000000
   154  O2    c     0.758012    0.658646    0.390282    0.000000
   155  O2    c     0.331356    0.095862    0.723031    0.000000
   156  O2    c     0.896924    0.230005    0.056393    0.000000
   157  O2    c     0.322980    0.218942    0.426477    0.000000
   158  O2    c     0.892221    0.665090    0.092735    0.000000
   159  O2    c     0.770595    0.102162    0.759006    0.000000
   160  O2    c     0.658466    0.757558    0.932573    0.000000
   161  O2    c     0.096922    0.332718    0.602041    0.000000
   162  O2    c     0.230374    0.890371    0.267647    0.000000
   163  O2    c     0.557769    0.554870    0.990765    0.000000
   164  O2    c     0.433769    0.994004    0.325695    0.000000
   165  O2    c     0.995901    0.434767    0.660586    0.000000
   166  O2    c     0.403987    0.431584    0.475441    0.000000
   167  O2    c     0.559212    0.967598    0.808339    0.000000
   168  O2    c     0.022078    0.582192    0.141936    0.000000
   169  O2    c     0.554985    0.553773    0.332954    0.000000
   170  O2    c     0.996769    0.433966    0.999266    0.000000
   171  O2    c     0.433308    0.994451    0.664947    0.000000
   172  O2    c     0.430164    0.404783    0.846308    0.000000
   173  O2    c     0.962304    0.557126    0.515557    0.000000
   174  O2    c     0.587873    0.023308    0.180422    0.000000
   175  O2    c     0.569921    0.139932    0.255466    0.000000
   176  O2    c     0.847032    0.422543    0.590983    0.000000
   177  O2    c     0.567993    0.420785    0.920087    0.000000
   178  O2    c     0.420434    0.845621    0.734614    0.000000
   179  O2    c     0.147552    0.569858    0.068238    0.000000
   180  O2    c     0.416889    0.568430    0.401535    0.000000
   181  F     c     0.435785    0.851830    0.255126    0.000000
   182  F     c     0.135806    0.576528    0.589436    0.000000
   183  F     c     0.412498    0.553799    0.920803    0.000000
   184  F     c     0.576601    0.136833    0.735105    0.000000
   185  F     c     0.847474    0.427636    0.071662    0.000000
   186  F     c     0.560370    0.411722    0.405575    0.000000
   187  O2    s     0.907812    0.994571    0.995738    0.000000
   188  O2    s     0.995100    0.904455    0.329550    0.000000
   189  O2    s     0.084824    0.085078    0.662401    0.000000
   190  O2    s     0.054927    0.995856    0.495734    0.000000
   191  O2    s     0.995747    0.058673    0.829253    0.000000
   192  O2    s     0.933557    0.930526    0.162365    0.000000
   193  O3    s     0.350462    0.562789    0.319213    0.000000
   194  O3    s     0.425724    0.781455    0.652586    0.000000
   195  O3    s     0.210678    0.638845    0.986069    0.000000
   196  O2    s     0.635356    0.398540    0.838943    0.000000
   197  O3    s     0.584829    0.227799    0.175148    0.000000
   198  O3    s     0.758317    0.350263    0.510584    0.000000
   199  O3    s     0.563582    0.348448    0.000901    0.000000
   200  O3    s     0.781648    0.426585    0.672262    0.000000
   201  O3    s     0.640798    0.206516    0.336308    0.000000
   202  O2    s     0.393749    0.634940    0.483358    0.000000
   203  O2    s     0.235340    0.591575    0.150054    0.000000
   204  O2    s     0.353537    0.757896    0.816632    0.000000
   205  O2    s     0.106085    0.197389    0.964491    0.000000
   206  O2    s     0.792075    0.900926    0.298868    0.000000
   207  O2    s     0.087389    0.883907    0.633322    0.000000
   208  O2    s     0.864004    0.782921    0.462043    0.000000
   209  O2    s     0.215131    0.086278    0.796364    0.000000
   210  O2    s     0.912873    0.122080    0.128186    0.000000
   211  O2    s     0.202097    0.105334    0.357242    0.000000
   212  O2    s     0.901690    0.787124    0.023386    0.000000
   213  O2    s     0.883588    0.088613    0.690625    0.000000
   214  O2    s     0.773507    0.865579    0.859424    0.000000
   215  O2    s     0.081841    0.214698    0.528824    0.000000
   216  O2    s     0.126594    0.903978    0.194454    0.000000
   217  O2    s     0.932756    0.854596    0.244367    0.000000
   218  O2    s     0.131171    0.067668    0.577482    0.000000
   219  O2    s     0.916629    0.056224    0.910558    0.000000
   220  O2    s     0.065991    0.131354    0.747172    0.000000
   221  O2    s     0.855561    0.923092    0.080123    0.000000
   222  O2    s     0.064105    0.923701    0.414115    0.000000
   223  O2    s     0.898443    0.196692    0.973196    0.000000
   224  O2    s     0.792887    0.693769    0.307041    0.000000
   225  O2    s     0.294649    0.092784    0.639640    0.000000
   226  O2    s     0.071769    0.789406    0.482038    0.000000
   227  O2    s     0.198120    0.282328    0.813494    0.000000
   228  O2    s     0.711137    0.914042    0.147370    0.000000
   229  O2    s     0.196966    0.894245    0.350915    0.000000
   230  O2    s     0.695791    0.791793    0.016066    0.000000
   231  O2    s     0.094028    0.295762    0.685121    0.000000
   232  O2    s     0.791228    0.078348    0.842009    0.000000
   233  O2    s     0.275957    0.199127    0.509632    0.000000
   234  O2    s     0.916869    0.709903    0.176069    0.000000
   235  O3    s     0.314439    0.630369    0.233336    0.000000
   236  O3    s     0.356821    0.676343    0.566849    0.000000
   237  O3    s     0.314091    0.677874    0.899995    0.000000
   238  O3    s     0.674146    0.358067    0.756229    0.000000
   239  O1    s     0.624215    0.307521    0.085021    0.000000
   240  O1    s     0.681823    0.310247    0.419951    0.000000
   241  O2    s     0.359673    0.336308    0.967504    0.000000
   242  O2    s     0.652874    0.015023    0.302601    0.000000
   243  O2    s     0.972097    0.630551    0.637569    0.000000
   244  O2    s     0.608222    0.646367    0.456683    0.000000
   245  O2    s     0.345120    0.961788    0.789834    0.000000
   246  O2    s     0.032483    0.377868    0.123206    0.000000
   247  O2    s     0.336374    0.359765    0.355142    0.000000
   248  O2    s     0.020985    0.652095    0.021686    0.000000
   249  O2    s     0.629184    0.970652    0.687750    0.000000
   250  O2    s     0.644065    0.611828    0.865012    0.000000
   251  O2    s     0.961638    0.345951    0.535624    0.000000
   252  O2    s     0.377839    0.024646    0.200726    0.000000
   253  O3    s     0.758456    0.287119    0.005368    0.000000
   254  O3    s     0.702757    0.463488    0.339577    0.000000
   255  O3    s     0.525143    0.233224    0.671829    0.000000
   256  O2    s     0.209082    0.682981    0.508559    0.000000
   257  O2    s     0.303457    0.524636    0.840763    0.000000
   258  O2    s     0.467989    0.776620    0.174484    0.000000
   259  O3    s     0.288696    0.754595    0.318456    0.000000
   260  O3    s     0.465045    0.701379    0.983984    0.000000
   261  O3    s     0.234617    0.527050    0.652309    0.000000
   262  O2    s     0.684694    0.214040    0.815032    0.000000
   263  O3    s     0.512315    0.297622    0.484543    0.000000
   264  O3    s     0.779658    0.474548    0.150384    0.000000
   265  O3    s     0.779625    0.542674    0.021261    0.000000
   266  O3    s     0.446854    0.228880    0.355316    0.000000
   267  O3    s     0.762373    0.211473    0.687078    0.000000
   268  O2    s     0.203519    0.466013    0.527788    0.000000
   269  O2    s     0.522724    0.733304    0.859454    0.000000
   270  O2    s     0.256819    0.782752    0.193720    0.000000
   271  O3    s     0.547883    0.774683    0.301457    0.000000
   272  O3    s     0.224985    0.442063    0.968008    0.000000
   273  O3    s     0.212776    0.765085    0.635857    0.000000
   274  O2    s     0.465536    0.204062    0.796726    0.000000
   275  O3    s     0.740563    0.538440    0.465873    0.000000
   276  O3    s     0.792041    0.246203    0.131603    0.000000
   277  O2    s     0.227548    0.332975    0.896372    0.000000
   278  O2    s     0.658684    0.891235    0.230444    0.000000
   279  O2    s     0.095895    0.759674    0.565100    0.000000
   280  O2    s     0.750507    0.650992    0.391231    0.000000
   281  O2    s     0.339184    0.096194    0.724131    0.000000
   282  O2    s     0.896710    0.237491    0.057352    0.000000
   283  O2    s     0.330498    0.227737    0.426082    0.000000
   284  O2    s     0.893475    0.657526    0.092339    0.000000
   285  O2    s     0.761540    0.100425    0.758798    0.000000
   286  O2    s     0.650550    0.750229    0.931515    0.000000
   287  O2    s     0.097132    0.340580    0.600954    0.000000
   288  O2    s     0.238053    0.890210    0.266569    0.000000
   289  O2    s     0.556119    0.555348    0.987792    0.000000
   290  O2    s     0.433396    0.991873    0.322752    0.000000
   291  O2    s     0.997718    0.436183    0.657621    0.000000
   292  O2    s     0.407555    0.431513    0.472946    0.000000
   293  O2    s     0.559404    0.972163    0.805807    0.000000
   294  O2    s     0.018473    0.578677    0.139432    0.000000
   295  O2    s     0.555588    0.552856    0.335749    0.000000
   296  O2    s     0.995171    0.433346    0.002074    0.000000
   297  O2    s     0.434667    0.996265    0.667834    0.000000
   298  O2    s     0.429899    0.408959    0.848908    0.000000
   299  O2    s     0.967335    0.557857    0.518122    0.000000
   300  O2    s     0.583682    0.018382    0.183026    0.000000
   301  O2    s     0.566192    0.131506    0.254870    0.000000
   302  O2    s     0.855441    0.427271    0.590343    0.000000
   303  O2    s     0.562907    0.424379    0.919405    0.000000
   304  O2    s     0.425495    0.854399    0.735335    0.000000
   305  O2    s     0.138689    0.566068    0.068892    0.000000
   306  O2    s     0.420745    0.563434    0.402219    0.000000
   307  F     s     0.431511    0.840141    0.257486    0.000000
   308  F     s     0.147541    0.583946    0.591756    0.000000
   309  F     s     0.405131    0.558079    0.923221    0.000000
   310  F     s     0.583911    0.148424    0.732763    0.000000
   311  F     s     0.837089    0.423484    0.070061    0.000000
   312  F     s     0.564645    0.405385    0.403931    0.000000
--------------------------------------------------------------------------------

  Final Cartesian lattice vectors (Angstroms) :

       12.026942    0.004691   -0.027721
       -6.011971   10.426651    0.002795
        0.096455    0.078447   29.544286


  Final cell parameters and derivatives :

--------------------------------------------------------------------------------
       a           12.026975 Angstrom     dE/de1(xx)    -0.000436 eV/strain
       b           12.035732 Angstrom     dE/de2(yy)    -0.000337 eV/strain
       c           29.544547 Angstrom     dE/de3(zz)    -0.000826 eV/strain
       alpha       89.948336 Degrees      dE/de4(yz)    -0.000092 eV/strain
       beta        89.944946 Degrees      dE/de5(xz)     0.000156 eV/strain
       gamma      119.945202 Degrees      dE/de6(xy)     0.000010 eV/strain
--------------------------------------------------------------------------------

  Primitive cell volume =          3705.746317 Angs**3

  Density of cell =      1.826281 g/cm**3

  Non-primitive cell volume =          3705.746317 Angs**3


  Final internal derivatives :

--------------------------------------------------------------------------------
   No.  Atomic          a             b             c           Radius
        Label          (eV)          (eV)          (eV)        (eV/Angs)
--------------------------------------------------------------------------------
      1 Ge    c       0.000000      0.000000      0.000000      0.000000
      2 Ge    c      -0.000173      0.000368      0.002563      0.000000
      3 Ge    c      -0.000010      0.000088     -0.000174      0.000000
      4 Si    c      -0.000137      0.000084      0.000327      0.000000
      5 Si    c      -0.000064      0.000051      0.000191      0.000000
      6 Si    c      -0.000069      0.000066     -0.000337      0.000000
      7 Ge    c      -0.000044     -0.000013      0.000304      0.000000
      8 Ge    c      -0.000062      0.000110     -0.000118      0.000000
      9 Ge    c       0.000087      0.000033      0.000043      0.000000
     10 Si    c       0.000085     -0.000112     -0.000135      0.000000
     11 Ge    c       0.000276     -0.000532     -0.001553      0.000000
     12 Ge    c      -0.000521     -0.000183      0.001114      0.000000
     13 Si    c      -0.000312      0.000150     -0.001044      0.000000
     14 Si    c       0.000006      0.000157      0.000402      0.000000
     15 Si    c      -0.000186     -0.000010      0.000214      0.000000
     16 Si    c      -0.000049      0.000029     -0.000230      0.000000
     17 Si    c      -0.000015      0.000040      0.000236      0.000000
     18 Si    c      -0.000164      0.000108     -0.000621      0.000000
     19 Si    c      -0.000065      0.000052      0.000060      0.000000
     20 Si    c      -0.000006     -0.000126      0.000341      0.000000
     21 Si    c       0.000024     -0.000141     -0.000395      0.000000
     22 Si    c       0.000039     -0.000097      0.000053      0.000000
     23 Si    c       0.000019     -0.000093      0.000271      0.000000
     24 Si    c       0.000134     -0.000215      0.000003      0.000000
     25 Si    c      -0.000013     -0.000053      0.000131      0.000000
     26 Si    c      -0.000057      0.000027     -0.000289      0.000000
     27 Si    c       0.000097     -0.000139      0.000338      0.000000
     28 Si    c       0.000004     -0.000019      0.000255      0.000000
     29 Si    c       0.000091      0.000068     -0.000199      0.000000
     30 Si    c       0.000434     -0.000257     -0.000412      0.000000
     31 Si    c       0.000024      0.000016     -0.000693      0.000000
     32 Si    c       0.000176      0.000023     -0.001048      0.000000
     33 Si    c      -0.000158      0.000128      0.000016      0.000000
     34 Si    c      -0.000133      0.000110     -0.000218      0.000000
     35 Si    c       0.000053      0.000060     -0.000033      0.000000
     36 Si    c      -0.000106     -0.000062      0.000262      0.000000
     37 Si    c      -0.000016      0.000101      0.000008      0.000000
     38 Si    c      -0.000026     -0.000033      0.000149      0.000000
     39 Si    c       0.000091     -0.000043      0.000033      0.000000
     40 Si    c       0.000021     -0.000008     -0.000167      0.000000
     41 Si    c       0.000174     -0.000014      0.000009      0.000000
     42 Si    c       0.000165      0.000100     -0.000658      0.000000
     43 Si    c      -0.000020      0.000003      0.000215      0.000000
     44 Si    c       0.000047     -0.000497      0.000657      0.000000
     45 Si    c      -0.000075      0.000115     -0.000135      0.000000
     46 Si    c      -0.000096      0.000067      0.000052      0.000000
     47 Si    c      -0.000067      0.000165      0.000170      0.000000
     48 Si    c       0.000105     -0.000095      0.000175      0.000000
     49 Si    c       0.000010     -0.000011      0.000061      0.000000
     50 Si    c       0.000001      0.000012     -0.000206      0.000000
     51 Si    c       0.000114     -0.000082     -0.000574      0.000000
     52 Si    c       0.000063      0.000087     -0.000316      0.000000
     53 Si    c       0.000151     -0.000046      0.000080      0.000000
     54 Si    c       0.000055     -0.000126     -0.000262      0.000000
     55 Si    c       0.000077      0.000004      0.000519      0.000000
     56 Si    c       0.000020      0.000146      0.000196      0.000000
     57 Si    c      -0.000173      0.000041      0.000282      0.000000
     58 Si    c      -0.000028      0.000060      0.000065      0.000000
     59 Si    c       0.000038      0.000082     -0.000255      0.000000
     60 Si    c       0.000083     -0.000032     -0.000246      0.000000
     61 O2    c      -0.000133      0.000006      0.000196      0.000000
     62 O2    c      -0.000004      0.000008     -0.000014      0.000000
     63 O2    c      -0.000031      0.000036      0.000140      0.000000
     64 O2    c      -0.000161     -0.000127     -0.000264      0.000000
     65 O2    c      -0.000135     -0.000052      0.000237      0.000000
     66 O2    c      -0.000029      0.000012     -0.000090      0.000000
     67 O3    c       0.000027      0.000195     -0.000170      0.000000
     68 O3    c      -0.000285      0.000156      0.000345      0.000000
     69 O3    c       0.000126     -0.000164      0.000202      0.000000
     70 O2    c      -0.000158      0.000186      0.000250      0.000000
     71 O3    c      -0.000170      0.000629     -0.000529      0.000000
     72 O3    c       0.000124     -0.000116      0.000169      0.000000
     73 O3    c      -0.000390     -0.000476      0.000261      0.000000
     74 O3    c       0.000254     -0.000376     -0.000185      0.000000
     75 O3    c       0.000036     -0.000288     -0.000591      0.000000
     76 O2    c       0.000099     -0.000139     -0.000198      0.000000
     77 O2    c       0.000002      0.000096      0.000282      0.000000
     78 O2    c       0.000047     -0.000034      0.000123      0.000000
     79 O2    c      -0.000006      0.000004     -0.000004      0.000000
     80 O2    c       0.000042     -0.000087      0.000040      0.000000
     81 O2    c       0.000006      0.000183     -0.000176      0.000000
     82 O2    c      -0.000105     -0.000024     -0.000039      0.000000
     83 O2    c      -0.000175      0.000112      0.000007      0.000000
     84 O2    c       0.000011      0.000015      0.000001      0.000000
     85 O2    c       0.000054     -0.000250      0.000201      0.000000
     86 O2    c       0.000146     -0.000144     -0.000120      0.000000
     87 O2    c       0.000250     -0.000007      0.000127      0.000000
     88 O2    c       0.000007     -0.000053     -0.000010      0.000000
     89 O2    c      -0.000042      0.000011     -0.000112      0.000000
     90 O2    c      -0.000102      0.000058     -0.000029      0.000000
     91 O2    c      -0.000126      0.000071      0.000434      0.000000
     92 O2    c       0.000125     -0.000302      0.001876      0.000000
     93 O2    c      -0.000035      0.000023     -0.000239      0.000000
     94 O2    c      -0.000104      0.000133     -0.000695      0.000000
     95 O2    c      -0.000022      0.000031     -0.000029      0.000000
     96 O2    c       0.000009      0.000055     -0.000691      0.000000
     97 O2    c       0.000015      0.000025      0.000157      0.000000
     98 O2    c      -0.000017      0.000034      0.000035      0.000000
     99 O2    c      -0.000176     -0.000047      0.000123      0.000000
    100 O2    c      -0.000021      0.000012     -0.000048      0.000000
    101 O2    c       0.000021      0.000065      0.000105      0.000000
    102 O2    c       0.000072     -0.000033     -0.000015      0.000000
    103 O2    c      -0.000091      0.000211     -0.000244      0.000000
    104 O2    c       0.000005      0.000012     -0.000105      0.000000
    105 O2    c      -0.000040     -0.000057     -0.000107      0.000000
    106 O2    c       0.000098     -0.000070      0.000143      0.000000
    107 O2    c       0.000058      0.000050     -0.000095      0.000000
    108 O2    c       0.000011      0.000076      0.000063      0.000000
    109 O3    c      -0.000001     -0.000121      0.000046      0.000000
    110 O3    c      -0.000071     -0.000029     -0.000198      0.000000
    111 O3    c       0.000151     -0.000108     -0.000254      0.000000
    112 O3    c       0.000016     -0.000041      0.000056      0.000000
    113 O1    c      -0.001287     -0.000234     -0.002379      0.000000
    114 O1    c      -0.000623      0.000806      0.000365      0.000000
    115 O2    c      -0.000144      0.000001      0.000082      0.000000
    116 O2    c       0.000208     -0.000228     -0.000007      0.000000
    117 O2    c       0.000005      0.000003      0.000017      0.000000
    118 O2    c      -0.000056      0.000007      0.000008      0.000000
    119 O2    c      -0.000043      0.000096     -0.000093      0.000000
    120 O2    c      -0.000042     -0.000037     -0.000101      0.000000
    121 O2    c       0.000016     -0.000014      0.000027      0.000000
    122 O2    c      -0.000041      0.000054      0.000139      0.000000
    123 O2    c       0.000017      0.000017     -0.000007      0.000000
    124 O2    c      -0.000005      0.000027     -0.000079      0.000000
    125 O2    c       0.000090     -0.000035      0.000060      0.000000
    126 O2    c      -0.000440     -0.000024      0.000036      0.000000
    127 O3    c       0.000048     -0.000872     -0.002210      0.000000
    128 O3    c       0.000013      0.000270     -0.000579      0.000000
    129 O3    c       0.000009     -0.000072      0.000188      0.000000
    130 O2    c       0.000008     -0.000041      0.000103      0.000000
    131 O2    c      -0.000039      0.000176     -0.000093      0.000000
    132 O2    c      -0.000090     -0.000050     -0.000034      0.000000
    133 O3    c       0.000149     -0.000281     -0.000066      0.000000
    134 O3    c       0.000030     -0.000031      0.000020      0.000000
    135 O3    c      -0.000067     -0.000016     -0.000012      0.000000
    136 O2    c      -0.000023     -0.000009     -0.000176      0.000000
    137 O3    c      -0.000322      0.000051      0.000206      0.000000
    138 O3    c       0.000114      0.000583      0.001394      0.000000
    139 O3    c       0.000344      0.000890     -0.000003      0.000000
    140 O3    c      -0.000285     -0.000059     -0.000393      0.000000
    141 O3    c       0.000045     -0.000278      0.000430      0.000000
    142 O2    c      -0.000072     -0.000106      0.000304      0.000000
    143 O2    c       0.000075     -0.000033      0.000095      0.000000
    144 O2    c      -0.000161      0.000271      0.000231      0.000000
    145 O3    c       0.000092      0.000110     -0.000232      0.000000
    146 O3    c       0.000145     -0.000421      0.000085      0.000000
    147 O3    c      -0.000237      0.000029     -0.000363      0.000000
    148 O2    c      -0.000148     -0.000110     -0.000370      0.000000
    149 O3    c      -0.000056      0.000464     -0.000353      0.000000
    150 O3    c       0.001505     -0.001270      0.000188      0.000000
    151 O2    c       0.000005     -0.000008      0.000384      0.000000
    152 O2    c       0.000180     -0.000082      0.001060      0.000000
    153 O2    c       0.000047     -0.000061      0.000005      0.000000
    154 O2    c      -0.000078      0.000011     -0.000259      0.000000
    155 O2    c      -0.000033     -0.000015      0.000561      0.000000
    156 O2    c       0.000009      0.000020      0.000345      0.000000
    157 O2    c       0.000069      0.000091      0.000022      0.000000
    158 O2    c       0.000024     -0.000201      0.000480      0.000000
    159 O2    c       0.000020      0.000014     -0.000078      0.000000
    160 O2    c       0.000004     -0.000034     -0.000133      0.000000
    161 O2    c      -0.000050      0.000008     -0.000520      0.000000
    162 O2    c      -0.000121      0.000123     -0.001496      0.000000
    163 O2    c      -0.000091      0.000052     -0.000125      0.000000
    164 O2    c       0.000197      0.000084      0.000303      0.000000
    165 O2    c       0.000039     -0.000023     -0.000010      0.000000
    166 O2    c       0.000039     -0.000109     -0.000020      0.000000
    167 O2    c       0.000031      0.000027     -0.000061      0.000000
    168 O2    c      -0.000184      0.000122     -0.000082      0.000000
    169 O2    c       0.000072     -0.000002      0.000006      0.000000
    170 O2    c       0.000035      0.000143      0.000190      0.000000
    171 O2    c       0.000039     -0.000036      0.000062      0.000000
    172 O2    c       0.000035      0.000000     -0.000041      0.000000
    173 O2    c       0.000062      0.000080      0.000088      0.000000
    174 O2    c      -0.000082      0.000139      0.000079      0.000000
    175 O2    c       0.000025      0.000087      0.000567      0.000000
    176 O2    c       0.000063     -0.000007      0.000205      0.000000
    177 O2    c      -0.000114      0.000078      0.000013      0.000000
    178 O2    c       0.000019     -0.000005     -0.000315      0.000000
    179 O2    c      -0.000130      0.000037      0.000019      0.000000
    180 O2    c       0.000059     -0.000061     -0.000004      0.000000
    181 F     c      -0.000017      0.000013      0.000135      0.000000
    182 F     c       0.000046      0.000003      0.000077      0.000000
    183 F     c      -0.000022      0.000025      0.000005      0.000000
    184 F     c       0.000001      0.000032     -0.000070      0.000000
    185 F     c      -0.000056      0.000131      0.000847      0.000000
    186 F     c       0.000401     -0.000414      0.000570      0.000000
    187 O2    s       0.000058     -0.000034      0.000139      0.000000
    188 O2    s       0.000061     -0.000018      0.000071      0.000000
    189 O2    s       0.000024     -0.000059     -0.000108      0.000000
    190 O2    s      -0.000080      0.000046     -0.000158      0.000000
    191 O2    s       0.000073     -0.000055     -0.000019      0.000000
    192 O2    s       0.000005      0.000006      0.000009      0.000000
    193 O3    s       0.000058     -0.000112      0.000236      0.000000
    194 O3    s       0.000069     -0.000011     -0.000090      0.000000
    195 O3    s      -0.000112      0.000136     -0.000014      0.000000
    196 O2    s       0.000036     -0.000067      0.000090      0.000000
    197 O3    s       0.000128     -0.000158     -0.000133      0.000000
    198 O3    s      -0.000081      0.000211     -0.000101      0.000000
    199 O3    s       0.000339      0.000232     -0.000046      0.000000
    200 O3    s      -0.000036      0.000082     -0.000135      0.000000
    201 O3    s      -0.000013      0.000156      0.000051      0.000000
    202 O2    s       0.000005      0.000002      0.000049      0.000000
    203 O2    s       0.000062     -0.000046     -0.000005      0.000000
    204 O2    s      -0.000009     -0.000030      0.000088      0.000000
    205 O2    s       0.000053      0.000011     -0.000179      0.000000
    206 O2    s      -0.000034     -0.000044     -0.000095      0.000000
    207 O2    s       0.000133      0.000052     -0.000262      0.000000
    208 O2    s       0.000081     -0.000056     -0.000144      0.000000
    209 O2    s       0.000118     -0.000037     -0.000141      0.000000
    210 O2    s      -0.000129      0.000074     -0.000143      0.000000
    211 O2    s       0.000114     -0.000118      0.000339      0.000000
    212 O2    s      -0.000192      0.000094      0.000062      0.000000
    213 O2    s       0.000031      0.000038      0.000053      0.000000
    214 O2    s      -0.000039      0.000033      0.000135      0.000000
    215 O2    s      -0.000045      0.000113      0.000311      0.000000
    216 O2    s       0.000088     -0.000075      0.000235      0.000000
    217 O2    s       0.000035     -0.000031     -0.000141      0.000000
    218 O2    s       0.000096      0.000046     -0.000089      0.000000
    219 O2    s       0.000011      0.000003      0.000044      0.000000
    220 O2    s       0.000001     -0.000001     -0.000190      0.000000
    221 O2    s      -0.000037      0.000049     -0.000038      0.000000
    222 O2    s       0.000129     -0.000073      0.000010      0.000000
    223 O2    s      -0.000015      0.000013      0.000114      0.000000
    224 O2    s      -0.000024      0.000054      0.000086      0.000000
    225 O2    s      -0.000145     -0.000070     -0.000145      0.000000
    226 O2    s       0.000035     -0.000047      0.000014      0.000000
    227 O2    s       0.000047     -0.000014     -0.000105      0.000000
    228 O2    s       0.000044      0.000046     -0.000369      0.000000
    229 O2    s      -0.000244      0.000219      0.000496      0.000000
    230 O2    s       0.000062     -0.000089      0.000128      0.000000
    231 O2    s      -0.000052     -0.000064      0.000074      0.000000
    232 O2    s      -0.000027      0.000005     -0.000050      0.000000
    233 O2    s       0.000175     -0.000048     -0.000093      0.000000
    234 O2    s       0.000009     -0.000046     -0.000043      0.000000
    235 O3    s       0.000021      0.000053     -0.000025      0.000000
    236 O3    s      -0.000003      0.000039      0.000151      0.000000
    237 O3    s      -0.000072      0.000008      0.000006      0.000000
    238 O3    s      -0.000007     -0.000008     -0.000218      0.000000
    239 O1    s       0.001759      0.000406      0.002758      0.000000
    240 O1    s       0.000601     -0.000793      0.000436      0.000000
    241 O2    s      -0.000066      0.000066     -0.000444      0.000000
    242 O2    s      -0.000041     -0.000009     -0.000078      0.000000
    243 O2    s       0.000035     -0.000058     -0.000136      0.000000
    244 O2    s       0.000025     -0.000053      0.000012      0.000000
    245 O2    s       0.000012      0.000079     -0.000018      0.000000
    246 O2    s      -0.000036     -0.000135      0.000236      0.000000
    247 O2    s       0.000083     -0.000015      0.000101      0.000000
    248 O2    s       0.000003      0.000077     -0.000351      0.000000
    249 O2    s      -0.000050      0.000022      0.000099      0.000000
    250 O2    s       0.000010     -0.000026      0.000177      0.000000
    251 O2    s       0.000031      0.000043      0.000054      0.000000
    252 O2    s      -0.000001     -0.000218     -0.000079      0.000000
    253 O3    s      -0.000163      0.000623      0.001636      0.000000
    254 O3    s      -0.000226      0.000048      0.000458      0.000000
    255 O3    s       0.000037      0.000043     -0.000029      0.000000
    256 O2    s      -0.000015      0.000024     -0.000005      0.000000
    257 O2    s      -0.000067      0.000053      0.000078      0.000000
    258 O2    s      -0.000008     -0.000111     -0.000281      0.000000
    259 O3    s      -0.000093     -0.000181      0.000336      0.000000
    260 O3    s       0.000049      0.000017     -0.000046      0.000000
    261 O3    s      -0.000007      0.000041     -0.000222      0.000000
    262 O2    s      -0.000001      0.000008      0.000080      0.000000
    263 O3    s       0.000203      0.000020      0.000004      0.000000
    264 O3    s      -0.000237     -0.000765     -0.002025      0.000000
    265 O3    s      -0.000738     -0.000142     -0.001255      0.000000
    266 O3    s       0.000017      0.000291      0.000509      0.000000
    267 O3    s      -0.000016      0.000198     -0.000341      0.000000
    268 O2    s      -0.000047      0.000047     -0.000025      0.000000
    269 O2    s      -0.000012     -0.000004     -0.000000      0.000000
    270 O2    s       0.000036      0.000035      0.000091      0.000000
    271 O3    s      -0.000035      0.000006     -0.000118      0.000000
    272 O3    s       0.000039      0.000137     -0.000413      0.000000
    273 O3    s       0.000110     -0.000006      0.000130      0.000000
    274 O2    s       0.000019     -0.000040      0.000086      0.000000
    275 O3    s      -0.000071     -0.000242      0.000152      0.000000
    276 O3    s      -0.001370      0.001137     -0.000810      0.000000
    277 O2    s       0.000001     -0.000038      0.000185      0.000000
    278 O2    s       0.000059     -0.000069      0.000315      0.000000
    279 O2    s      -0.000022      0.000035      0.000114      0.000000
    280 O2    s       0.000043     -0.000041     -0.000002      0.000000
    281 O2    s       0.000014     -0.000011     -0.000049      0.000000
    282 O2    s      -0.000104     -0.000005      0.000141      0.000000
    283 O2    s      -0.000078     -0.000098     -0.000106      0.000000
    284 O2    s       0.000040      0.000314      0.000529      0.000000
    285 O2    s      -0.000026     -0.000033     -0.000118      0.000000
    286 O2    s       0.000020      0.000003      0.000062      0.000000
    287 O2    s       0.000006      0.000011      0.000078      0.000000
    288 O2    s      -0.000080      0.000069     -0.000140      0.000000
    289 O2    s       0.000092      0.000082      0.000184      0.000000
    290 O2    s       0.000052      0.000095      0.000277      0.000000
    291 O2    s      -0.000041      0.000030      0.000000      0.000000
    292 O2    s       0.000017      0.000062     -0.000048      0.000000
    293 O2    s      -0.000005      0.000018      0.000043      0.000000
    294 O2    s       0.000000      0.000039      0.000453      0.000000
    295 O2    s       0.000064     -0.000076      0.000232      0.000000
    296 O2    s       0.000031     -0.000189     -0.000273      0.000000
    297 O2    s      -0.000002     -0.000045     -0.000091      0.000000
    298 O2    s       0.000074     -0.000046     -0.000027      0.000000
    299 O2    s      -0.000030     -0.000014     -0.000145      0.000000
    300 O2    s       0.000094      0.000016     -0.000573      0.000000
    301 O2    s       0.000058     -0.000043      0.000401      0.000000
    302 O2    s      -0.000032      0.000065     -0.000015      0.000000
    303 O2    s       0.000138     -0.000029     -0.000224      0.000000
    304 O2    s       0.000023      0.000005      0.000017      0.000000
    305 O2    s       0.000199     -0.000053     -0.000121      0.000000
    306 O2    s       0.000037     -0.000025      0.000088      0.000000
    307 F     s       0.000118     -0.000075     -0.000240      0.000000
    308 F     s       0.000026      0.000015      0.000029      0.000000
    309 F     s      -0.000017     -0.000020      0.000062      0.000000
    310 F     s       0.000010      0.000032      0.000029      0.000000
    311 F     s       0.000725     -0.000470      0.000409      0.000000
    312 F     s      -0.000366      0.000337     -0.001933      0.000000
--------------------------------------------------------------------------------
  Maximum abs         0.001759      0.001270      0.002758      0.000000
--------------------------------------------------------------------------------


  Time to end of optimisation =      23.6165 seconds


  Peak dynamic memory used =      19.13 MB 


  Timing analysis for GULP :

--------------------------------------------------------------------------------
  Task / Subroutine                                          Time (Seconds)
--------------------------------------------------------------------------------
  Calculation of reciprocal space energy and derivatives          0.5960
  Calculation of real space energy and derivatives               13.5149
  Calculation of three-body energy and derivatives                1.1930
--------------------------------------------------------------------------------
  Total CPU time                                                 23.6165
--------------------------------------------------------------------------------


  Dump file written as 8.3.res                                                 
  CIF file written as 8.3.cif                                                 


  Job Finished at 14:29.21 18th December   2016                               

