********************************************************************************
*                       GENERAL UTILITY LATTICE PROGRAM                        *
*                                 Julian Gale                                  *
*                      Nanochemistry Research Institute                        *
*                           Department of Chemistry                            *
*                    Curtin University, Western Australia                      *
********************************************************************************
* Version = 4.2.0 * Last modified =  20th January 2014                         *
********************************************************************************
*  optimise     - perform optimisation run                                     *
*  conp         - constant pressure calculation                                *
*  qok          - running with non charge neutral cell is OK                   *
********************************************************************************

  Job Started  at 00:38.36 27th October    2016                               

  Number of CPUs =     1


  Total number of configurations input =   1

********************************************************************************
*  Input for Configuration =   1                                               *
********************************************************************************

  Formula = Ge3Si57O120F6                                               

  Number of irreducible atoms/shells =     312


  Total number atoms/shells =     312

  Dimensionality = 3               :  Bulk   


  Charge on solid   =  -6.000000 =>neutralising background added


  Cartesian lattice vectors (Angstroms) :

       11.937912    0.000000    0.000000
       -5.969367   10.395242    0.000000
        0.068856   -0.278121   29.519655

  Cell parameters (Angstroms/Degrees):

  a =      11.9379    alpha =  90.5347
  b =      11.9873    beta  =  89.8664
  c =      29.5210    gamma = 119.8662

  Initial cell volume =        3663.314965 Angs**3

  Temperature of configuration =  0.000     K 

  Pressure of configuration =         0.000 GPa 

  Fractional coordinates of asymmetric unit :

--------------------------------------------------------------------------------
   No.  Atomic       x           y          z         Charge      Occupancy
        Label      (Frac)      (Frac)     (Frac)        (e)         (Frac)  
--------------------------------------------------------------------------------
      1 Ge    c    0.699600    0.375700    0.033890     4.00000    1.000000    
      2 Si    c    0.620979 *  0.320862 *  0.366685 *   4.00000    1.000000    
      3 Si    c    0.676743 *  0.301721 *  0.697555 *   4.00000    1.000000    
      4 Si    c    0.295937 *  0.620171 *  0.529625 *   4.00000    1.000000    
      5 Si    c    0.369451 *  0.682451 *  0.861318 *   4.00000    1.000000    
      6 Si    c    0.322537 *  0.701179 *  0.195948 *   4.00000    1.000000    
      7 Si    c    0.372978 *  0.696113 *  0.296833 *   4.00000    1.000000    
      8 Ge    c    0.328188 *  0.612852 *  0.958988 *   4.00000    1.000000    
      9 Si    c    0.297994 *  0.676800 *  0.630096 *   4.00000    1.000000    
     10 Si    c    0.618585 *  0.298500 *  0.797825 *   4.00000    1.000000    
     11 Si    c    0.675957 *  0.382463 *  0.466618 *   4.00000    1.000000    
     12 Si    c    0.688397 *  0.318855 *  0.132487 *   4.00000    1.000000    
     13 Si    c    0.525832 *  0.415375 *  0.967082 *   4.00000    1.000000    
     14 Si    c    0.579063 *  0.109569 *  0.301691 *   4.00000    1.000000    
     15 Si    c    0.888111 *  0.472996 *  0.633396 *   4.00000    1.000000    
     16 Si    c    0.468720 *  0.584431 *  0.463879 *   4.00000    1.000000    
     17 Si    c    0.416677 *  0.890113 *  0.794417 *   4.00000    1.000000    
     18 Si    c    0.111896 *  0.531738 *  0.128462 *   4.00000    1.000000    
     19 Si    c    0.414660 *  0.528100 *  0.362386 *   4.00000    1.000000    
     20 Si    c    0.111209 *  0.580569 *  0.024853 *   4.00000    1.000000    
     21 Si    c    0.471398 *  0.891206 *  0.693273 *   4.00000    1.000000    
     22 Si    c    0.579420 *  0.469915 *  0.864318 *   4.00000    1.000000    
     23 Si    c    0.885300 *  0.418728 *  0.531851 *   4.00000    1.000000    
     24 Si    c    0.531416 *  0.112456 *  0.200459 *   4.00000    1.000000    
     25 Si    c    0.292908 *  0.399107 *  0.849848 *   4.00000    1.000000    
     26 Si    c    0.603292 *  0.903500 *  0.184060 *   4.00000    1.000000    
     27 Si    c    0.093895 *  0.697820 *  0.516828 *   4.00000    1.000000    
     28 Si    c    0.695474 *  0.595585 *  0.349056 *   4.00000    1.000000    
     29 Si    c    0.399373 *  0.100339 *  0.681061 *   4.00000    1.000000    
     30 Si    c    0.892324 *  0.294467 *  0.011852 *   4.00000    1.000000    
     31 Si    c    0.396472 *  0.305567 *  0.480723 *   4.00000    1.000000    
     32 Si    c    0.895694 *  0.601931 *  0.142656 *   4.00000    1.000000    
     33 Si    c    0.696587 *  0.097485 *  0.811235 *   4.00000    1.000000    
     34 Si    c    0.600423 *  0.702843 *  0.982061 *   4.00000    1.000000    
     35 Si    c    0.097736 *  0.400808 *  0.646210 *   4.00000    1.000000    
     36 Si    c    0.298053 *  0.899041 *  0.312678 *   4.00000    1.000000    
     37 Si    c    0.240392 *  0.332542 *  0.951362 *   4.00000    1.000000    
     38 Si    c    0.653777 *  0.907051 *  0.284933 *   4.00000    1.000000    
     39 Si    c    0.089251 *  0.750533 *  0.617443 *   4.00000    1.000000    
     40 Si    c    0.748131 *  0.661917 *  0.449089 *   4.00000    1.000000    
     41 Si    c    0.338226 *  0.090840 *  0.781328 *   4.00000    1.000000    
     42 Si    c    0.904893 *  0.250602 *  0.114262 *   4.00000    1.000000    
     43 Si    c    0.340391 *  0.251857 *  0.380156 *   4.00000    1.000000    
     44 Si    c    0.903391 *  0.657682 *  0.040584 *   4.00000    1.000000    
     45 Si    c    0.749233 *  0.092803 *  0.710636 *   4.00000    1.000000    
     46 Si    c    0.654828 *  0.750626 *  0.879283 *   4.00000    1.000000    
     47 Si    c    0.086903 *  0.340849 *  0.545607 *   4.00000    1.000000    
     48 Si    c    0.251337 *  0.910357 *  0.212195 *   4.00000    1.000000    
     49 Si    c    0.967321 *  0.114264 *  0.963032 *   4.00000    1.000000    
     50 Ge    c    0.876278 *  0.845775 *  0.298729 *   4.00000    1.000000    
     51 Si    c    0.150458 *  0.030638 *  0.631258 *   4.00000    1.000000    
     52 Si    c    0.028558 *  0.878647 *  0.465707 *   4.00000    1.000000    
     53 Si    c    0.118287 *  0.150434 *  0.797439 *   4.00000    1.000000    
     54 Si    c    0.851127 *  0.975127 *  0.131455 *   4.00000    1.000000    
     55 Si    c    0.123816 *  0.971596 *  0.365234 *   4.00000    1.000000    
     56 Si    c    0.853629 *  0.880518 *  0.030838 *   4.00000    1.000000    
     57 Si    c    0.029295 *  0.153892 *  0.696299 *   4.00000    1.000000    
     58 Si    c    0.874089 *  0.026354 *  0.861952 *   4.00000    1.000000    
     59 Si    c    0.148707 *  0.122977 *  0.530844 *   4.00000    1.000000    
     60 Si    c    0.973882 *  0.853022 *  0.194822 *   4.00000    1.000000    
     61 O2    c    0.922532 *  0.997207 *  0.996706 *   0.87073    1.000000    
     62 O3    c    0.003478 *  0.936966 *  0.334047 *   1.33043    1.000000    
     63 O2    c    0.070629 *  0.072449 *  0.664096 *   0.87073    1.000000    
     64 O2    c    0.070055 *  0.000861 *  0.498218 *   0.87073    1.000000    
     65 O2    c    0.996004 *  0.067512 *  0.829322 *   0.87073    1.000000    
     66 O2    c    0.935555 *  0.937578 *  0.163343 *   0.87073    1.000000    
     67 O2    c    0.336411 *  0.573474 *  0.329184 *   0.87073    1.000000    
     68 O2    c    0.424340 *  0.765293 *  0.661134 *   0.87073    1.000000    
     69 O3    c    0.232688 *  0.654483 *  0.994187 *   1.33043    1.000000    
     70 O2    c    0.654532 *  0.420279 *  0.831389 *   0.87073    1.000000    
     71 O2    c    0.580431 *  0.240350 *  0.170675 *   0.87073    1.000000    
     72 O2    c    0.758459 *  0.343558 *  0.499939 *   0.87073    1.000000    
     73 O3    c    0.566948 *  0.336478 *  0.998508 *   1.33043    1.000000    
     74 O2    c    0.763082 *  0.425632 *  0.666002 *   0.87073    1.000000    
     75 O2    c    0.657751 *  0.232717 *  0.335018 *   0.87073    1.000000    
     76 O2    c    0.417969 *  0.660280 *  0.496225 *   0.87073    1.000000    
     77 O2    c    0.236766 *  0.581485 *  0.161509 *   0.87073    1.000000    
     78 O2    c    0.338417 *  0.761813 *  0.824149 *   0.87073    1.000000    
     79 O2    c    0.122002 *  0.194777 *  0.967239 *   0.87073    1.000000    
     80 O3    c    0.776926 *  0.909596 *  0.306916 *   1.33043    1.000000    
     81 O2    c    0.089325 *  0.877315 *  0.637292 *   0.87073    1.000000    
     82 O2    c    0.873583 *  0.789244 *  0.469241 *   0.87073    1.000000    
     83 O2    c    0.210783 *  0.088610 *  0.801614 *   0.87073    1.000000    
     84 O2    c    0.908993 *  0.128705 *  0.135870 *   0.87073    1.000000    
     85 O2    c    0.216307 *  0.124853 *  0.360172 *   0.87073    1.000000    
     86 O2    c    0.924549 *  0.797508 *  0.025196 *   0.87073    1.000000    
     87 O2    c    0.875336 *  0.092552 *  0.690278 *   0.87073    1.000000    
     88 O2    c    0.779582 *  0.872622 *  0.857050 *   0.87073    1.000000    
     89 O2    c    0.084240 *  0.212884 *  0.525604 *   0.87073    1.000000    
     90 O2    c    0.128231 *  0.912625 *  0.190294 *   0.87073    1.000000    
     91 O3    c    0.936143 *  0.866888 *  0.245043 *   1.33043    1.000000    
     92 O2    c    0.134973 *  0.068553 *  0.580918 *   0.87073    1.000000    
     93 O2    c    0.924747 *  0.060250 *  0.912611 *   0.87073    1.000000    
     94 O2    c    0.066371 *  0.140339 *  0.746998 *   0.87073    1.000000    
     95 O2    c    0.865169 *  0.936632 *  0.080972 *   0.87073    1.000000    
     96 O2    c    0.073903 *  0.931328 *  0.415909 *   0.87073    1.000000    
     97 O2    c    0.904200 *  0.201865 *  0.974128 *   0.87073    1.000000    
     98 O3    c    0.791796 *  0.683881 *  0.309902 *   1.33043    1.000000    
     99 O2    c    0.302906 *  0.101982 *  0.642652 *   0.87073    1.000000    
    100 O2    c    0.095531 *  0.795083 *  0.478696 *   0.87073    1.000000    
    101 O2    c    0.199414 *  0.301072 *  0.810750 *   0.87073    1.000000    
    102 O2    c    0.700395 *  0.902883 *  0.145527 *   0.87073    1.000000    
    103 O2    c    0.199761 *  0.896434 *  0.351220 *   0.87073    1.000000    
    104 O2    c    0.702195 *  0.792971 *  0.020353 *   0.87073    1.000000    
    105 O2    c    0.100542 *  0.304997 *  0.684270 *   0.87073    1.000000    
    106 O2    c    0.794215 *  0.098227 *  0.849633 *   0.87073    1.000000    
    107 O2    c    0.300552 *  0.208110 *  0.519068 *   0.87073    1.000000    
    108 O2    c    0.901290 *  0.702100 *  0.181244 *   0.87073    1.000000    
    109 O2    c    0.319423 *  0.641062 *  0.245774 *   0.87073    1.000000    
    110 O2    c    0.354437 *  0.676360 *  0.579824 *   0.87073    1.000000    
    111 O3    c    0.310682 *  0.689014 *  0.908726 *   1.33043    1.000000    
    112 O2    c    0.677284 *  0.357904 *  0.748230 *   0.87073    1.000000    
    113 O3    c    0.614990 *  0.305832 *  0.085875 *   1.33043    1.000000    
    114 O2    c    0.676983 *  0.322092 *  0.417040 *   0.87073    1.000000    
    115 O2    c    0.369297 *  0.329399 *  0.965727 *   0.87073    1.000000    
    116 O2    c    0.664552 *  0.039323 *  0.303670 *   0.87073    1.000000    
    117 O2    c    0.957430 *  0.629065 *  0.636254 *   0.87073    1.000000    
    118 O2    c    0.625118 *  0.672519 *  0.467046 *   0.87073    1.000000    
    119 O2    c    0.329546 *  0.959318 *  0.798948 *   0.87073    1.000000    
    120 O2    c    0.037190 *  0.376029 *  0.131084 *   0.87073    1.000000    
    121 O2    c    0.328810 *  0.371965 *  0.360705 *   0.87073    1.000000    
    122 O2    c    0.036029 *  0.662653 *  0.025316 *   0.87073    1.000000    
    123 O2    c    0.628000 *  0.960931 *  0.691387 *   0.87073    1.000000    
    124 O2    c    0.661077 *  0.625353 *  0.861811 *   0.87073    1.000000    
    125 O2    c    0.953611 *  0.330768 *  0.527968 *   0.87073    1.000000    
    126 O2    c    0.375234 *  0.042311 *  0.195580 *   0.87073    1.000000    
    127 O3    c    0.756443 *  0.283798 *  0.002911 *   1.33043    1.000000    
    128 O2    c    0.696200 *  0.461535 *  0.343578 *   0.87073    1.000000    
    129 O2    c    0.533493 *  0.234668 *  0.674857 *   0.87073    1.000000    
    130 O2    c    0.226528 *  0.695153 *  0.508484 *   0.87073    1.000000    
    131 O2    c    0.297358 *  0.534083 *  0.841538 *   0.87073    1.000000    
    132 O2    c    0.467543 *  0.771442 *  0.174902 *   0.87073    1.000000    
    133 O2    c    0.296756 *  0.764100 *  0.318917 *   0.87073    1.000000    
    134 O3    c    0.473582 *  0.710376 *  0.990535 *   1.33043    1.000000    
    135 O2    c    0.231926 *  0.535299 *  0.653182 *   0.87073    1.000000    
    136 O2    c    0.693114 *  0.229627 *  0.819959 *   0.87073    1.000000    
    137 O2    c    0.532335 *  0.309226 *  0.488675 *   0.87073    1.000000    
    138 O2    c    0.764141 *  0.467631 *  0.151635 *   0.87073    1.000000    
    139 O3    c    0.774636 *  0.546170 *  0.019272 *   1.33043    1.000000    
    140 O2    c    0.465264 *  0.248238 *  0.361398 *   0.87073    1.000000    
    141 O2    c    0.750349 *  0.219337 *  0.692003 *   0.87073    1.000000    
    142 O2    c    0.212787 *  0.464268 *  0.525227 *   0.87073    1.000000    
    143 O2    c    0.526889 *  0.747369 *  0.860749 *   0.87073    1.000000    
    144 O2    c    0.248384 *  0.782974 *  0.192330 *   0.87073    1.000000    
    145 O2    c    0.528290 *  0.778532 *  0.302705 *   0.87073    1.000000    
    146 O3    c    0.227652 *  0.445582 *  0.973888 *   1.33043    1.000000    
    147 O2    c    0.216492 *  0.751545 *  0.636232 *   0.87073    1.000000    
    148 O2    c    0.462129 *  0.218248 *  0.801538 *   0.87073    1.000000    
    149 O2    c    0.750672 *  0.538631 *  0.469549 *   0.87073    1.000000    
    150 O2    c    0.780717 *  0.254021 *  0.133636 *   0.87073    1.000000    
    151 O2    c    0.223240 *  0.330169 *  0.896232 *   0.87073    1.000000    
    152 O2    c    0.675242 *  0.903732 *  0.230610 *   0.87073    1.000000    
    153 O2    c    0.090425 *  0.768623 *  0.563282 *   0.87073    1.000000    
    154 O2    c    0.767742 *  0.677522 *  0.394672 *   0.87073    1.000000    
    155 O2    c    0.321971 *  0.093307 *  0.727080 *   0.87073    1.000000    
    156 O2    c    0.900686 *  0.232680 *  0.060144 *   0.87073    1.000000    
    157 O2    c    0.322386 *  0.234925 *  0.434356 *   0.87073    1.000000    
    158 O2    c    0.894705 *  0.667654 *  0.095791 *   0.87073    1.000000    
    159 O2    c    0.768076 *  0.094897 *  0.764892 *   0.87073    1.000000    
    160 O2    c    0.669694 *  0.765364 *  0.933570 *   0.87073    1.000000    
    161 O2    c    0.091501 *  0.324991 *  0.599762 *   0.87073    1.000000    
    162 O2    c    0.228283 *  0.905553 *  0.266427 *   0.87073    1.000000    
    163 O2    c    0.572877 *  0.557029 *  0.988134 *   0.87073    1.000000    
    164 O2    c    0.436299 *  0.024070 *  0.323320 *   0.87073    1.000000    
    165 O2    c    0.972556 *  0.415521 *  0.655897 *   0.87073    1.000000    
    166 O2    c    0.410799 *  0.445440 *  0.488098 *   0.87073    1.000000    
    167 O2    c    0.557361 *  0.971048 *  0.818608 *   0.87073    1.000000    
    168 O2    c    0.020039 *  0.583850 *  0.148231 *   0.87073    1.000000    
    169 O2    c    0.556200 *  0.582959 *  0.339715 *   0.87073    1.000000    
    170 O2    c    0.013831 *  0.437393 *  0.005227 *   0.87073    1.000000    
    171 O2    c    0.415396 *  0.976606 *  0.670755 *   0.87073    1.000000    
    172 O2    c    0.435412 *  0.417133 *  0.844856 *   0.87073    1.000000    
    173 O2    c    0.967895 *  0.558792 *  0.508640 *   0.87073    1.000000    
    174 O2    c    0.592446 *  0.031248 *  0.177100 *   0.87073    1.000000    
    175 O2    c    0.580698 *  0.164762 *  0.251573 *   0.87073    1.000000    
    176 O2    c    0.833283 *  0.418903 *  0.582793 *   0.87073    1.000000    
    177 O2    c    0.579653 *  0.424211 *  0.915434 *   0.87073    1.000000    
    178 O2    c    0.416678 *  0.838382 *  0.743491 *   0.87073    1.000000    
    179 O2    c    0.156005 *  0.576119 *  0.077206 *   0.87073    1.000000    
    180 O2    c    0.415299 *  0.583457 *  0.413049 *   0.87073    1.000000    
    181 F     c    0.450301 *  0.902188 *  0.248527 *   0.56000    1.000000    
    182 F     c    0.095180 *  0.548104 *  0.581813 *   0.56000    1.000000    
    183 F     c    0.420383 *  0.559327 *  0.922374 *   0.56000    1.000000    
    184 F     c    0.546800 *  0.099431 *  0.746455 *   0.56000    1.000000    
    185 F     c    0.851820 *  0.433817 *  0.070416 *   0.56000    1.000000    
    186 F     c    0.548584 *  0.454757 *  0.414690 *   0.56000    1.000000    
    187 O2    s    0.919726 *  0.997325 *  0.996740 *  -2.87073    1.000000    
    188 O3    s    0.005472 *  0.932746 *  0.334338 *  -3.33043    1.000000    
    189 O2    s    0.074956 *  0.076927 *  0.664031 *  -2.87073    1.000000    
    190 O2    s    0.074236 *  0.000915 *  0.498253 *  -2.87073    1.000000    
    191 O2    s    0.996074 *  0.072134 *  0.829385 *  -2.87073    1.000000    
    192 O2    s    0.930393 *  0.932494 *  0.163247 *  -2.87073    1.000000    
    193 O2    s    0.348002 *  0.581273 *  0.329259 *  -2.87073    1.000000    
    194 O2    s    0.416259 *  0.769270 *  0.661277 *  -2.87073    1.000000    
    195 O3    s    0.225691 *  0.643417 *  0.995165 *  -3.33043    1.000000    
    196 O2    s    0.643023 *  0.413085 *  0.831408 *  -2.87073    1.000000    
    197 O2    s    0.586407 *  0.234853 *  0.169879 *  -2.87073    1.000000    
    198 O2    s    0.763084 *  0.355412 *  0.499777 *  -2.87073    1.000000    
    199 O3    s    0.572424 *  0.347823 *  0.997792 *  -3.33043    1.000000    
    200 O2    s    0.767033 *  0.417761 *  0.665904 *  -2.87073    1.000000    
    201 O2    s    0.645777 *  0.229093 *  0.334850 *  -2.87073    1.000000    
    202 O2    s    0.410573 *  0.648339 *  0.496367 *  -2.87073    1.000000    
    203 O2    s    0.232635 *  0.588446 *  0.161613 *  -2.87073    1.000000    
    204 O2    s    0.349970 *  0.767179 *  0.824870 *  -2.87073    1.000000    
    205 O2    s    0.117435 *  0.200244 *  0.965155 *  -2.87073    1.000000    
    206 O3    s    0.772694 *  0.903975 *  0.303995 *  -3.33043    1.000000    
    207 O2    s    0.095792 *  0.880432 *  0.634631 *  -2.87073    1.000000    
    208 O2    s    0.877080 *  0.785607 *  0.466811 *  -2.87073    1.000000    
    209 O2    s    0.214132 *  0.095453 *  0.799084 *  -2.87073    1.000000    
    210 O2    s    0.902453 *  0.125097 *  0.133195 *  -2.87073    1.000000    
    211 O2    s    0.219704 *  0.122063 *  0.362823 *  -2.87073    1.000000    
    212 O2    s    0.914649 *  0.792753 *  0.027316 *  -2.87073    1.000000    
    213 O2    s    0.878645 *  0.099146 *  0.693015 *  -2.87073    1.000000    
    214 O2    s    0.776608 *  0.876168 *  0.859841 *  -2.87073    1.000000    
    215 O2    s    0.091353 *  0.216528 *  0.528199 *  -2.87073    1.000000    
    216 O2    s    0.124777 *  0.906081 *  0.193034 *  -2.87073    1.000000    
    217 O3    s    0.934923 *  0.863496 *  0.244364 *  -3.33043    1.000000    
    218 O2    s    0.138284 *  0.070422 *  0.580960 *  -2.87073    1.000000    
    219 O2    s    0.923626 *  0.062358 *  0.912377 *  -2.87073    1.000000    
    220 O2    s    0.068063 *  0.143030 *  0.746970 *  -2.87073    1.000000    
    221 O2    s    0.862279 *  0.934809 *  0.081167 *  -2.87073    1.000000    
    222 O2    s    0.074302 *  0.929796 *  0.415952 *  -2.87073    1.000000    
    223 O2    s    0.909978 *  0.201699 *  0.976798 *  -2.87073    1.000000    
    224 O3    s    0.789474 *  0.688678 *  0.312728 *  -3.33043    1.000000    
    225 O2    s    0.296608 *  0.094265 *  0.645366 *  -2.87073    1.000000    
    226 O2    s    0.088167 *  0.793935 *  0.481262 *  -2.87073    1.000000    
    227 O2    s    0.200386 *  0.295104 *  0.813372 *  -2.87073    1.000000    
    228 O2    s    0.706327 *  0.910546 *  0.147991 *  -2.87073    1.000000    
    229 O2    s    0.201852 *  0.904579 *  0.348715 *  -2.87073    1.000000    
    230 O2    s    0.707965 *  0.792961 *  0.017423 *  -2.87073    1.000000    
    231 O2    s    0.092739 *  0.298782 *  0.681676 *  -2.87073    1.000000    
    232 O2    s    0.792635 *  0.090560 *  0.846994 *  -2.87073    1.000000    
    233 O2    s    0.294308 *  0.209081 *  0.516403 *  -2.87073    1.000000    
    234 O2    s    0.908319 *  0.707698 *  0.178729 *  -2.87073    1.000000    
    235 O2    s    0.325060 *  0.652540 *  0.245881 *  -2.87073    1.000000    
    236 O2    s    0.342613 *  0.670600 *  0.579838 *  -2.87073    1.000000    
    237 O3    s    0.317944 *  0.683418 *  0.906988 *  -3.33043    1.000000    
    238 O2    s    0.671229 *  0.346144 *  0.748155 *  -2.87073    1.000000    
    239 O3    s    0.627972 *  0.311787 *  0.087085 *  -3.33043    1.000000    
    240 O2    s    0.671129 *  0.328168 *  0.416921 *  -2.87073    1.000000    
    241 O2    s    0.371723 *  0.338637 *  0.964313 *  -2.87073    1.000000    
    242 O2    s    0.654263 *  0.032782 *  0.301453 *  -2.87073    1.000000    
    243 O2    s    0.964065 *  0.625725 *  0.633994 *  -2.87073    1.000000    
    244 O2    s    0.621826 *  0.662341 *  0.464835 *  -2.87073    1.000000    
    245 O2    s    0.339457 *  0.966137 *  0.796609 *  -2.87073    1.000000    
    246 O2    s    0.031170 *  0.379094 *  0.129068 *  -2.87073    1.000000    
    247 O2    s    0.338837 *  0.375550 *  0.362905 *  -2.87073    1.000000    
    248 O2    s    0.029597 *  0.653732 *  0.026882 *  -2.87073    1.000000    
    249 O2    s    0.624576 *  0.967606 *  0.693615 *  -2.87073    1.000000    
    250 O2    s    0.651886 *  0.622161 *  0.863895 *  -2.87073    1.000000    
    251 O2    s    0.960529 *  0.340891 *  0.530226 *  -2.87073    1.000000    
    252 O2    s    0.378133 *  0.035433 *  0.197871 *  -2.87073    1.000000    
    253 O3    s    0.766690 *  0.290968 *  0.005947 *  -3.33043    1.000000    
    254 O2    s    0.688237 *  0.460968 *  0.346610 *  -2.87073    1.000000    
    255 O2    s    0.534127 *  0.227468 *  0.677874 *  -2.87073    1.000000    
    256 O2    s    0.219628 *  0.687662 *  0.511589 *  -2.87073    1.000000    
    257 O2    s    0.303840 *  0.534000 *  0.844370 *  -2.87073    1.000000    
    258 O2    s    0.466605 *  0.777809 *  0.178043 *  -2.87073    1.000000    
    259 O2    s    0.304701 *  0.771146 *  0.315951 *  -2.87073    1.000000    
    260 O3    s    0.477112 *  0.703027 *  0.987457 *  -3.33043    1.000000    
    261 O2    s    0.224661 *  0.535720 *  0.650065 *  -2.87073    1.000000    
    262 O2    s    0.685793 *  0.222946 *  0.816741 *  -2.87073    1.000000    
    263 O2    s    0.532780 *  0.316423 *  0.485529 *  -2.87073    1.000000    
    264 O2    s    0.770591 *  0.467281 *  0.148784 *  -2.87073    1.000000    
    265 O3    s    0.783767 *  0.547549 *  0.022376 *  -3.33043    1.000000    
    266 O2    s    0.468090 *  0.256408 *  0.363970 *  -2.87073    1.000000    
    267 O2    s    0.742423 *  0.214146 *  0.694580 *  -2.87073    1.000000    
    268 O2    s    0.207752 *  0.467168 *  0.527857 *  -2.87073    1.000000    
    269 O2    s    0.525242 *  0.741148 *  0.862859 *  -2.87073    1.000000    
    270 O2    s    0.256595 *  0.788077 *  0.194836 *  -2.87073    1.000000    
    271 O2    s    0.525242 *  0.783645 *  0.300183 *  -2.87073    1.000000    
    272 O3    s    0.235643 *  0.444463 *  0.970568 *  -3.33043    1.000000    
    273 O2    s    0.211052 *  0.743617 *  0.633602 *  -2.87073    1.000000    
    274 O2    s    0.465198 *  0.212938 *  0.799013 *  -2.87073    1.000000    
    275 O2    s    0.742511 *  0.535603 *  0.467061 *  -2.87073    1.000000    
    276 O2    s    0.785122 *  0.260253 *  0.131374 *  -2.87073    1.000000    
    277 O2    s    0.232458 *  0.337955 *  0.896603 *  -2.87073    1.000000    
    278 O2    s    0.665585 *  0.903970 *  0.231332 *  -2.87073    1.000000    
    279 O2    s    0.090645 *  0.759227 *  0.564150 *  -2.87073    1.000000    
    280 O2    s    0.758448 *  0.667728 *  0.395706 *  -2.87073    1.000000    
    281 O2    s    0.331773 *  0.093780 *  0.728020 *  -2.87073    1.000000    
    282 O2    s    0.900266 *  0.240635 *  0.061270 *  -2.87073    1.000000    
    283 O2    s    0.332135 *  0.244224 *  0.433519 *  -2.87073    1.000000    
    284 O2    s    0.895512 *  0.659316 *  0.095579 *  -2.87073    1.000000    
    285 O2    s    0.758584 *  0.094952 *  0.764003 *  -2.87073    1.000000    
    286 O2    s    0.661335 *  0.757695 *  0.932486 *  -2.87073    1.000000    
    287 O2    s    0.091682 *  0.334638 *  0.598899 *  -2.87073    1.000000    
    288 O2    s    0.237823 *  0.905353 *  0.265548 *  -2.87073    1.000000    
    289 O2    s    0.570503 *  0.557278 *  0.985257 *  -2.87073    1.000000    
    290 O2    s    0.436331 *  0.019355 *  0.319895 *  -2.87073    1.000000    
    291 O2    s    0.977374 *  0.420133 *  0.652510 *  -2.87073    1.000000    
    292 O2    s    0.415429 *  0.444728 *  0.484789 *  -2.87073    1.000000    
    293 O2    s    0.557762 *  0.976411 *  0.815318 *  -2.87073    1.000000    
    294 O2    s    0.016396 *  0.580129 *  0.145538 *  -2.87073    1.000000    
    295 O2    s    0.556190 *  0.578403 *  0.343078 *  -2.87073    1.000000    
    296 O2    s    0.010735 *  0.437046 *  0.007985 *  -2.87073    1.000000    
    297 O2    s    0.419718 *  0.981176 *  0.674213 *  -2.87073    1.000000    
    298 O2    s    0.435487 *  0.420927 *  0.847479 *  -2.87073    1.000000    
    299 O2    s    0.973049 *  0.559181 *  0.511958 *  -2.87073    1.000000    
    300 O2    s    0.587144 *  0.025791 *  0.180254 *  -2.87073    1.000000    
    301 O2    s    0.575317 *  0.153456 *  0.251486 *  -2.87073    1.000000    
    302 O2    s    0.844390 *  0.424513 *  0.582741 *  -2.87073    1.000000    
    303 O2    s    0.574346 *  0.428271 *  0.915038 *  -2.87073    1.000000    
    304 O2    s    0.422478 *  0.849475 *  0.743560 *  -2.87073    1.000000    
    305 O2    s    0.146875 *  0.571653 *  0.077782 *  -2.87073    1.000000    
    306 O2    s    0.420707 *  0.577870 *  0.413063 *  -2.87073    1.000000    
    307 F     s    0.450140 *  0.901893 *  0.248537 *  -1.56000    1.000000    
    308 F     s    0.095574 *  0.548237 *  0.581861 *  -1.56000    1.000000    
    309 F     s    0.413489 *  0.563129 *  0.924875 *  -1.56000    1.000000    
    310 F     s    0.546932 *  0.099895 *  0.746503 *  -1.56000    1.000000    
    311 F     s    0.842136 *  0.430111 *  0.068377 *  -1.56000    1.000000    
    312 F     s    0.548954 *  0.454782 *  0.414664 *  -1.56000    1.000000    
--------------------------------------------------------------------------------



********************************************************************************
*  General input information                                                   *
********************************************************************************

  Species output for all configurations : 

--------------------------------------------------------------------------------
  Species    Type    Atomic    Atomic    Charge       Radii (Angs)     Library
                     Number     Mass       (e)     Cova   Ionic  VDW   Symbol
--------------------------------------------------------------------------------
    Si       Core       14      28.09   4.000000   1.200  0.000  2.100          
    O1       Core        8      16.00   1.733957   0.730  0.000  1.360          
    O1       Shell       8       0.00  -3.733957   0.730  0.000  1.360          
    O2       Core        8      16.00   0.870733   0.730  0.000  1.360          
    O2       Shell       8       0.00  -2.870733   0.730  0.000  1.360          
    O3       Core        8      16.00   1.330431   0.730  0.000  1.360          
    O3       Shell       8       0.00  -3.330431   0.730  0.000  1.360          
    F        Core        9      19.00   0.560000   0.710  0.000  1.300          
    F        Shell       9       0.00  -1.560000   0.710  0.000  1.300          
    Ge       Core       32      72.61   4.000000   1.170  0.000  1.750          
--------------------------------------------------------------------------------


  Lattice summation method               =    Ewald          (3-D)
                                         =    Parry          (2-D)
                                         =    Saunders et al (1-D)
  Accuracy factor for lattice sums       =   12.000


  Time limit = Infinity

  Maximum range for interatomic potentials =        16.000000 Angstroms

  Taper potentials to zero over   1.0000 Angstroms using polynomial

  General interatomic potentials :

--------------------------------------------------------------------------------
Atom  Types   Potential         A         B         C         D     Cutoffs(Ang)
  1     2                                                            Min    Max 
--------------------------------------------------------------------------------
Si   c O1   s Buckingham    0.132E+04 0.318      10.1      0.00     0.000 16.000
Si   c O2   s Buckingham    0.132E+04 0.318      10.1      0.00     0.000 16.000
Si   c O3   s Buckingham    0.132E+04 0.318      10.1      0.00     0.000 16.000
Ge   c O1   s Buckingham    0.150E+04 0.326      16.8      0.00     0.000 16.000
Ge   c O2   s Buckingham    0.150E+04 0.326      16.8      0.00     0.000 16.000
Ge   c O3   s Buckingham    0.150E+04 0.326      16.8      0.00     0.000 16.000
O1   s O1   s Buckingham    0.228E+05 0.149      10.9      0.00     0.000 16.000
O1   s O2   s Buckingham    0.228E+05 0.149      10.9      0.00     0.000 16.000
O1   s O3   s Buckingham    0.228E+05 0.149      10.9      0.00     0.000 16.000
O2   s O2   s Buckingham    0.228E+05 0.149      10.9      0.00     0.000 16.000
O2   s O3   s Buckingham    0.228E+05 0.149      10.9      0.00     0.000 16.000
O3   s O3   s Buckingham    0.228E+05 0.149      10.9      0.00     0.000 16.000
Si   c F    s Buckingham     977.     0.282      0.00      0.00     0.000 16.000
Ge   c F    s Buckingham     681.     0.320      0.00      0.00     0.000 16.000
F    s F    s Buckingham     540.     0.262      0.00      0.00     0.000 16.000
O1   s F    s Buckingham    0.168E+04 0.268      0.00      0.00     0.000 16.000
O2   s F    s Buckingham    0.168E+04 0.268      0.00      0.00     0.000 16.000
O3   s F    s Buckingham    0.168E+04 0.268      0.00      0.00     0.000 16.000
O2   c O2   s Spring (c-s)   76.0      0.00      0.00      0.00     0.000  0.800
O3   c O3   s Spring (c-s)   128.      0.00      0.00      0.00     0.000  0.800
O1   c O1   s Spring (c-s)   180.      0.00      0.00      0.00     0.000  0.800
F    c F    s Spring (c-s)   33.5      0.00      0.00      0.00     0.000  0.800
--------------------------------------------------------------------------------

  General Three-body potentials :

  Harmonic form:

--------------------------------------------------------------------------------
Atom    Atom    Atom           Force Constants            Theta     Cutoffs  
  1       2       3     (eVrad**-2/eVrad**-3/eVrad**-4)   (deg)  1-2  1-3  2-3
--------------------------------------------------------------------------------
Si    c O1    s O1    s  1.261        0.0000    0.0000   109.470 0.00 0.00 0.00
                                                                 1.90 1.90 3.50
Si    c O1    s O2    s  1.261        0.0000    0.0000   109.470 0.00 0.00 0.00
                                                                 1.90 1.90 3.50
Si    c O2    s O2    s  1.261        0.0000    0.0000   109.470 0.00 0.00 0.00
                                                                 1.90 1.90 3.50
--------------------------------------------------------------------------------

********************************************************************************
*  Output for configuration   1                                                *
********************************************************************************


  Components of energy : 

--------------------------------------------------------------------------------
  Interatomic potentials     =        2062.66582661 eV
  Three-body potentials      =           0.44687588 eV
  Monopole - monopole (real) =       -6614.03672771 eV
  Monopole - monopole (recip)=       -3169.47456791 eV
  Monopole - monopole (total)=       -9783.51129562 eV
  Neutralising energy        =          -6.45620321 eV
--------------------------------------------------------------------------------
  Total lattice energy       =       -7726.85479635 eV
--------------------------------------------------------------------------------
  Total lattice energy       =         -745523.3721 kJ/(mole unit cells)
--------------------------------------------------------------------------------


  Number of variables =      939

  Maximum number of calculations  =          5000
  Maximum Hessian update interval =            10
  Maximum step size               =   0.100000000
  Maximum parameter tolerance     =   0.000010000
  Maximum function  tolerance     =   0.000010000
  Maximum gradient  tolerance     =   0.001000000
  Maximum gradient  component     =   0.010000000

  Symmetry not applied to optimisation

  Cell parameters to be optimised using strains

  Newton-Raphson optimiser to be used

  BFGS hessian update to be used

  Dumpfile to be written after every cycle

  Start of bulk optimisation :

  Cycle:      0 Energy:     -7726.854796  Gnorm:      0.012120  CPU:    2.000
  ** Hessian calculated **
  Cycle:      1 Energy:     -7726.855082  Gnorm:      0.003857  CPU:    5.195
  Cycle:      2 Energy:     -7726.855162  Gnorm:      0.002370  CPU:    8.014
  Cycle:      3 Energy:     -7726.855232  Gnorm:      0.001766  CPU:   10.834
  Cycle:      4 Energy:     -7726.855317  Gnorm:      0.001625  CPU:   13.653
  Cycle:      5 Energy:     -7726.855719  Gnorm:      0.003712  CPU:   19.184
  Cycle:      6 Energy:     -7726.856213  Gnorm:      0.006269  CPU:   23.360
  Cycle:      7 Energy:     -7726.856995  Gnorm:      0.010217  CPU:   28.213
  Cycle:      8 Energy:     -7726.857935  Gnorm:      0.014333  CPU:   32.388
  Cycle:      9 Energy:     -7726.859162  Gnorm:      0.018743  CPU:   36.563
  Cycle:     10 Energy:     -7726.860785  Gnorm:      0.023783  CPU:   40.737
  ** Hessian calculated **
  Cycle:     11 Energy:     -7726.862025  Gnorm:      0.006148  CPU:   45.926
  Cycle:     12 Energy:     -7726.862261  Gnorm:      0.003306  CPU:   49.429
  Cycle:     13 Energy:     -7726.862487  Gnorm:      0.003094  CPU:   53.611
  Cycle:     14 Energy:     -7726.862764  Gnorm:      0.004201  CPU:   57.792
  Cycle:     15 Energy:     -7726.863092  Gnorm:      0.005430  CPU:   61.974
  Cycle:     16 Energy:     -7726.863480  Gnorm:      0.005453  CPU:   66.157
  Cycle:     17 Energy:     -7726.863855  Gnorm:      0.004787  CPU:   69.662
  Cycle:     18 Energy:     -7726.864402  Gnorm:      0.004185  CPU:   73.844
  Cycle:     19 Energy:     -7726.865151  Gnorm:      0.004511  CPU:   78.024
  Cycle:     20 Energy:     -7726.866226  Gnorm:      0.006185  CPU:   82.206
  ** Hessian calculated **
  Cycle:     21 Energy:     -7726.867733  Gnorm:      0.006152  CPU:   88.076
  Cycle:     22 Energy:     -7726.870275  Gnorm:      0.006096  CPU:   92.936
  Cycle:     23 Energy:     -7726.874191  Gnorm:      0.006008  CPU:   97.798
  Cycle:     24 Energy:     -7726.879059  Gnorm:      0.005897  CPU:  101.980
  Cycle:     25 Energy:     -7726.887167  Gnorm:      0.005706  CPU:  106.842
  Cycle:     26 Energy:     -7726.899286  Gnorm:      0.005407  CPU:  111.701
  Cycle:     27 Energy:     -7726.913671  Gnorm:      0.005025  CPU:  115.884
  Cycle:     28 Energy:     -7726.935808  Gnorm:      0.004371  CPU:  120.746
  Cycle:     29 Energy:     -7726.959858  Gnorm:      0.003532  CPU:  124.927
  Cycle:     30 Energy:     -7726.984944  Gnorm:      0.002432  CPU:  129.112
  ** Hessian calculated **
  Cycle:     31 Energy:     -7726.998388  Gnorm:      0.001352  CPU:  134.980
  Cycle:     32 Energy:     -7727.001722  Gnorm:      0.000820  CPU:  139.163
  Cycle:     33 Energy:     -7727.002552  Gnorm:      0.000451  CPU:  143.342
  Cycle:     34 Energy:     -7727.002761  Gnorm:      0.000236  CPU:  147.527
  Cycle:     35 Energy:     -7727.002805  Gnorm:      0.000144  CPU:  151.031
  Cycle:     36 Energy:     -7727.002818  Gnorm:      0.000101  CPU:  153.855
  Cycle:     37 Energy:     -7727.002824  Gnorm:      0.000071  CPU:  156.677
  Cycle:     38 Energy:     -7727.002827  Gnorm:      0.000050  CPU:  159.502
  Cycle:     39 Energy:     -7727.002829  Gnorm:      0.000035  CPU:  162.322


  **** Optimisation achieved ****


  Final energy =   -7727.00282949 eV
  Final Gnorm  =       0.00002443

  Components of energy : 

--------------------------------------------------------------------------------
  Interatomic potentials     =        2063.20117724 eV
  Three-body potentials      =           0.44866666 eV
  Monopole - monopole (real) =       -6615.40177674 eV
  Monopole - monopole (recip)=       -3168.79607138 eV
  Monopole - monopole (total)=       -9784.19784813 eV
  Neutralising energy        =          -6.45482527 eV
--------------------------------------------------------------------------------
  Total lattice energy       =       -7727.00282949 eV
--------------------------------------------------------------------------------
  Total lattice energy       =         -745537.6550 kJ/(mole unit cells)
--------------------------------------------------------------------------------

  Final fractional coordinates of atoms :

--------------------------------------------------------------------------------
   No.  Atomic        x           y          z          Radius
        Label       (Frac)      (Frac)     (Frac)       (Angs) 
--------------------------------------------------------------------------------
     1  Ge    c     0.699600    0.375700    0.033890    0.000000
     2  Si    c     0.595192    0.304891    0.365821    0.000000
     3  Si    c     0.656947    0.291718    0.696872    0.000000
     4  Si    c     0.269577    0.608007    0.527433    0.000000
     5  Si    c     0.349816    0.668083    0.859864    0.000000
     6  Si    c     0.301194    0.688894    0.194550    0.000000
     7  Si    c     0.346627    0.680107    0.295523    0.000000
     8  Ge    c     0.311279    0.599457    0.958007    0.000000
     9  Si    c     0.277881    0.668400    0.628014    0.000000
    10  Si    c     0.597262    0.283774    0.797285    0.000000
    11  Si    c     0.650172    0.370395    0.465710    0.000000
    12  Si    c     0.669635    0.306957    0.132006    0.000000
    13  Si    c     0.513457    0.404370    0.967696    0.000000
    14  Si    c     0.552871    0.092703    0.301256    0.000000
    15  Si    c     0.867836    0.465483    0.633147    0.000000
    16  Si    c     0.441249    0.570321    0.461517    0.000000
    17  Si    c     0.396710    0.875744    0.792478    0.000000
    18  Si    c     0.092330    0.517997    0.127754    0.000000
    19  Si    c     0.387689    0.510573    0.360066    0.000000
    20  Si    c     0.095943    0.569821    0.024121    0.000000
    21  Si    c     0.453444    0.882130    0.691009    0.000000
    22  Si    c     0.560464    0.456117    0.864048    0.000000
    23  Si    c     0.859984    0.408373    0.531470    0.000000
    24  Si    c     0.508994    0.098812    0.199533    0.000000
    25  Si    c     0.274247    0.384872    0.849669    0.000000
    26  Si    c     0.581319    0.890039    0.183110    0.000000
    27  Si    c     0.067682    0.686229    0.515829    0.000000
    28  Si    c     0.668262    0.578141    0.346936    0.000000
    29  Si    c     0.380622    0.090847    0.679332    0.000000
    30  Si    c     0.880140    0.283386    0.010336    0.000000
    31  Si    c     0.370109    0.292370    0.478795    0.000000
    32  Si    c     0.877400    0.589542    0.142685    0.000000
    33  Si    c     0.675910    0.082956    0.809972    0.000000
    34  Si    c     0.583418    0.690904    0.981210    0.000000
    35  Si    c     0.077985    0.393464    0.645170    0.000000
    36  Si    c     0.271794    0.882643    0.311604    0.000000
    37  Si    c     0.227083    0.320255    0.951762    0.000000
    38  Si    c     0.627229    0.889930    0.284399    0.000000
    39  Si    c     0.068306    0.741958    0.616510    0.000000
    40  Si    c     0.721232    0.648815    0.446920    0.000000
    41  Si    c     0.317956    0.076765    0.779795    0.000000
    42  Si    c     0.886482    0.238252    0.113463    0.000000
    43  Si    c     0.314200    0.235407    0.378217    0.000000
    44  Si    c     0.894018    0.654657    0.040663    0.000000
    45  Si    c     0.730364    0.083287    0.709151    0.000000
    46  Si    c     0.635179    0.736462    0.878066    0.000000
    47  Si    c     0.061683    0.329757    0.544529    0.000000
    48  Si    c     0.229282    0.896969    0.210725    0.000000
    49  Si    c     0.953432    0.102944    0.961115    0.000000
    50  Ge    c     0.849642    0.828355    0.297513    0.000000
    51  Si    c     0.131461    0.022397    0.629956    0.000000
    52  Si    c     0.001011    0.866451    0.464490    0.000000
    53  Si    c     0.098593    0.137295    0.796231    0.000000
    54  Si    c     0.829976    0.962965    0.130636    0.000000
    55  Si    c     0.097653    0.955944    0.363837    0.000000
    56  Si    c     0.836809    0.871717    0.029881    0.000000
    57  Si    c     0.011527    0.147087    0.695073    0.000000
    58  Si    c     0.854471    0.011861    0.860461    0.000000
    59  Si    c     0.122435    0.110943    0.529361    0.000000
    60  Si    c     0.952078    0.839694    0.194136    0.000000
    61  O2    c     0.904635    0.985669    0.994820    0.000000
    62  O3    c     0.975796    0.918923    0.333242    0.000000
    63  O2    c     0.053883    0.066767    0.662791    0.000000
    64  O2    c     0.041085    0.988219    0.497181    0.000000
    65  O2    c     0.974194    0.051733    0.826879    0.000000
    66  O2    c     0.912964    0.922369    0.161945    0.000000
    67  O2    c     0.308887    0.555786    0.327025    0.000000
    68  O2    c     0.405875    0.757388    0.658233    0.000000
    69  O3    c     0.216546    0.642262    0.993102    0.000000
    70  O2    c     0.633999    0.404728    0.831117    0.000000
    71  O2    c     0.560448    0.227292    0.169774    0.000000
    72  O2    c     0.732421    0.333102    0.499906    0.000000
    73  O3    c     0.562505    0.332653    0.998677    0.000000
    74  O2    c     0.743590    0.417468    0.666161    0.000000
    75  O2    c     0.631383    0.215026    0.334824    0.000000
    76  O2    c     0.389965    0.646560    0.493359    0.000000
    77  O2    c     0.217503    0.568455    0.160432    0.000000
    78  O2    c     0.319171    0.746853    0.822046    0.000000
    79  O2    c     0.107693    0.181556    0.966623    0.000000
    80  O3    c     0.749284    0.890664    0.306516    0.000000
    81  O2    c     0.070230    0.869408    0.636499    0.000000
    82  O2    c     0.845895    0.777112    0.466764    0.000000
    83  O2    c     0.189893    0.073911    0.799828    0.000000
    84  O2    c     0.888576    0.116135    0.135746    0.000000
    85  O2    c     0.190970    0.108516    0.357981    0.000000
    86  O2    c     0.913454    0.793549    0.025953    0.000000
    87  O2    c     0.857664    0.085240    0.688895    0.000000
    88  O2    c     0.760344    0.858446    0.856148    0.000000
    89  O2    c     0.057822    0.201017    0.524820    0.000000
    90  O2    c     0.106212    0.900127    0.189116    0.000000
    91  O3    c     0.912817    0.854417    0.244116    0.000000
    92  O2    c     0.113009    0.057858    0.579498    0.000000
    93  O2    c     0.910391    0.049376    0.910612    0.000000
    94  O2    c     0.049398    0.133344    0.745690    0.000000
    95  O2    c     0.844843    0.928927    0.079580    0.000000
    96  O2    c     0.049813    0.920032    0.414971    0.000000
    97  O2    c     0.891984    0.192141    0.972307    0.000000
    98  O3    c     0.764972    0.666115    0.307686    0.000000
    99  O2    c     0.284169    0.093110    0.640865    0.000000
   100  O2    c     0.067344    0.782673    0.477772    0.000000
   101  O2    c     0.179056    0.286104    0.811173    0.000000
   102  O2    c     0.679415    0.890838    0.144680    0.000000
   103  O2    c     0.172650    0.879663    0.349914    0.000000
   104  O2    c     0.686551    0.781475    0.019096    0.000000
   105  O2    c     0.081926    0.298162    0.683290    0.000000
   106  O2    c     0.772830    0.082258    0.848507    0.000000
   107  O2    c     0.273553    0.195252    0.516975    0.000000
   108  O2    c     0.881431    0.688503    0.181420    0.000000
   109  O2    c     0.295692    0.626994    0.244206    0.000000
   110  O2    c     0.330866    0.665606    0.577284    0.000000
   111  O3    c     0.291561    0.674487    0.907417    0.000000
   112  O2    c     0.656136    0.345143    0.747862    0.000000
   113  O3    c     0.604955    0.301265    0.084604    0.000000
   114  O2    c     0.651791    0.308540    0.416395    0.000000
   115  O2    c     0.356215    0.317688    0.966448    0.000000
   116  O2    c     0.638078    0.022121    0.303035    0.000000
   117  O2    c     0.937074    0.621332    0.635934    0.000000
   118  O2    c     0.597463    0.658578    0.464534    0.000000
   119  O2    c     0.309328    0.944827    0.796973    0.000000
   120  O2    c     0.017770    0.362823    0.130951    0.000000
   121  O2    c     0.302142    0.354829    0.358383    0.000000
   122  O2    c     0.025136    0.656445    0.025580    0.000000
   123  O2    c     0.610024    0.951982    0.689253    0.000000
   124  O2    c     0.641298    0.611241    0.860656    0.000000
   125  O2    c     0.927958    0.320055    0.527523    0.000000
   126  O2    c     0.353078    0.028862    0.194098    0.000000
   127  O3    c     0.745975    0.276453    0.002311    0.000000
   128  O2    c     0.670043    0.444550    0.342032    0.000000
   129  O2    c     0.514304    0.225425    0.673702    0.000000
   130  O2    c     0.199650    0.682906    0.506525    0.000000
   131  O2    c     0.278035    0.519322    0.840719    0.000000
   132  O2    c     0.445945    0.758979    0.173389    0.000000
   133  O2    c     0.269509    0.747244    0.317590    0.000000
   134  O3    c     0.456537    0.698443    0.989519    0.000000
   135  O2    c     0.212482    0.527495    0.651425    0.000000
   136  O2    c     0.671480    0.214161    0.819228    0.000000
   137  O2    c     0.506273    0.297159    0.487439    0.000000
   138  O2    c     0.746602    0.455338    0.151568    0.000000
   139  O3    c     0.767585    0.542819    0.018264    0.000000
   140  O2    c     0.439670    0.231792    0.360149    0.000000
   141  O2    c     0.731268    0.210075    0.690880    0.000000
   142  O2    c     0.186370    0.452350    0.523383    0.000000
   143  O2    c     0.507205    0.733025    0.859362    0.000000
   144  O2    c     0.226367    0.770182    0.190366    0.000000
   145  O2    c     0.501487    0.762265    0.302204    0.000000
   146  O3    c     0.213087    0.432572    0.974217    0.000000
   147  O2    c     0.196307    0.742945    0.634539    0.000000
   148  O2    c     0.440896    0.203115    0.800729    0.000000
   149  O2    c     0.724156    0.526313    0.467948    0.000000
   150  O2    c     0.761865    0.241778    0.132124    0.000000
   151  O2    c     0.207680    0.317974    0.896642    0.000000
   152  O2    c     0.650427    0.887366    0.230057    0.000000
   153  O2    c     0.066377    0.758384    0.562258    0.000000
   154  O2    c     0.740172    0.661944    0.392346    0.000000
   155  O2    c     0.302694    0.081570    0.725487    0.000000
   156  O2    c     0.886686    0.222277    0.059175    0.000000
   157  O2    c     0.296341    0.220423    0.432525    0.000000
   158  O2    c     0.877861    0.657041    0.095843    0.000000
   159  O2    c     0.748167    0.082677    0.763482    0.000000
   160  O2    c     0.650814    0.752288    0.932343    0.000000
   161  O2    c     0.069278    0.316387    0.598765    0.000000
   162  O2    c     0.204461    0.891027    0.264954    0.000000
   163  O2    c     0.556955    0.546244    0.987842    0.000000
   164  O2    c     0.410083    0.006523    0.322634    0.000000
   165  O2    c     0.953772    0.409288    0.655419    0.000000
   166  O2    c     0.383751    0.431854    0.485948    0.000000
   167  O2    c     0.536986    0.956309    0.816809    0.000000
   168  O2    c     0.001560    0.571124    0.147778    0.000000
   169  O2    c     0.528737    0.564419    0.337106    0.000000
   170  O2    c     0.998170    0.428080    0.003756    0.000000
   171  O2    c     0.397871    0.968153    0.668623    0.000000
   172  O2    c     0.416454    0.402605    0.844416    0.000000
   173  O2    c     0.941385    0.547794    0.507910    0.000000
   174  O2    c     0.570884    0.018086    0.176568    0.000000
   175  O2    c     0.555013    0.148693    0.251102    0.000000
   176  O2    c     0.810804    0.410617    0.582734    0.000000
   177  O2    c     0.563161    0.412825    0.915254    0.000000
   178  O2    c     0.398283    0.827117    0.741120    0.000000
   179  O2    c     0.137513    0.561354    0.076480    0.000000
   180  O2    c     0.387960    0.567142    0.410480    0.000000
   181  F     c     0.424871    0.885792    0.247254    0.000000
   182  F     c     0.072198    0.539186    0.580417    0.000000
   183  F     c     0.402766    0.546306    0.921586    0.000000
   184  F     c     0.527614    0.087816    0.744856    0.000000
   185  F     c     0.844044    0.428411    0.070247    0.000000
   186  F     c     0.522133    0.439353    0.412607    0.000000
   187  O2    s     0.902365    0.986078    0.994975    0.000000
   188  O3    s     0.978147    0.915058    0.333473    0.000000
   189  O2    s     0.057861    0.070809    0.662722    0.000000
   190  O2    s     0.045659    0.988377    0.497142    0.000000
   191  O2    s     0.974738    0.056794    0.827192    0.000000
   192  O2    s     0.907957    0.917823    0.161973    0.000000
   193  O2    s     0.320703    0.563837    0.327162    0.000000
   194  O2    s     0.397689    0.761134    0.658510    0.000000
   195  O3    s     0.209553    0.631231    0.994152    0.000000
   196  O2    s     0.622554    0.397740    0.831092    0.000000
   197  O2    s     0.566284    0.221922    0.169016    0.000000
   198  O2    s     0.737136    0.344773    0.499628    0.000000
   199  O3    s     0.566386    0.343609    0.997636    0.000000
   200  O2    s     0.747451    0.409506    0.665933    0.000000
   201  O2    s     0.619528    0.211660    0.334563    0.000000
   202  O2    s     0.382849    0.634735    0.493599    0.000000
   203  O2    s     0.213023    0.575458    0.160520    0.000000
   204  O2    s     0.330509    0.752347    0.822826    0.000000
   205  O2    s     0.103104    0.187090    0.964531    0.000000
   206  O3    s     0.745213    0.885381    0.303529    0.000000
   207  O2    s     0.076488    0.872384    0.633774    0.000000
   208  O2    s     0.849476    0.773386    0.464510    0.000000
   209  O2    s     0.193407    0.080975    0.797391    0.000000
   210  O2    s     0.882161    0.112574    0.132926    0.000000
   211  O2    s     0.194178    0.105792    0.360738    0.000000
   212  O2    s     0.903184    0.787941    0.027867    0.000000
   213  O2    s     0.860820    0.091634    0.691635    0.000000
   214  O2    s     0.757371    0.862066    0.858840    0.000000
   215  O2    s     0.065055    0.204713    0.527298    0.000000
   216  O2    s     0.102737    0.893399    0.191876    0.000000
   217  O3    s     0.911497    0.850505    0.243398    0.000000
   218  O2    s     0.116156    0.059850    0.579535    0.000000
   219  O2    s     0.908782    0.051063    0.910510    0.000000
   220  O2    s     0.050673    0.135351    0.745664    0.000000
   221  O2    s     0.842224    0.926389    0.079858    0.000000
   222  O2    s     0.049577    0.917899    0.414922    0.000000
   223  O2    s     0.897557    0.191926    0.975080    0.000000
   224  O3    s     0.762693    0.671001    0.310591    0.000000
   225  O2    s     0.277859    0.085430    0.643616    0.000000
   226  O2    s     0.060211    0.781652    0.480312    0.000000
   227  O2    s     0.180264    0.280322    0.813559    0.000000
   228  O2    s     0.685244    0.898351    0.147136    0.000000
   229  O2    s     0.174955    0.887940    0.347426    0.000000
   230  O2    s     0.692286    0.781847    0.016266    0.000000
   231  O2    s     0.074115    0.291930    0.680657    0.000000
   232  O2    s     0.771554    0.074912    0.845835    0.000000
   233  O2    s     0.267432    0.196288    0.514366    0.000000
   234  O2    s     0.888411    0.694196    0.178794    0.000000
   235  O2    s     0.301404    0.638637    0.244378    0.000000
   236  O2    s     0.319135    0.659967    0.577389    0.000000
   237  O3    s     0.298901    0.669085    0.905602    0.000000
   238  O2    s     0.650191    0.333405    0.747713    0.000000
   239  O3    s     0.617686    0.306556    0.086398    0.000000
   240  O2    s     0.645831    0.314482    0.416225    0.000000
   241  O2    s     0.358240    0.326617    0.965004    0.000000
   242  O2    s     0.627829    0.015644    0.300851    0.000000
   243  O2    s     0.943619    0.617921    0.633625    0.000000
   244  O2    s     0.594298    0.648488    0.462376    0.000000
   245  O2    s     0.319210    0.951655    0.794695    0.000000
   246  O2    s     0.011826    0.365940    0.128798    0.000000
   247  O2    s     0.312215    0.358459    0.360631    0.000000
   248  O2    s     0.018301    0.647584    0.027048    0.000000
   249  O2    s     0.606474    0.958496    0.691517    0.000000
   250  O2    s     0.632277    0.608193    0.862821    0.000000
   251  O2    s     0.934953    0.330143    0.529716    0.000000
   252  O2    s     0.356046    0.022079    0.196431    0.000000
   253  O3    s     0.756984    0.283775    0.005315    0.000000
   254  O2    s     0.662043    0.444054    0.345074    0.000000
   255  O2    s     0.514879    0.218106    0.676695    0.000000
   256  O2    s     0.192923    0.675508    0.509703    0.000000
   257  O2    s     0.284553    0.519395    0.843541    0.000000
   258  O2    s     0.445093    0.765358    0.176604    0.000000
   259  O2    s     0.277644    0.754447    0.314660    0.000000
   260  O3    s     0.460194    0.691071    0.986490    0.000000
   261  O2    s     0.205125    0.527898    0.648351    0.000000
   262  O2    s     0.664310    0.207594    0.815975    0.000000
   263  O2    s     0.506714    0.304220    0.484254    0.000000
   264  O2    s     0.753049    0.455282    0.148723    0.000000
   265  O3    s     0.776671    0.543925    0.021579    0.000000
   266  O2    s     0.442373    0.239991    0.362690    0.000000
   267  O2    s     0.723305    0.204785    0.693454    0.000000
   268  O2    s     0.181464    0.455288    0.526056    0.000000
   269  O2    s     0.505618    0.726865    0.861476    0.000000
   270  O2    s     0.234603    0.775326    0.192975    0.000000
   271  O2    s     0.498554    0.767357    0.299600    0.000000
   272  O3    s     0.220913    0.431318    0.970861    0.000000
   273  O2    s     0.190821    0.735036    0.631953    0.000000
   274  O2    s     0.444030    0.197937    0.798150    0.000000
   275  O2    s     0.716039    0.523235    0.465470    0.000000
   276  O2    s     0.766442    0.247995    0.130042    0.000000
   277  O2    s     0.216844    0.325596    0.896894    0.000000
   278  O2    s     0.640904    0.887841    0.230699    0.000000
   279  O2    s     0.066711    0.749027    0.563149    0.000000
   280  O2    s     0.731047    0.652290    0.393439    0.000000
   281  O2    s     0.312448    0.082021    0.726411    0.000000
   282  O2    s     0.886017    0.229935    0.060233    0.000000
   283  O2    s     0.306042    0.229649    0.431639    0.000000
   284  O2    s     0.879302    0.649362    0.095559    0.000000
   285  O2    s     0.738695    0.082772    0.762610    0.000000
   286  O2    s     0.642563    0.744618    0.931281    0.000000
   287  O2    s     0.069386    0.325884    0.597867    0.000000
   288  O2    s     0.213965    0.890752    0.264138    0.000000
   289  O2    s     0.554951    0.546761    0.985018    0.000000
   290  O2    s     0.410141    0.002036    0.319198    0.000000
   291  O2    s     0.958330    0.413629    0.651990    0.000000
   292  O2    s     0.388421    0.431160    0.482635    0.000000
   293  O2    s     0.537360    0.961704    0.813554    0.000000
   294  O2    s     0.997760    0.567358    0.145107    0.000000
   295  O2    s     0.528862    0.560116    0.340544    0.000000
   296  O2    s     0.995597    0.427526    0.006587    0.000000
   297  O2    s     0.402002    0.972531    0.672111    0.000000
   298  O2    s     0.416460    0.406488    0.847071    0.000000
   299  O2    s     0.946679    0.548148    0.511243    0.000000
   300  O2    s     0.565443    0.012618    0.179654    0.000000
   301  O2    s     0.549933    0.137603    0.250944    0.000000
   302  O2    s     0.821829    0.416055    0.582608    0.000000
   303  O2    s     0.558035    0.416741    0.914778    0.000000
   304  O2    s     0.403912    0.838047    0.741265    0.000000
   305  O2    s     0.128527    0.557425    0.076988    0.000000
   306  O2    s     0.393453    0.561649    0.410559    0.000000
   307  F     s     0.424604    0.885349    0.247237    0.000000
   308  F     s     0.072583    0.539375    0.580432    0.000000
   309  F     s     0.395655    0.550248    0.924176    0.000000
   310  F     s     0.527783    0.088306    0.744888    0.000000
   311  F     s     0.833055    0.424533    0.067682    0.000000
   312  F     s     0.522497    0.439318    0.412551    0.000000
--------------------------------------------------------------------------------

  Final Cartesian lattice vectors (Angstroms) :

       11.938275    0.009223   -0.004445
       -5.961517   10.412770    0.008296
        0.057651   -0.261413   29.474733


  Final cell parameters and derivatives :

--------------------------------------------------------------------------------
       a           11.938279 Angstrom     dE/de1(xx)     0.002021 eV/strain
       b           11.998564 Angstrom     dE/de2(yy)     0.001224 eV/strain
       c           29.475949 Angstrom     dE/de3(zz)     0.003682 eV/strain
       alpha       90.457050 Degrees      dE/de4(yz)     0.000410 eV/strain
       beta        89.909663 Degrees      dE/de5(xz)    -0.000155 eV/strain
       gamma      119.747730 Degrees      dE/de6(xy)    -0.000199 eV/strain
--------------------------------------------------------------------------------

  Primitive cell volume =          3665.661549 Angs**3

  Density of cell =      1.745413 g/cm**3

  Non-primitive cell volume =          3665.661549 Angs**3


  Final internal derivatives :

--------------------------------------------------------------------------------
   No.  Atomic          a             b             c           Radius
        Label          (eV)          (eV)          (eV)        (eV/Angs)
--------------------------------------------------------------------------------
      1 Ge    c       0.000000      0.000000      0.000000      0.000000
      2 Si    c      -0.000065      0.000006      0.000036      0.000000
      3 Si    c      -0.000253     -0.000636      0.000954      0.000000
      4 Si    c       0.000165      0.000323     -0.000027      0.000000
      5 Si    c       0.000083      0.000143      0.000350      0.000000
      6 Si    c       0.000539     -0.000095     -0.000249      0.000000
      7 Si    c       0.000690      0.000089     -0.000608      0.000000
      8 Ge    c       0.000616      0.000313     -0.000466      0.000000
      9 Si    c      -0.000174      0.000221      0.000255      0.000000
     10 Si    c       0.000255      0.000073      0.000769      0.000000
     11 Si    c      -0.000281      0.000023     -0.000076      0.000000
     12 Si    c       0.001508     -0.000327      0.009232      0.000000
     13 Si    c      -0.002444      0.000211     -0.002700      0.000000
     14 Si    c       0.000854      0.000507      0.000461      0.000000
     15 Si    c       0.000091     -0.000407      0.000076      0.000000
     16 Si    c       0.000149     -0.000129     -0.000052      0.000000
     17 Si    c      -0.000075      0.000189     -0.000078      0.000000
     18 Si    c       0.000456      0.000242     -0.000038      0.000000
     19 Si    c       0.000518      0.000074      0.000163      0.000000
     20 Si    c       0.001058      0.000484      0.000091      0.000000
     21 Si    c      -0.000414     -0.000353     -0.000661      0.000000
     22 Si    c       0.000120     -0.000111     -0.000220      0.000000
     23 Si    c       0.000201     -0.000061      0.000383      0.000000
     24 Si    c       0.000479      0.000106      0.000702      0.000000
     25 Si    c       0.000194      0.000029     -0.000510      0.000000
     26 Si    c       0.000220      0.000253      0.000098      0.000000
     27 Si    c       0.000137     -0.000003      0.000573      0.000000
     28 Si    c      -0.000417      0.000194      0.000114      0.000000
     29 Si    c      -0.000124     -0.000289     -0.000215      0.000000
     30 Si    c       0.002632      0.000096     -0.001026      0.000000
     31 Si    c      -0.000047      0.000059     -0.000584      0.000000
     32 Si    c       0.000742      0.000067      0.001017      0.000000
     33 Si    c       0.000159      0.000138      0.000215      0.000000
     34 Si    c       0.000067      0.000325     -0.000003      0.000000
     35 Si    c      -0.000575     -0.000088     -0.000649      0.000000
     36 Si    c       0.000209      0.000394      0.000123      0.000000
     37 Si    c       0.000540      0.000098     -0.000146      0.000000
     38 Si    c       0.000846      0.000430      0.000451      0.000000
     39 Si    c       0.000127     -0.000104      0.000026      0.000000
     40 Si    c       0.000108      0.000031     -0.000111      0.000000
     41 Si    c      -0.000033      0.000080      0.000334      0.000000
     42 Si    c       0.000684      0.000604      0.000518      0.000000
     43 Si    c      -0.000037      0.000223     -0.000211      0.000000
     44 Si    c       0.001640     -0.000174     -0.002268      0.000000
     45 Si    c      -0.000026     -0.000093      0.000009      0.000000
     46 Si    c       0.000132      0.000170     -0.000560      0.000000
     47 Si    c      -0.000105     -0.000150     -0.000658      0.000000
     48 Si    c       0.000427      0.000303     -0.000269      0.000000
     49 Si    c      -0.000110      0.000224     -0.001085      0.000000
     50 Ge    c       0.000858      0.000768      0.000771      0.000000
     51 Si    c       0.000078     -0.000269      0.000903      0.000000
     52 Si    c       0.000338      0.000253      0.001094      0.000000
     53 Si    c       0.000643      0.000305      0.000296      0.000000
     54 Si    c      -0.000130      0.000222      0.000203      0.000000
     55 Si    c       0.000445      0.000385     -0.000433      0.000000
     56 Si    c      -0.000485      0.001229      0.000532      0.000000
     57 Si    c      -0.000286     -0.000270     -0.000348      0.000000
     58 Si    c       0.000378      0.000691     -0.000807      0.000000
     59 Si    c      -0.000236     -0.000365     -0.001182      0.000000
     60 Si    c       0.000220      0.000092     -0.001378      0.000000
     61 O2    c       0.000111     -0.000161      0.001304      0.000000
     62 O3    c      -0.000589      0.000326     -0.002456      0.000000
     63 O2    c      -0.000047     -0.000058      0.000656      0.000000
     64 O2    c      -0.000069     -0.000126      0.000137      0.000000
     65 O2    c      -0.000188     -0.000036      0.000826      0.000000
     66 O2    c       0.000364     -0.000078      0.000932      0.000000
     67 O2    c       0.000368     -0.000285      0.001216      0.000000
     68 O2    c      -0.000003      0.000036      0.000995      0.000000
     69 O3    c       0.000098     -0.000087     -0.000218      0.000000
     70 O2    c       0.000103     -0.000151     -0.000794      0.000000
     71 O2    c      -0.000021      0.000093     -0.000684      0.000000
     72 O2    c       0.000217     -0.000000     -0.001159      0.000000
     73 O3    c       0.001295     -0.003445      0.005168      0.000000
     74 O2    c       0.000272     -0.000085     -0.001588      0.000000
     75 O2    c      -0.000078     -0.000127     -0.001627      0.000000
     76 O2    c      -0.000060     -0.000031      0.001278      0.000000
     77 O2    c       0.000113     -0.000262     -0.000053      0.000000
     78 O2    c       0.000104     -0.000217      0.000986      0.000000
     79 O2    c       0.000455     -0.000273      0.000352      0.000000
     80 O3    c      -0.000036     -0.000015     -0.002154      0.000000
     81 O2    c      -0.000053     -0.000131      0.000286      0.000000
     82 O2    c      -0.000138     -0.000090     -0.000074      0.000000
     83 O2    c       0.000039     -0.000097      0.000498      0.000000
     84 O2    c       0.000245     -0.000106      0.000305      0.000000
     85 O2    c       0.000062      0.000076     -0.000198      0.000000
     86 O2    c       0.001732     -0.001528     -0.000557      0.000000
     87 O2    c       0.000200      0.000051      0.000142      0.000000
     88 O2    c       0.000154      0.000066      0.000396      0.000000
     89 O2    c       0.000136      0.000136      0.000384      0.000000
     90 O2    c       0.000016      0.000411      0.000168      0.000000
     91 O3    c       0.000085      0.000284      0.000310      0.000000
     92 O2    c       0.000099     -0.000049      0.000386      0.000000
     93 O2    c       0.000104      0.000155      0.001829      0.000000
     94 O2    c      -0.000458      0.000167     -0.001064      0.000000
     95 O2    c       0.000175      0.000081      0.000296      0.000000
     96 O2    c      -0.000322      0.000080      0.000982      0.000000
     97 O2    c       0.000244     -0.000102      0.000227      0.000000
     98 O3    c      -0.000300     -0.000083     -0.001429      0.000000
     99 O2    c       0.000275     -0.000200      0.000268      0.000000
    100 O2    c       0.000010     -0.000285      0.000277      0.000000
    101 O2    c       0.000061      0.000211      0.001205      0.000000
    102 O2    c       0.000016      0.000021      0.000471      0.000000
    103 O2    c       0.000143      0.000105     -0.000115      0.000000
    104 O2    c      -0.000156      0.000105      0.000294      0.000000
    105 O2    c      -0.000080      0.000092      0.001031      0.000000
    106 O2    c       0.000031     -0.000116      0.000282      0.000000
    107 O2    c       0.000149      0.000015      0.000267      0.000000
    108 O2    c      -0.000096     -0.000167     -0.000123      0.000000
    109 O2    c       0.000300     -0.000601      0.000929      0.000000
    110 O2    c      -0.000033     -0.000066      0.000751      0.000000
    111 O3    c      -0.000555      0.000695     -0.000271      0.000000
    112 O2    c       0.000169      0.000128     -0.001256      0.000000
    113 O3    c      -0.005432     -0.000459     -0.001844      0.000000
    114 O2    c       0.000083     -0.000043     -0.000662      0.000000
    115 O2    c       0.000291     -0.000453     -0.000138      0.000000
    116 O2    c      -0.000231     -0.000460     -0.000685      0.000000
    117 O2    c      -0.000007     -0.000250      0.000550      0.000000
    118 O2    c       0.000232     -0.000015      0.000411      0.000000
    119 O2    c       0.000249     -0.000142      0.000377      0.000000
    120 O2    c       0.000309     -0.000243      0.000295      0.000000
    121 O2    c       0.000123      0.000019     -0.000071      0.000000
    122 O2    c      -0.000312      0.000604      0.000282      0.000000
    123 O2    c       0.000128     -0.000107     -0.000092      0.000000
    124 O2    c       0.000149      0.000224     -0.000253      0.000000
    125 O2    c       0.000210      0.000075      0.000131      0.000000
    126 O2    c       0.000071      0.000222     -0.000216      0.000000
    127 O3    c       0.001009     -0.002183     -0.006673      0.000000
    128 O2    c       0.000154      0.000329     -0.000986      0.000000
    129 O2    c       0.000128      0.000112     -0.000818      0.000000
    130 O2    c       0.000077     -0.000232      0.000204      0.000000
    131 O2    c      -0.000046      0.000206     -0.000689      0.000000
    132 O2    c       0.000257     -0.000180     -0.000003      0.000000
    133 O2    c       0.000038      0.000015      0.000956      0.000000
    134 O3    c      -0.000227      0.000652      0.000155      0.000000
    135 O2    c      -0.000136     -0.000023      0.000832      0.000000
    136 O2    c      -0.000069     -0.000036     -0.000250      0.000000
    137 O2    c       0.000276     -0.000021     -0.000042      0.000000
    138 O2    c       0.000007     -0.000115      0.001329      0.000000
    139 O3    c       0.000328      0.000616     -0.002616      0.000000
    140 O2    c      -0.000066      0.000046     -0.000426      0.000000
    141 O2    c       0.000061      0.000149     -0.000590      0.000000
    142 O2    c       0.000061      0.000011      0.000043      0.000000
    143 O2    c       0.000176      0.000220      0.000049      0.000000
    144 O2    c      -0.000129      0.000174     -0.000354      0.000000
    145 O2    c       0.000445     -0.000254      0.000317      0.000000
    146 O3    c      -0.000764     -0.000362      0.001369      0.000000
    147 O2    c       0.000178     -0.000229      0.000469      0.000000
    148 O2    c      -0.000102     -0.000071      0.000462      0.000000
    149 O2    c       0.000046     -0.000194      0.000305      0.000000
    150 O2    c       0.000237     -0.000311      0.000927      0.000000
    151 O2    c      -0.000043     -0.000523      0.000136      0.000000
    152 O2    c      -0.000081     -0.000057      0.000754      0.000000
    153 O2    c       0.000082      0.000002     -0.000516      0.000000
    154 O2    c       0.000109      0.000196     -0.000027      0.000000
    155 O2    c      -0.000076      0.000003     -0.000240      0.000000
    156 O2    c       0.000444     -0.000644     -0.000870      0.000000
    157 O2    c      -0.000005      0.000046      0.000309      0.000000
    158 O2    c      -0.000006      0.000094      0.003523      0.000000
    159 O2    c       0.000099     -0.000101      0.000027      0.000000
    160 O2    c       0.000074      0.000115     -0.000252      0.000000
    161 O2    c      -0.000150      0.000240      0.000505      0.000000
    162 O2    c      -0.000294      0.000312      0.000365      0.000000
    163 O2    c      -0.000270     -0.000094      0.000061      0.000000
    164 O2    c      -0.000181      0.000313     -0.000004      0.000000
    165 O2    c       0.000064     -0.000019     -0.000359      0.000000
    166 O2    c       0.000077     -0.000195      0.000726      0.000000
    167 O2    c      -0.000233      0.000054      0.000526      0.000000
    168 O2    c      -0.000098      0.000054     -0.000069      0.000000
    169 O2    c      -0.000193      0.000256     -0.000073      0.000000
    170 O2    c       0.000465      0.001219     -0.000119      0.000000
    171 O2    c      -0.000001      0.000008      0.000212      0.000000
    172 O2    c      -0.000087      0.000065     -0.000264      0.000000
    173 O2    c       0.000033      0.000130     -0.000975      0.000000
    174 O2    c       0.000024     -0.000078     -0.000134      0.000000
    175 O2    c      -0.000160     -0.000171     -0.000631      0.000000
    176 O2    c       0.000054     -0.000176     -0.001030      0.000000
    177 O2    c       0.000224     -0.000494     -0.000984      0.000000
    178 O2    c       0.000039      0.000079      0.000854      0.000000
    179 O2    c      -0.000047     -0.000130     -0.000215      0.000000
    180 O2    c       0.000130     -0.000170      0.000238      0.000000
    181 F     c       0.000199      0.000269     -0.000186      0.000000
    182 F     c       0.000053     -0.000160      0.000105      0.000000
    183 F     c       0.000477     -0.000212      0.000049      0.000000
    184 F     c      -0.000018     -0.000158      0.000324      0.000000
    185 F     c       0.000924      0.000085     -0.000726      0.000000
    186 F     c      -0.000130      0.000119      0.000225      0.000000
    187 O2    s      -0.000290      0.000161     -0.000849      0.000000
    188 O3    s      -0.000135     -0.000268      0.000437      0.000000
    189 O2    s      -0.000206     -0.000240     -0.000411      0.000000
    190 O2    s       0.000223      0.000058      0.000290      0.000000
    191 O2    s       0.000317      0.000026      0.000516      0.000000
    192 O2    s       0.000202     -0.000417      0.000886      0.000000
    193 O2    s       0.000113      0.000201      0.000308      0.000000
    194 O2    s       0.000016      0.000033     -0.000028      0.000000
    195 O3    s       0.000138     -0.000421      0.002901      0.000000
    196 O2    s       0.000204      0.000054     -0.000024      0.000000
    197 O2    s       0.000152     -0.000200      0.001527      0.000000
    198 O2    s      -0.000253     -0.000150      0.000978      0.000000
    199 O3    s       0.001382      0.002652     -0.001689      0.000000
    200 O2    s       0.000229      0.000128      0.000251      0.000000
    201 O2    s       0.000056     -0.000144      0.000494      0.000000
    202 O2    s      -0.000071      0.000107     -0.000004      0.000000
    203 O2    s      -0.000431      0.000489      0.000041      0.000000
    204 O2    s       0.000322     -0.000300      0.000302      0.000000
    205 O2    s       0.000154      0.000201     -0.000305      0.000000
    206 O3    s      -0.000567      0.001027      0.002042      0.000000
    207 O2    s       0.000018     -0.000028     -0.000073      0.000000
    208 O2    s      -0.000053     -0.000180     -0.000032      0.000000
    209 O2    s       0.000181     -0.000112      0.000300      0.000000
    210 O2    s      -0.000022     -0.000123      0.000464      0.000000
    211 O2    s       0.000159     -0.000114      0.000677      0.000000
    212 O2    s      -0.000170      0.000136      0.000178      0.000000
    213 O2    s       0.000389     -0.000470      0.000047      0.000000
    214 O2    s      -0.000213     -0.000588      0.000827      0.000000
    215 O2    s       0.000007     -0.000036      0.000234      0.000000
    216 O2    s      -0.000045     -0.000335      0.000134      0.000000
    217 O3    s      -0.000064     -0.000071      0.000441      0.000000
    218 O2    s      -0.000336      0.000128     -0.000861      0.000000
    219 O2    s      -0.000338     -0.000052     -0.001859      0.000000
    220 O2    s       0.000005     -0.000210     -0.000839      0.000000
    221 O2    s      -0.000264     -0.000141     -0.000008      0.000000
    222 O2    s       0.000381     -0.000394      0.000093      0.000000
    223 O2    s       0.000311      0.000247     -0.000285      0.000000
    224 O3    s       0.000601     -0.000556      0.002889      0.000000
    225 O2    s      -0.000050     -0.000181      0.000636      0.000000
    226 O2    s       0.000444     -0.000039     -0.000101      0.000000
    227 O2    s       0.000528      0.000109     -0.000382      0.000000
    228 O2    s      -0.000085      0.000192     -0.000147      0.000000
    229 O2    s       0.000169     -0.000038      0.000265      0.000000
    230 O2    s       0.000120     -0.000793     -0.000998      0.000000
    231 O2    s       0.000162     -0.000420     -0.000601      0.000000
    232 O2    s       0.000113      0.000142      0.000324      0.000000
    233 O2    s       0.000327     -0.000135     -0.000015      0.000000
    234 O2    s       0.000486     -0.000175     -0.000436      0.000000
    235 O2    s      -0.000279      0.000257     -0.000887      0.000000
    236 O2    s       0.000265     -0.000007     -0.001019      0.000000
    237 O3    s      -0.000079      0.000716     -0.000521      0.000000
    238 O2    s      -0.000020      0.000288      0.000765      0.000000
    239 O3    s       0.003387      0.000665      0.000053      0.000000
    240 O2    s       0.000112     -0.000319      0.001208      0.000000
    241 O2    s      -0.000416      0.000376     -0.000631      0.000000
    242 O2    s       0.000155      0.000555     -0.000122      0.000000
    243 O2    s      -0.000487      0.000312      0.000672      0.000000
    244 O2    s      -0.000078      0.000097      0.000606      0.000000
    245 O2    s      -0.000002     -0.000035     -0.000386      0.000000
    246 O2    s       0.000269     -0.000103      0.000708      0.000000
    247 O2    s      -0.000143     -0.000021     -0.000084      0.000000
    248 O2    s       0.000351      0.000455     -0.000239      0.000000
    249 O2    s       0.000016     -0.000162      0.000165      0.000000
    250 O2    s       0.000324     -0.000009      0.000176      0.000000
    251 O2    s       0.000002     -0.000118     -0.000197      0.000000
    252 O2    s      -0.000472      0.000025     -0.000076      0.000000
    253 O3    s      -0.001529      0.002170      0.002637      0.000000
    254 O2    s       0.000306     -0.000157     -0.000023      0.000000
    255 O2    s      -0.000003     -0.000092     -0.000131      0.000000
    256 O2    s       0.000108      0.000050     -0.000125      0.000000
    257 O2    s       0.000138      0.000202     -0.001080      0.000000
    258 O2    s      -0.000013     -0.000079     -0.000558      0.000000
    259 O2    s       0.000069      0.000146      0.000597      0.000000
    260 O3    s      -0.000423     -0.000341      0.000422      0.000000
    261 O2    s       0.000430     -0.000351      0.000173      0.000000
    262 O2    s       0.000199      0.000046      0.000620      0.000000
    263 O2    s       0.000078     -0.000163      0.000174      0.000000
    264 O2    s      -0.000234     -0.000231     -0.001505      0.000000
    265 O3    s      -0.001992      0.000081     -0.000114      0.000000
    266 O2    s       0.000042     -0.000117      0.000421      0.000000
    267 O2    s      -0.000193     -0.000087     -0.000362      0.000000
    268 O2    s       0.000256     -0.000228     -0.000438      0.000000
    269 O2    s       0.000066     -0.000113     -0.000192      0.000000
    270 O2    s      -0.000058     -0.000007      0.000005      0.000000
    271 O2    s      -0.000396      0.000276      0.001005      0.000000
    272 O3    s       0.000125      0.000259      0.001588      0.000000
    273 O2    s       0.000037      0.000072      0.000462      0.000000
    274 O2    s      -0.000207      0.000279      0.000136      0.000000
    275 O2    s       0.000255     -0.000059      0.000683      0.000000
    276 O2    s      -0.000709      0.000518     -0.000178      0.000000
    277 O2    s       0.000399     -0.000404     -0.000185      0.000000
    278 O2    s       0.000241      0.000440     -0.000488      0.000000
    279 O2    s      -0.000002      0.000216     -0.000710      0.000000
    280 O2    s       0.000274      0.000011      0.000480      0.000000
    281 O2    s       0.000093     -0.000287      0.000088      0.000000
    282 O2    s      -0.000040     -0.000065      0.000613      0.000000
    283 O2    s       0.000141     -0.000321      0.000034      0.000000
    284 O2    s       0.000384      0.000706     -0.000867      0.000000
    285 O2    s       0.000028     -0.000134      0.000378      0.000000
    286 O2    s       0.000539     -0.000122      0.000178      0.000000
    287 O2    s       0.000160     -0.000351     -0.000259      0.000000
    288 O2    s       0.000094     -0.000001     -0.000458      0.000000
    289 O2    s       0.001473     -0.000415      0.000641      0.000000
    290 O2    s      -0.000040     -0.000185      0.000692      0.000000
    291 O2    s      -0.000149     -0.000223      0.000130      0.000000
    292 O2    s      -0.000019      0.000017      0.000629      0.000000
    293 O2    s       0.000228     -0.000102     -0.000415      0.000000
    294 O2    s      -0.000018      0.000406      0.000297      0.000000
    295 O2    s      -0.000142      0.000182      0.000094      0.000000
    296 O2    s       0.000630     -0.001738     -0.001240      0.000000
    297 O2    s      -0.000158     -0.000175      0.000407      0.000000
    298 O2    s      -0.000113      0.000166     -0.000965      0.000000
    299 O2    s       0.000086      0.000118     -0.000640      0.000000
    300 O2    s       0.000351      0.000046      0.000175      0.000000
    301 O2    s       0.000485      0.000139      0.000685      0.000000
    302 O2    s      -0.000060     -0.000272      0.001354      0.000000
    303 O2    s       0.000684      0.000122      0.001376      0.000000
    304 O2    s      -0.000197     -0.000019     -0.000560      0.000000
    305 O2    s       0.000704      0.000617     -0.000574      0.000000
    306 O2    s      -0.000252      0.000512     -0.001157      0.000000
    307 F     s       0.000193      0.000042      0.000589      0.000000
    308 F     s       0.000178     -0.000233     -0.000050      0.000000
    309 F     s       0.000802     -0.000304      0.000054      0.000000
    310 F     s       0.000045     -0.000231     -0.000044      0.000000
    311 F     s      -0.001192     -0.000147     -0.000962      0.000000
    312 F     s       0.000153     -0.000113      0.000185      0.000000
--------------------------------------------------------------------------------
  Maximum abs         0.005432      0.003445      0.009232      0.000000
--------------------------------------------------------------------------------


  Time to end of optimisation =     165.1436 seconds


  Peak dynamic memory used =      19.13 MB 


  Timing analysis for GULP :

--------------------------------------------------------------------------------
  Task / Subroutine                                          Time (Seconds)
--------------------------------------------------------------------------------
  Calculation of reciprocal space energy and derivatives          3.8025
  Calculation of real space energy and derivatives              144.8191
  Calculation of three-body energy and derivatives               14.8136
  Calculation of matrix inversion                                 1.4886
  Global summation overhead                                       0.0003
--------------------------------------------------------------------------------
  Total CPU time                                                165.1437
--------------------------------------------------------------------------------


  Dump file written as out.res                                                 
  CIF file written as out.cif                                                 


  Job Finished at 00:41.22 27th October    2016                               

