********************************************************************************
*                       GENERAL UTILITY LATTICE PROGRAM                        *
*                                 Julian Gale                                  *
*                      Nanochemistry Research Institute                        *
*                           Department of Chemistry                            *
*                    Curtin University, Western Australia                      *
********************************************************************************
* Version = 4.2.0 * Last modified =  20th January 2014                         *
********************************************************************************
*  optimise     - perform optimisation run                                     *
*  conp         - constant pressure calculation                                *
*  qok          - running with non charge neutral cell is OK                   *
********************************************************************************

  Job Started  at 05:39.13  4th December   2016                               

  Number of CPUs =     1


  Total number of configurations input =   1

********************************************************************************
*  Input for Configuration =   1                                               *
********************************************************************************

  Formula = Ge3Si57O120F6                                               

  Number of irreducible atoms/shells =     312


  Total number atoms/shells =     312

  Dimensionality = 3               :  Bulk   


  Charge on solid   =  -6.000000 =>neutralising background added


  Cartesian lattice vectors (Angstroms) :

       11.931195    0.000000    0.000000
       -5.967957   10.389271    0.000000
        0.062068   -0.261159   29.502764

  Cell parameters (Angstroms/Degrees):

  a =      11.9312    alpha =  90.4998
  b =      11.9814    beta  =  89.8795
  c =      29.5040    gamma = 119.8746

  Initial cell volume =        3657.056958 Angs**3

  Temperature of configuration =  0.000     K 

  Pressure of configuration =         0.000 GPa 

  Fractional coordinates of asymmetric unit :

--------------------------------------------------------------------------------
   No.  Atomic       x           y          z         Charge      Occupancy
        Label      (Frac)      (Frac)     (Frac)        (e)         (Frac)  
--------------------------------------------------------------------------------
      1 Ge    c    0.699600    0.375700    0.033890     4.00000    1.000000    
      2 Ge    c    0.613063 *  0.330290 *  0.369062 *   4.00000    1.000000    
      3 Si    c    0.677339 *  0.297826 *  0.699455 *   4.00000    1.000000    
      4 Si    c    0.297956 *  0.618438 *  0.532621 *   4.00000    1.000000    
      5 Si    c    0.378009 *  0.675093 *  0.862633 *   4.00000    1.000000    
      6 Si    c    0.319681 *  0.707125 *  0.194508 *   4.00000    1.000000    
      7 Si    c    0.370103 *  0.700184 *  0.294473 *   4.00000    1.000000    
      8 Si    c    0.319848 *  0.621789 *  0.962391 *   4.00000    1.000000    
      9 Si    c    0.300205 *  0.676177 *  0.632943 *   4.00000    1.000000    
     10 Si    c    0.621677 *  0.296827 *  0.799888 *   4.00000    1.000000    
     11 Si    c    0.681411 *  0.373225 *  0.467754 *   4.00000    1.000000    
     12 Si    c    0.687021 *  0.321162 *  0.132916 *   4.00000    1.000000    
     13 Si    c    0.528706 *  0.417239 *  0.966481 *   4.00000    1.000000    
     14 Si    c    0.581566 *  0.114283 *  0.303662 *   4.00000    1.000000    
     15 Si    c    0.889483 *  0.471967 *  0.636058 *   4.00000    1.000000    
     16 Si    c    0.469420 *  0.584309 *  0.464860 *   4.00000    1.000000    
     17 Si    c    0.417264 *  0.885594 *  0.798561 *   4.00000    1.000000    
     18 Si    c    0.108450 *  0.534714 *  0.128107 *   4.00000    1.000000    
     19 Ge    c    0.419447 *  0.531965 *  0.359803 *   4.00000    1.000000    
     20 Si    c    0.103279 *  0.582308 *  0.025091 *   4.00000    1.000000    
     21 Si    c    0.471851 *  0.888626 *  0.697137 *   4.00000    1.000000    
     22 Si    c    0.582025 *  0.469309 *  0.864566 *   4.00000    1.000000    
     23 Si    c    0.890265 *  0.418832 *  0.534785 *   4.00000    1.000000    
     24 Si    c    0.530109 *  0.116334 *  0.201446 *   4.00000    1.000000    
     25 Si    c    0.301099 *  0.397692 *  0.848372 *   4.00000    1.000000    
     26 Si    c    0.599501 *  0.906798 *  0.183223 *   4.00000    1.000000    
     27 Si    c    0.096930 *  0.697141 *  0.518079 *   4.00000    1.000000    
     28 Si    c    0.709956 *  0.602480 *  0.345213 *   4.00000    1.000000    
     29 Si    c    0.399743 *  0.096784 *  0.683422 *   4.00000    1.000000    
     30 Si    c    0.890926 *  0.295237 *  0.010874 *   4.00000    1.000000    
     31 Si    c    0.397097 *  0.297349 *  0.478219 *   4.00000    1.000000    
     32 Si    c    0.893203 *  0.605946 *  0.142477 *   4.00000    1.000000    
     33 Si    c    0.698719 *  0.095263 *  0.813485 *   4.00000    1.000000    
     34 Si    c    0.597811 *  0.699198 *  0.978546 *   4.00000    1.000000    
     35 Si    c    0.099385 *  0.399218 *  0.648594 *   4.00000    1.000000    
     36 Si    c    0.297381 *  0.902624 *  0.312611 *   4.00000    1.000000    
     37 Si    c    0.249572 *  0.341622 *  0.948588 *   4.00000    1.000000    
     38 Si    c    0.652807 *  0.907356 *  0.283821 *   4.00000    1.000000    
     39 Si    c    0.090736 *  0.749165 *  0.618909 *   4.00000    1.000000    
     40 Si    c    0.751139 *  0.657053 *  0.448926 *   4.00000    1.000000    
     41 Si    c    0.340674 *  0.087539 *  0.783887 *   4.00000    1.000000    
     42 Si    c    0.903578 *  0.252934 *  0.113588 *   4.00000    1.000000    
     43 Si    c    0.330619 *  0.242416 *  0.375922 *   4.00000    1.000000    
     44 Si    c    0.897326 *  0.660426 *  0.039952 *   4.00000    1.000000    
     45 Si    c    0.750281 *  0.089754 *  0.712826 *   4.00000    1.000000    
     46 Si    c    0.659007 *  0.748078 *  0.878124 *   4.00000    1.000000    
     47 Si    c    0.090200 *  0.338849 *  0.547934 *   4.00000    1.000000    
     48 Si    c    0.248831 *  0.915461 *  0.212221 *   4.00000    1.000000    
     49 Si    c    0.972564 *  0.121462 *  0.962983 *   4.00000    1.000000    
     50 Si    c    0.877459 *  0.852821 *  0.296263 *   4.00000    1.000000    
     51 Si    c    0.152783 *  0.029251 *  0.631728 *   4.00000    1.000000    
     52 Si    c    0.028686 *  0.874763 *  0.465698 *   4.00000    1.000000    
     53 Si    c    0.122002 *  0.148666 *  0.797785 *   4.00000    1.000000    
     54 Si    c    0.846627 *  0.976408 *  0.130450 *   4.00000    1.000000    
     55 Si    c    0.113093 *  0.965214 *  0.364042 *   4.00000    1.000000    
     56 Si    c    0.846098 *  0.883318 *  0.029081 *   4.00000    1.000000    
     57 Si    c    0.030338 *  0.150547 *  0.697141 *   4.00000    1.000000    
     58 Si    c    0.878630 *  0.025568 *  0.862778 *   4.00000    1.000000    
     59 Si    c    0.150279 *  0.119698 *  0.530691 *   4.00000    1.000000    
     60 Si    c    0.970261 *  0.857056 *  0.194944 *   4.00000    1.000000    
     61 O2    c    0.927241 *  0.005267 *  0.997597 *   0.87073    1.000000    
     62 O2    c    0.995159 *  0.930110 *  0.330532 *   0.87073    1.000000    
     63 O2    c    0.070566 *  0.072950 *  0.662438 *   0.87073    1.000000    
     64 O2    c    0.070510 *  0.999757 *  0.496969 *   0.87073    1.000000    
     65 O2    c    0.998322 *  0.068119 *  0.829147 *   0.87073    1.000000    
     66 O2    c    0.931346 *  0.938912 *  0.162427 *   0.87073    1.000000    
     67 O3    c    0.331890 *  0.576990 *  0.325455 *   1.33043    1.000000    
     68 O2    c    0.424611 *  0.762634 *  0.664752 *   0.87073    1.000000    
     69 O2    c    0.230749 *  0.658694 *  0.994034 *   0.87073    1.000000    
     70 O2    c    0.659914 *  0.419375 *  0.832783 *   0.87073    1.000000    
     71 O2    c    0.580908 *  0.245376 *  0.171812 *   0.87073    1.000000    
     72 O2    c    0.760709 *  0.340904 *  0.504572 *   0.87073    1.000000    
     73 O3    c    0.566690 *  0.337062 *  0.998750 *   1.33043    1.000000    
     74 O2    c    0.763799 *  0.423180 *  0.668188 *   0.87073    1.000000    
     75 O3    c    0.656762 *  0.233252 *  0.335769 *   1.33043    1.000000    
     76 O2    c    0.421982 *  0.656636 *  0.500018 *   0.87073    1.000000    
     77 O2    c    0.234564 *  0.586621 *  0.160089 *   0.87073    1.000000    
     78 O2    c    0.339930 *  0.759784 *  0.829951 *   0.87073    1.000000    
     79 O2    c    0.126153 *  0.213775 *  0.968858 *   0.87073    1.000000    
     80 O2    c    0.780167 *  0.907971 *  0.303533 *   0.87073    1.000000    
     81 O2    c    0.090262 *  0.875895 *  0.638374 *   0.87073    1.000000    
     82 O2    c    0.874481 *  0.781893 *  0.471112 *   0.87073    1.000000    
     83 O2    c    0.213490 *  0.086182 *  0.804022 *   0.87073    1.000000    
     84 O2    c    0.907926 *  0.130683 *  0.134639 *   0.87073    1.000000    
     85 O2    c    0.194966 *  0.118809 *  0.360791 *   0.87073    1.000000    
     86 O2    c    0.914420 *  0.797475 *  0.023644 *   0.87073    1.000000    
     87 O2    c    0.876068 *  0.089008 *  0.692147 *   0.87073    1.000000    
     88 O2    c    0.786215 *  0.871865 *  0.857531 *   0.87073    1.000000    
     89 O2    c    0.086303 *  0.210496 *  0.527624 *   0.87073    1.000000    
     90 O2    c    0.124775 *  0.918771 *  0.191276 *   0.87073    1.000000    
     91 O2    c    0.929734 *  0.870901 *  0.245417 *   0.87073    1.000000    
     92 O2    c    0.141676 *  0.064470 *  0.580340 *   0.87073    1.000000    
     93 O2    c    0.935376 *  0.062895 *  0.912918 *   0.87073    1.000000    
     94 O2    c    0.071156 *  0.133342 *  0.746788 *   0.87073    1.000000    
     95 O2    c    0.855218 *  0.934027 *  0.079967 *   0.87073    1.000000    
     96 O2    c    0.061851 *  0.919004 *  0.414387 *   0.87073    1.000000    
     97 O2    c    0.902509 *  0.203717 *  0.972835 *   0.87073    1.000000    
     98 O2    c    0.806347 *  0.702328 *  0.307798 *   0.87073    1.000000    
     99 O2    c    0.304026 *  0.099790 *  0.644776 *   0.87073    1.000000    
    100 O2    c    0.099756 *  0.795204 *  0.479666 *   0.87073    1.000000    
    101 O2    c    0.203424 *  0.300226 *  0.809693 *   0.87073    1.000000    
    102 O2    c    0.696499 *  0.906709 *  0.144562 *   0.87073    1.000000    
    103 O2    c    0.198061 *  0.899246 *  0.351050 *   0.87073    1.000000    
    104 O2    c    0.694263 *  0.799607 *  0.016773 *   0.87073    1.000000    
    105 O2    c    0.100741 *  0.302838 *  0.686604 *   0.87073    1.000000    
    106 O2    c    0.796286 *  0.095882 *  0.851906 *   0.87073    1.000000    
    107 O2    c    0.300836 *  0.204534 *  0.517246 *   0.87073    1.000000    
    108 O2    c    0.899569 *  0.706271 *  0.181166 *   0.87073    1.000000    
    109 O2    c    0.316466 *  0.643599 *  0.243506 *   0.87073    1.000000    
    110 O2    c    0.356960 *  0.677083 *  0.582453 *   0.87073    1.000000    
    111 O2    c    0.318350 *  0.677400 *  0.912255 *   0.87073    1.000000    
    112 O2    c    0.677715 *  0.354460 *  0.749802 *   0.87073    1.000000    
    113 O3    c    0.614906 *  0.306254 *  0.085917 *   1.33043    1.000000    
    114 O3    c    0.685316 *  0.313997 *  0.420012 *   1.33043    1.000000    
    115 O2    c    0.371318 *  0.332195 *  0.966571 *   0.87073    1.000000    
    116 O2    c    0.664133 *  0.038533 *  0.303225 *   0.87073    1.000000    
    117 O2    c    0.958588 *  0.628196 *  0.637761 *   0.87073    1.000000    
    118 O2    c    0.626179 *  0.664410 *  0.466077 *   0.87073    1.000000    
    119 O2    c    0.329994 *  0.954936 *  0.801469 *   0.87073    1.000000    
    120 O2    c    0.036197 *  0.379065 *  0.129997 *   0.87073    1.000000    
    121 O3    c    0.322144 *  0.365899 *  0.360220 *   1.33043    1.000000    
    122 O2    c    0.030990 *  0.665804 *  0.023634 *   0.87073    1.000000    
    123 O2    c    0.628311 *  0.957701 *  0.693877 *   0.87073    1.000000    
    124 O2    c    0.668523 *  0.624875 *  0.860250 *   0.87073    1.000000    
    125 O2    c    0.958506 *  0.330944 *  0.529659 *   0.87073    1.000000    
    126 O2    c    0.373875 *  0.046688 *  0.195653 *   0.87073    1.000000    
    127 O3    c    0.755376 *  0.284605 *  0.002109 *   1.33043    1.000000    
    128 O3    c    0.713741 *  0.473648 *  0.337888 *   1.33043    1.000000    
    129 O2    c    0.534536 *  0.230259 *  0.676236 *   0.87073    1.000000    
    130 O2    c    0.228925 *  0.692145 *  0.509780 *   0.87073    1.000000    
    131 O2    c    0.303495 *  0.532283 *  0.839493 *   0.87073    1.000000    
    132 O2    c    0.463503 *  0.776444 *  0.172399 *   0.87073    1.000000    
    133 O2    c    0.293132 *  0.765943 *  0.317798 *   0.87073    1.000000    
    134 O2    c    0.462777 *  0.699654 *  0.985313 *   0.87073    1.000000    
    135 O2    c    0.233867 *  0.533431 *  0.655008 *   0.87073    1.000000    
    136 O2    c    0.697492 *  0.228465 *  0.821410 *   0.87073    1.000000    
    137 O2    c    0.532973 *  0.302777 *  0.486809 *   0.87073    1.000000    
    138 O2    c    0.761727 *  0.471322 *  0.150806 *   0.87073    1.000000    
    139 O3    c    0.770759 *  0.546340 *  0.019279 *   1.33043    1.000000    
    140 O3    c    0.445827 *  0.232024 *  0.353496 *   1.33043    1.000000    
    141 O2    c    0.752681 *  0.216869 *  0.693761 *   0.87073    1.000000    
    142 O2    c    0.218375 *  0.462170 *  0.528139 *   0.87073    1.000000    
    143 O2    c    0.534687 *  0.750953 *  0.858051 *   0.87073    1.000000    
    144 O2    c    0.243599 *  0.787672 *  0.191309 *   0.87073    1.000000    
    145 O2    c    0.527181 *  0.778572 *  0.302396 *   0.87073    1.000000    
    146 O2    c    0.245681 *  0.466320 *  0.968059 *   0.87073    1.000000    
    147 O2    c    0.216811 *  0.749018 *  0.638206 *   0.87073    1.000000    
    148 O2    c    0.465461 *  0.213309 *  0.804107 *   0.87073    1.000000    
    149 O2    c    0.746841 *  0.529744 *  0.467774 *   0.87073    1.000000    
    150 O2    c    0.780537 *  0.257420 *  0.133523 *   0.87073    1.000000    
    151 O2    c    0.227914 *  0.324516 *  0.894270 *   0.87073    1.000000    
    152 O2    c    0.670521 *  0.903921 *  0.229451 *   0.87073    1.000000    
    153 O2    c    0.093899 *  0.767790 *  0.564602 *   0.87073    1.000000    
    154 O2    c    0.766789 *  0.671006 *  0.394691 *   0.87073    1.000000    
    155 O2    c    0.323875 *  0.091396 *  0.729589 *   0.87073    1.000000    
    156 O2    c    0.899338 *  0.234667 *  0.059385 *   0.87073    1.000000    
    157 O2    c    0.329717 *  0.228967 *  0.431162 *   0.87073    1.000000    
    158 O2    c    0.893929 *  0.671635 *  0.095262 *   0.87073    1.000000    
    159 O2    c    0.769606 *  0.091401 *  0.767039 *   0.87073    1.000000    
    160 O2    c    0.674788 *  0.768008 *  0.932446 *   0.87073    1.000000    
    161 O2    c    0.092469 *  0.322769 *  0.602120 *   0.87073    1.000000    
    162 O2    c    0.229118 *  0.912448 *  0.266444 *   0.87073    1.000000    
    163 O2    c    0.580376 *  0.559891 *  0.988383 *   0.87073    1.000000    
    164 O2    c    0.437316 *  0.022158 *  0.324086 *   0.87073    1.000000    
    165 O2    c    0.976019 *  0.416724 *  0.658326 *   0.87073    1.000000    
    166 O2    c    0.415036 *  0.439200 *  0.482480 *   0.87073    1.000000    
    167 O2    c    0.558847 *  0.970522 *  0.821539 *   0.87073    1.000000    
    168 O2    c    0.016325 *  0.585889 *  0.148105 *   0.87073    1.000000    
    169 O3    c    0.568847 *  0.585035 *  0.335995 *   1.33043    1.000000    
    170 O2    c    0.013357 *  0.439614 *  0.004450 *   0.87073    1.000000    
    171 O2    c    0.412899 *  0.970895 *  0.673849 *   0.87073    1.000000    
    172 O2    c    0.440605 *  0.409607 *  0.840889 *   0.87073    1.000000    
    173 O2    c    0.969464 *  0.558269 *  0.510287 *   0.87073    1.000000    
    174 O2    c    0.590378 *  0.035681 *  0.177131 *   0.87073    1.000000    
    175 O2    c    0.578109 *  0.164093 *  0.252541 *   0.87073    1.000000    
    176 O2    c    0.836837 *  0.417739 *  0.585401 *   0.87073    1.000000    
    177 O2    c    0.583581 *  0.420634 *  0.915401 *   0.87073    1.000000    
    178 O2    c    0.418034 *  0.834147 *  0.747427 *   0.87073    1.000000    
    179 O2    c    0.151289 *  0.580671 *  0.076560 *   0.87073    1.000000    
    180 O3    c    0.423047 *  0.589183 *  0.414633 *   1.33043    1.000000    
    181 F     c    0.444432 *  0.896034 *  0.247316 *   0.56000    1.000000    
    182 F     c    0.097702 *  0.546419 *  0.582256 *   0.56000    1.000000    
    183 F     c    0.447454 *  0.551448 *  0.912520 *   0.56000    1.000000    
    184 F     c    0.548825 *  0.095560 *  0.747347 *   0.56000    1.000000    
    185 F     c    0.852526 *  0.436043 *  0.069477 *   0.56000    1.000000    
    186 F     c    0.557230 *  0.428220 *  0.403471 *   0.56000    1.000000    
    187 O2    s    0.923163 *  0.004634 *  0.997241 *  -2.87073    1.000000    
    188 O2    s    0.995154 *  0.925252 *  0.330453 *  -2.87073    1.000000    
    189 O2    s    0.075369 *  0.076687 *  0.662838 *  -2.87073    1.000000    
    190 O2    s    0.074682 *  0.999173 *  0.497239 *  -2.87073    1.000000    
    191 O2    s    0.998815 *  0.072404 *  0.829381 *  -2.87073    1.000000    
    192 O2    s    0.926333 *  0.933974 *  0.162509 *  -2.87073    1.000000    
    193 O3    s    0.342551 *  0.585342 *  0.325183 *  -3.33043    1.000000    
    194 O2    s    0.416409 *  0.766457 *  0.664718 *  -2.87073    1.000000    
    195 O2    s    0.226302 *  0.646918 *  0.994101 *  -2.87073    1.000000    
    196 O2    s    0.647957 *  0.411623 *  0.832572 *  -2.87073    1.000000    
    197 O2    s    0.586694 *  0.239767 *  0.170831 *  -2.87073    1.000000    
    198 O2    s    0.765944 *  0.352541 *  0.503835 *  -2.87073    1.000000    
    199 O3    s    0.572596 *  0.348406 *  0.997990 *  -3.33043    1.000000    
    200 O2    s    0.768156 *  0.415577 *  0.668015 *  -2.87073    1.000000    
    201 O3    s    0.645452 *  0.226745 *  0.334518 *  -3.33043    1.000000    
    202 O2    s    0.414395 *  0.645199 *  0.499632 *  -2.87073    1.000000    
    203 O2    s    0.229669 *  0.593130 *  0.160134 *  -2.87073    1.000000    
    204 O2    s    0.351894 *  0.764326 *  0.829998 *  -2.87073    1.000000    
    205 O2    s    0.122251 *  0.216964 *  0.966159 *  -2.87073    1.000000    
    206 O2    s    0.777535 *  0.901900 *  0.300742 *  -2.87073    1.000000    
    207 O2    s    0.096936 *  0.878946 *  0.635663 *  -2.87073    1.000000    
    208 O2    s    0.877931 *  0.778708 *  0.468253 *  -2.87073    1.000000    
    209 O2    s    0.216976 *  0.092988 *  0.801280 *  -2.87073    1.000000    
    210 O2    s    0.901034 *  0.127209 *  0.132027 *  -2.87073    1.000000    
    211 O2    s    0.200130 *  0.114793 *  0.362735 *  -2.87073    1.000000    
    212 O2    s    0.905232 *  0.792869 *  0.025867 *  -2.87073    1.000000    
    213 O2    s    0.879577 *  0.095690 *  0.694792 *  -2.87073    1.000000    
    214 O2    s    0.783002 *  0.875531 *  0.860172 *  -2.87073    1.000000    
    215 O2    s    0.093522 *  0.214015 *  0.530013 *  -2.87073    1.000000    
    216 O2    s    0.121019 *  0.911819 *  0.193807 *  -2.87073    1.000000    
    217 O2    s    0.928430 *  0.867330 *  0.245448 *  -2.87073    1.000000    
    218 O2    s    0.143891 *  0.066826 *  0.580429 *  -2.87073    1.000000    
    219 O2    s    0.933126 *  0.065251 *  0.912865 *  -2.87073    1.000000    
    220 O2    s    0.072195 *  0.137038 *  0.746826 *  -2.87073    1.000000    
    221 O2    s    0.853230 *  0.933277 *  0.080089 *  -2.87073    1.000000    
    222 O2    s    0.063755 *  0.919084 *  0.414657 *  -2.87073    1.000000    
    223 O2    s    0.909011 *  0.204294 *  0.975751 *  -2.87073    1.000000    
    224 O2    s    0.804113 *  0.708402 *  0.310431 *  -2.87073    1.000000    
    225 O2    s    0.297541 *  0.091957 *  0.647280 *  -2.87073    1.000000    
    226 O2    s    0.091978 *  0.793648 *  0.482087 *  -2.87073    1.000000    
    227 O2    s    0.204606 *  0.293899 *  0.812332 *  -2.87073    1.000000    
    228 O2    s    0.702668 *  0.914218 *  0.147021 *  -2.87073    1.000000    
    229 O2    s    0.199049 *  0.906641 *  0.348514 *  -2.87073    1.000000    
    230 O2    s    0.700528 *  0.798292 *  0.014192 *  -2.87073    1.000000    
    231 O2    s    0.093224 *  0.296789 *  0.683787 *  -2.87073    1.000000    
    232 O2    s    0.794963 *  0.088379 *  0.849110 *  -2.87073    1.000000    
    233 O2    s    0.294805 *  0.205153 *  0.514620 *  -2.87073    1.000000    
    234 O2    s    0.906346 *  0.711882 *  0.178648 *  -2.87073    1.000000    
    235 O2    s    0.322155 *  0.655726 *  0.243576 *  -2.87073    1.000000    
    236 O2    s    0.345053 *  0.670882 *  0.582402 *  -2.87073    1.000000    
    237 O2    s    0.324559 *  0.671461 *  0.912325 *  -2.87073    1.000000    
    238 O2    s    0.671941 *  0.342698 *  0.749700 *  -2.87073    1.000000    
    239 O3    s    0.627827 *  0.312364 *  0.087189 *  -3.33043    1.000000    
    240 O3    s    0.680001 *  0.321340 *  0.421573 *  -3.33043    1.000000    
    241 O2    s    0.373773 *  0.341905 *  0.964545 *  -2.87073    1.000000    
    242 O2    s    0.654724 *  0.031707 *  0.301148 *  -2.87073    1.000000    
    243 O2    s    0.965312 *  0.624818 *  0.635608 *  -2.87073    1.000000    
    244 O2    s    0.623119 *  0.655352 *  0.464152 *  -2.87073    1.000000    
    245 O2    s    0.340133 *  0.961764 *  0.799300 *  -2.87073    1.000000    
    246 O2    s    0.029980 *  0.382199 *  0.128096 *  -2.87073    1.000000    
    247 O3    s    0.330702 *  0.366927 *  0.361735 *  -3.33043    1.000000    
    248 O2    s    0.025297 *  0.656340 *  0.025424 *  -2.87073    1.000000    
    249 O2    s    0.624945 *  0.964437 *  0.696207 *  -2.87073    1.000000    
    250 O2    s    0.658595 *  0.621813 *  0.862579 *  -2.87073    1.000000    
    251 O2    s    0.965409 *  0.340854 *  0.532118 *  -2.87073    1.000000    
    252 O2    s    0.376490 *  0.039785 *  0.198019 *  -2.87073    1.000000    
    253 O3    s    0.765901 *  0.291846 *  0.005258 *  -3.33043    1.000000    
    254 O3    s    0.706500 *  0.477549 *  0.340834 *  -3.33043    1.000000    
    255 O2    s    0.535092 *  0.223235 *  0.679393 *  -2.87073    1.000000    
    256 O2    s    0.222227 *  0.685084 *  0.513001 *  -2.87073    1.000000    
    257 O2    s    0.310870 *  0.532809 *  0.842815 *  -2.87073    1.000000    
    258 O2    s    0.462725 *  0.782770 *  0.175824 *  -2.87073    1.000000    
    259 O2    s    0.301423 *  0.773463 *  0.314827 *  -2.87073    1.000000    
    260 O2    s    0.462002 *  0.691623 *  0.982233 *  -2.87073    1.000000    
    261 O2    s    0.226519 *  0.533955 *  0.652022 *  -2.87073    1.000000    
    262 O2    s    0.689808 *  0.221413 *  0.818319 *  -2.87073    1.000000    
    263 O2    s    0.533005 *  0.309169 *  0.483978 *  -2.87073    1.000000    
    264 O2    s    0.768418 *  0.471047 *  0.148139 *  -2.87073    1.000000    
    265 O3    s    0.780462 *  0.548479 *  0.022408 *  -3.33043    1.000000    
    266 O3    s    0.445047 *  0.239900 *  0.356827 *  -3.33043    1.000000    
    267 O2    s    0.744513 *  0.211543 *  0.696364 *  -2.87073    1.000000    
    268 O2    s    0.212937 *  0.465203 *  0.530665 *  -2.87073    1.000000    
    269 O2    s    0.531843 *  0.742687 *  0.860662 *  -2.87073    1.000000    
    270 O2    s    0.252118 *  0.792916 *  0.193849 *  -2.87073    1.000000    
    271 O2    s    0.524800 *  0.784231 *  0.299758 *  -2.87073    1.000000    
    272 O2    s    0.253804 *  0.469170 *  0.965441 *  -2.87073    1.000000    
    273 O2    s    0.211645 *  0.741314 *  0.635576 *  -2.87073    1.000000    
    274 O2    s    0.468261 *  0.208262 *  0.801481 *  -2.87073    1.000000    
    275 O2    s    0.740615 *  0.527975 *  0.465682 *  -2.87073    1.000000    
    276 O2    s    0.784811 *  0.263427 *  0.131244 *  -2.87073    1.000000    
    277 O2    s    0.237830 *  0.333995 *  0.895143 *  -2.87073    1.000000    
    278 O2    s    0.661122 *  0.904516 *  0.230246 *  -2.87073    1.000000    
    279 O2    s    0.093878 *  0.758326 *  0.565398 *  -2.87073    1.000000    
    280 O2    s    0.759552 *  0.662798 *  0.395675 *  -2.87073    1.000000    
    281 O2    s    0.333635 *  0.091567 *  0.730421 *  -2.87073    1.000000    
    282 O2    s    0.898929 *  0.242620 *  0.060419 *  -2.87073    1.000000    
    283 O2    s    0.337274 *  0.237792 *  0.430892 *  -2.87073    1.000000    
    284 O2    s    0.894072 *  0.663233 *  0.095005 *  -2.87073    1.000000    
    285 O2    s    0.760184 *  0.091622 *  0.766112 *  -2.87073    1.000000    
    286 O2    s    0.665145 *  0.758784 *  0.931459 *  -2.87073    1.000000    
    287 O2    s    0.092957 *  0.332448 *  0.601172 *  -2.87073    1.000000    
    288 O2    s    0.238231 *  0.911747 *  0.265444 *  -2.87073    1.000000    
    289 O2    s    0.576747 *  0.560658 *  0.985051 *  -2.87073    1.000000    
    290 O2    s    0.436359 *  0.017931 *  0.320734 *  -2.87073    1.000000    
    291 O2    s    0.980457 *  0.420844 *  0.654933 *  -2.87073    1.000000    
    292 O2    s    0.418974 *  0.439224 *  0.480126 *  -2.87073    1.000000    
    293 O2    s    0.559155 *  0.975307 *  0.818246 *  -2.87073    1.000000    
    294 O2    s    0.012894 *  0.582420 *  0.145348 *  -2.87073    1.000000    
    295 O3    s    0.569859 *  0.582015 *  0.338896 *  -3.33043    1.000000    
    296 O2    s    0.010240 *  0.440114 *  0.007336 *  -2.87073    1.000000    
    297 O2    s    0.417777 *  0.976041 *  0.677277 *  -2.87073    1.000000    
    298 O2    s    0.440242 *  0.414669 *  0.844144 *  -2.87073    1.000000    
    299 O2    s    0.975118 *  0.558827 *  0.513619 *  -2.87073    1.000000    
    300 O2    s    0.584989 *  0.029997 *  0.180289 *  -2.87073    1.000000    
    301 O2    s    0.573144 *  0.153825 *  0.252098 *  -2.87073    1.000000    
    302 O2    s    0.848090 *  0.423596 *  0.585382 *  -2.87073    1.000000    
    303 O2    s    0.577944 *  0.425510 *  0.915140 *  -2.87073    1.000000    
    304 O2    s    0.423608 *  0.845209 *  0.747464 *  -2.87073    1.000000    
    305 O2    s    0.141797 *  0.575907 *  0.076792 *  -2.87073    1.000000    
    306 O3    s    0.427435 *  0.584306 *  0.415472 *  -3.33043    1.000000    
    307 F     s    0.443738 *  0.894579 *  0.247230 *  -1.56000    1.000000    
    308 F     s    0.098054 *  0.546448 *  0.582100 *  -1.56000    1.000000    
    309 F     s    0.446886 *  0.552040 *  0.912389 *  -1.56000    1.000000    
    310 F     s    0.549031 *  0.095947 *  0.747208 *  -1.56000    1.000000    
    311 F     s    0.842713 *  0.432122 *  0.067308 *  -1.56000    1.000000    
    312 F     s    0.560364 *  0.422078 *  0.401109 *  -1.56000    1.000000    
--------------------------------------------------------------------------------



********************************************************************************
*  General input information                                                   *
********************************************************************************

  Species output for all configurations : 

--------------------------------------------------------------------------------
  Species    Type    Atomic    Atomic    Charge       Radii (Angs)     Library
                     Number     Mass       (e)     Cova   Ionic  VDW   Symbol
--------------------------------------------------------------------------------
    Si       Core       14      28.09   4.000000   1.200  0.000  2.100          
    O1       Core        8      16.00   1.733957   0.730  0.000  1.360          
    O1       Shell       8       0.00  -3.733957   0.730  0.000  1.360          
    O2       Core        8      16.00   0.870733   0.730  0.000  1.360          
    O2       Shell       8       0.00  -2.870733   0.730  0.000  1.360          
    O3       Core        8      16.00   1.330431   0.730  0.000  1.360          
    O3       Shell       8       0.00  -3.330431   0.730  0.000  1.360          
    F        Core        9      19.00   0.560000   0.710  0.000  1.300          
    F        Shell       9       0.00  -1.560000   0.710  0.000  1.300          
    Ge       Core       32      72.61   4.000000   1.170  0.000  1.750          
--------------------------------------------------------------------------------


  Lattice summation method               =    Ewald          (3-D)
                                         =    Parry          (2-D)
                                         =    Saunders et al (1-D)
  Accuracy factor for lattice sums       =   12.000


  Time limit = Infinity

  Maximum range for interatomic potentials =        16.000000 Angstroms

  Taper potentials to zero over   1.0000 Angstroms using polynomial

  General interatomic potentials :

--------------------------------------------------------------------------------
Atom  Types   Potential         A         B         C         D     Cutoffs(Ang)
  1     2                                                            Min    Max 
--------------------------------------------------------------------------------
Si   c O1   s Buckingham    0.132E+04 0.318      10.1      0.00     0.000 16.000
Si   c O2   s Buckingham    0.132E+04 0.318      10.1      0.00     0.000 16.000
Si   c O3   s Buckingham    0.132E+04 0.318      10.1      0.00     0.000 16.000
Ge   c O1   s Buckingham    0.150E+04 0.326      16.8      0.00     0.000 16.000
Ge   c O2   s Buckingham    0.150E+04 0.326      16.8      0.00     0.000 16.000
Ge   c O3   s Buckingham    0.150E+04 0.326      16.8      0.00     0.000 16.000
O1   s O1   s Buckingham    0.228E+05 0.149      10.9      0.00     0.000 16.000
O1   s O2   s Buckingham    0.228E+05 0.149      10.9      0.00     0.000 16.000
O1   s O3   s Buckingham    0.228E+05 0.149      10.9      0.00     0.000 16.000
O2   s O2   s Buckingham    0.228E+05 0.149      10.9      0.00     0.000 16.000
O2   s O3   s Buckingham    0.228E+05 0.149      10.9      0.00     0.000 16.000
O3   s O3   s Buckingham    0.228E+05 0.149      10.9      0.00     0.000 16.000
Si   c F    s Buckingham     977.     0.282      0.00      0.00     0.000 16.000
Ge   c F    s Buckingham     681.     0.320      0.00      0.00     0.000 16.000
F    s F    s Buckingham     540.     0.262      0.00      0.00     0.000 16.000
O1   s F    s Buckingham    0.168E+04 0.268      0.00      0.00     0.000 16.000
O2   s F    s Buckingham    0.168E+04 0.268      0.00      0.00     0.000 16.000
O3   s F    s Buckingham    0.168E+04 0.268      0.00      0.00     0.000 16.000
O2   c O2   s Spring (c-s)   76.0      0.00      0.00      0.00     0.000  0.800
O3   c O3   s Spring (c-s)   128.      0.00      0.00      0.00     0.000  0.800
O1   c O1   s Spring (c-s)   180.      0.00      0.00      0.00     0.000  0.800
F    c F    s Spring (c-s)   33.5      0.00      0.00      0.00     0.000  0.800
--------------------------------------------------------------------------------

  General Three-body potentials :

  Harmonic form:

--------------------------------------------------------------------------------
Atom    Atom    Atom           Force Constants            Theta     Cutoffs  
  1       2       3     (eVrad**-2/eVrad**-3/eVrad**-4)   (deg)  1-2  1-3  2-3
--------------------------------------------------------------------------------
Si    c O1    s O1    s  1.261        0.0000    0.0000   109.470 0.00 0.00 0.00
                                                                 1.90 1.90 3.50
Si    c O1    s O2    s  1.261        0.0000    0.0000   109.470 0.00 0.00 0.00
                                                                 1.90 1.90 3.50
Si    c O2    s O2    s  1.261        0.0000    0.0000   109.470 0.00 0.00 0.00
                                                                 1.90 1.90 3.50
--------------------------------------------------------------------------------

********************************************************************************
*  Output for configuration   1                                                *
********************************************************************************


  Components of energy : 

--------------------------------------------------------------------------------
  Interatomic potentials     =        2063.60239511 eV
  Three-body potentials      =           0.44499665 eV
  Monopole - monopole (real) =       -6613.34720358 eV
  Monopole - monopole (recip)=       -3171.27760047 eV
  Monopole - monopole (total)=       -9784.62480405 eV
  Neutralising energy        =          -6.45988376 eV
--------------------------------------------------------------------------------
  Total lattice energy       =       -7727.03729605 eV
--------------------------------------------------------------------------------
  Total lattice energy       =         -745540.9805 kJ/(mole unit cells)
--------------------------------------------------------------------------------


  Number of variables =      939

  Maximum number of calculations  =          1000
  Maximum Hessian update interval =            10
  Maximum step size               =   1.000000000
  Maximum parameter tolerance     =   0.000010000
  Maximum function  tolerance     =   0.000010000
  Maximum gradient  tolerance     =   0.001000000
  Maximum gradient  component     =   0.010000000

  Symmetry not applied to optimisation

  Cell parameters to be optimised using strains

  Newton-Raphson optimiser to be used

  BFGS hessian update to be used

  Dumpfile to be written after every cycle

  Start of bulk optimisation :

  Cycle:      0 Energy:     -7727.037296  Gnorm:      0.006473  CPU:    1.064
  ** Hessian calculated **
  Cycle:      1 Energy:     -7727.162442  Gnorm:      0.007808  CPU:    3.300
  Cycle:      2 Energy:     -7727.165205  Gnorm:      0.001761  CPU:    4.683
  Cycle:      3 Energy:     -7727.165684  Gnorm:      0.000374  CPU:    6.066
  Cycle:      4 Energy:     -7727.165697  Gnorm:      0.000151  CPU:    7.448


  **** Optimisation achieved ****


  Final energy =   -7727.16569754 eV
  Final Gnorm  =       0.00001816

  Components of energy : 

--------------------------------------------------------------------------------
  Interatomic potentials     =        2063.92783700 eV
  Three-body potentials      =           0.44979762 eV
  Monopole - monopole (real) =       -6613.47482402 eV
  Monopole - monopole (recip)=       -3171.60794734 eV
  Monopole - monopole (total)=       -9785.08277136 eV
  Neutralising energy        =          -6.46056079 eV
--------------------------------------------------------------------------------
  Total lattice energy       =       -7727.16569754 eV
--------------------------------------------------------------------------------
  Total lattice energy       =         -745553.3693 kJ/(mole unit cells)
--------------------------------------------------------------------------------

  Final fractional coordinates of atoms :

--------------------------------------------------------------------------------
   No.  Atomic        x           y          z          Radius
        Label       (Frac)      (Frac)     (Frac)       (Angs) 
--------------------------------------------------------------------------------
     1  Ge    c     0.699600    0.375700    0.033890    0.000000
     2  Ge    c     0.596655    0.309787    0.367163    0.000000
     3  Si    c     0.669027    0.285436    0.698092    0.000000
     4  Si    c     0.280537    0.599950    0.528940    0.000000
     5  Si    c     0.368662    0.659793    0.859426    0.000000
     6  Si    c     0.304182    0.693739    0.191356    0.000000
     7  Si    c     0.347825    0.676518    0.291242    0.000000
     8  Si    c     0.308946    0.610654    0.959424    0.000000
     9  Si    c     0.292114    0.663459    0.629221    0.000000
    10  Si    c     0.611057    0.280854    0.798710    0.000000
    11  Si    c     0.665065    0.355245    0.465939    0.000000
    12  Si    c     0.673619    0.310035    0.132394    0.000000
    13  Si    c     0.521024    0.408081    0.966551    0.000000
    14  Si    c     0.558639    0.090432    0.302906    0.000000
    15  Si    c     0.881147    0.460530    0.635076    0.000000
    16  Si    c     0.449060    0.562520    0.460383    0.000000
    17  Si    c     0.408793    0.869528    0.794673    0.000000
    18  Si    c     0.094678    0.522625    0.125219    0.000000
    19  Ge    c     0.399629    0.507924    0.355341    0.000000
    20  Si    c     0.092037    0.572409    0.022173    0.000000
    21  Si    c     0.465857    0.876490    0.692968    0.000000
    22  Si    c     0.573184    0.454833    0.863840    0.000000
    23  Si    c     0.873982    0.402379    0.533611    0.000000
    24  Si    c     0.513605    0.101874    0.200353    0.000000
    25  Si    c     0.292477    0.382612    0.846717    0.000000
    26  Si    c     0.583407    0.892647    0.181176    0.000000
    27  Si    c     0.079827    0.679535    0.515781    0.000000
    28  Si    c     0.691458    0.579559    0.341491    0.000000
    29  Si    c     0.393153    0.084805    0.680397    0.000000
    30  Si    c     0.880505    0.285172    0.008060    0.000000
    31  Si    c     0.378871    0.276555    0.474223    0.000000
    32  Si    c     0.880196    0.594741    0.141024    0.000000
    33  Si    c     0.688913    0.079061    0.810733    0.000000
    34  Si    c     0.586862    0.689628    0.976484    0.000000
    35  Si    c     0.091764    0.387835    0.646434    0.000000
    36  Si    c     0.274763    0.878448    0.310249    0.000000
    37  Si    c     0.241486    0.331313    0.947344    0.000000
    38  Si    c     0.630354    0.884171    0.281950    0.000000
    39  Si    c     0.081615    0.736417    0.616719    0.000000
    40  Si    c     0.731972    0.636965    0.445421    0.000000
    41  Si    c     0.331593    0.071610    0.780997    0.000000
    42  Si    c     0.890378    0.241843    0.111348    0.000000
    43  Si    c     0.313186    0.219493    0.371735    0.000000
    44  Si    c     0.890735    0.656871    0.038463    0.000000
    45  Si    c     0.743134    0.077778    0.709942    0.000000
    46  Si    c     0.649421    0.733613    0.875813    0.000000
    47  Si    c     0.074439    0.321767    0.545817    0.000000
    48  Si    c     0.232367    0.900562    0.209776    0.000000
    49  Si    c     0.963521    0.112187    0.960482    0.000000
    50  Si    c     0.856788    0.831922    0.294298    0.000000
    51  Si    c     0.145543    0.016984    0.629426    0.000000
    52  Si    c     0.008477    0.855889    0.463665    0.000000
    53  Si    c     0.113391    0.133533    0.795710    0.000000
    54  Si    c     0.832580    0.965878    0.128732    0.000000
    55  Si    c     0.092618    0.943441    0.361659    0.000000
    56  Si    c     0.834589    0.875821    0.027087    0.000000
    57  Si    c     0.024119    0.140026    0.694903    0.000000
    58  Si    c     0.869471    0.010460    0.860574    0.000000
    59  Si    c     0.132720    0.101118    0.528162    0.000000
    60  Si    c     0.954910    0.844864    0.193249    0.000000
    61  O2    c     0.916218    0.997516    0.995784    0.000000
    62  O2    c     0.971208    0.907455    0.329846    0.000000
    63  O2    c     0.065468    0.062552    0.660540    0.000000
    64  O2    c     0.048047    0.978757    0.495931    0.000000
    65  O2    c     0.989318    0.052245    0.826932    0.000000
    66  O2    c     0.916105    0.927168    0.160860    0.000000
    67  O3    c     0.310411    0.551628    0.321062    0.000000
    68  O2    c     0.418624    0.751647    0.659934    0.000000
    69  O2    c     0.218646    0.647652    0.990619    0.000000
    70  O2    c     0.649354    0.401689    0.832422    0.000000
    71  O2    c     0.567733    0.232866    0.171421    0.000000
    72  O2    c     0.743181    0.324818    0.504012    0.000000
    73  O3    c     0.562444    0.333146    0.999433    0.000000
    74  O2    c     0.756736    0.412725    0.667862    0.000000
    75  O3    c     0.636478    0.207320    0.335532    0.000000
    76  O2    c     0.401954    0.635802    0.495207    0.000000
    77  O2    c     0.221378    0.574323    0.156573    0.000000
    78  O2    c     0.331112    0.742983    0.825644    0.000000
    79  O2    c     0.116634    0.203886    0.967272    0.000000
    80  O2    c     0.756263    0.882940    0.302104    0.000000
    81  O2    c     0.083547    0.864021    0.636453    0.000000
    82  O2    c     0.853986    0.762933    0.467449    0.000000
    83  O2    c     0.203621    0.069236    0.801078    0.000000
    84  O2    c     0.894188    0.119816    0.132829    0.000000
    85  O2    c     0.178210    0.096019    0.356364    0.000000
    86  O2    c     0.906346    0.792683    0.022254    0.000000
    87  O2    c     0.870151    0.079101    0.689281    0.000000
    88  O2    c     0.778019    0.856876    0.855697    0.000000
    89  O2    c     0.068882    0.192304    0.525850    0.000000
    90  O2    c     0.109287    0.906591    0.189202    0.000000
    91  O2    c     0.913538    0.857687    0.243845    0.000000
    92  O2    c     0.130930    0.049829    0.578039    0.000000
    93  O2    c     0.927162    0.051384    0.910631    0.000000
    94  O2    c     0.063067    0.121882    0.744770    0.000000
    95  O2    c     0.842092    0.925115    0.078065    0.000000
    96  O2    c     0.045992    0.904470    0.412890    0.000000
    97  O2    c     0.892961    0.194717    0.969766    0.000000
    98  O2    c     0.787317    0.680393    0.304057    0.000000
    99  O2    c     0.297369    0.087728    0.641643    0.000000
   100  O2    c     0.079162    0.775803    0.477343    0.000000
   101  O2    c     0.195287    0.284048    0.808342    0.000000
   102  O2    c     0.682360    0.896109    0.142544    0.000000
   103  O2    c     0.172865    0.872372    0.348348    0.000000
   104  O2    c     0.683519    0.791758    0.014303    0.000000
   105  O2    c     0.094958    0.292294    0.684511    0.000000
   106  O2    c     0.785840    0.079116    0.849307    0.000000
   107  O2    c     0.281665    0.183563    0.512944    0.000000
   108  O2    c     0.885350    0.694409    0.179697    0.000000
   109  O2    c     0.297638    0.625246    0.239661    0.000000
   110  O2    c     0.344401    0.661072    0.578118    0.000000
   111  O2    c     0.307463    0.664084    0.908751    0.000000
   112  O2    c     0.667420    0.339897    0.748707    0.000000
   113  O3    c     0.607538    0.301514    0.084984    0.000000
   114  O3    c     0.670645    0.295885    0.418384    0.000000
   115  O2    c     0.363196    0.323173    0.966217    0.000000
   116  O2    c     0.640622    0.014094    0.301812    0.000000
   117  O2    c     0.950298    0.616488    0.636419    0.000000
   118  O2    c     0.605599    0.642441    0.462109    0.000000
   119  O2    c     0.321071    0.938542    0.797794    0.000000
   120  O2    c     0.022481    0.367507    0.127750    0.000000
   121  O3    c     0.302916    0.342300    0.356345    0.000000
   122  O2    c     0.022847    0.659347    0.021932    0.000000
   123  O2    c     0.622485    0.946381    0.690089    0.000000
   124  O2    c     0.659385    0.610008    0.858660    0.000000
   125  O2    c     0.941934    0.314072    0.528428    0.000000
   126  O2    c     0.357678    0.032318    0.193745    0.000000
   127  O3    c     0.746717    0.278520    0.000878    0.000000
   128  O3    c     0.697434    0.451650    0.335087    0.000000
   129  O2    c     0.527410    0.218895    0.674012    0.000000
   130  O2    c     0.211031    0.673657    0.506295    0.000000
   131  O2    c     0.294564    0.516576    0.836816    0.000000
   132  O2    c     0.448042    0.763767    0.169184    0.000000
   133  O2    c     0.269573    0.741153    0.314613    0.000000
   134  O2    c     0.451487    0.690286    0.982496    0.000000
   135  O2    c     0.226914    0.521506    0.651830    0.000000
   136  O2    c     0.686515    0.211233    0.819544    0.000000
   137  O2    c     0.515542    0.284555    0.484109    0.000000
   138  O2    c     0.749720    0.460367    0.150169    0.000000
   139  O3    c     0.765145    0.542425    0.017476    0.000000
   140  O3    c     0.430203    0.211848    0.349709    0.000000
   141  O2    c     0.745519    0.205575    0.691673    0.000000
   142  O2    c     0.201215    0.443828    0.524911    0.000000
   143  O2    c     0.525479    0.735747    0.854890    0.000000
   144  O2    c     0.227303    0.773851    0.187939    0.000000
   145  O2    c     0.504460    0.754792    0.299813    0.000000
   146  O2    c     0.235617    0.455715    0.966027    0.000000
   147  O2    c     0.208695    0.736250    0.634998    0.000000
   148  O2    c     0.454904    0.196399    0.802196    0.000000
   149  O2    c     0.729571    0.511357    0.465065    0.000000
   150  O2    c     0.767396    0.246370    0.131473    0.000000
   151  O2    c     0.219899    0.311723    0.893009    0.000000
   152  O2    c     0.650856    0.884174    0.227531    0.000000
   153  O2    c     0.080326    0.752349    0.562292    0.000000
   154  O2    c     0.747004    0.648873    0.391016    0.000000
   155  O2    c     0.316247    0.077704    0.726633    0.000000
   156  O2    c     0.888046    0.225089    0.056985    0.000000
   157  O2    c     0.313954    0.206449    0.427109    0.000000
   158  O2    c     0.880849    0.661566    0.093863    0.000000
   159  O2    c     0.761032    0.076929    0.764247    0.000000
   160  O2    c     0.664001    0.755963    0.930109    0.000000
   161  O2    c     0.080920    0.309016    0.600104    0.000000
   162  O2    c     0.209875    0.893271    0.264013    0.000000
   163  O2    c     0.569848    0.551462    0.987342    0.000000
   164  O2    c     0.414176    0.996626    0.322907    0.000000
   165  O2    c     0.969620    0.406942    0.657003    0.000000
   166  O2    c     0.393811    0.417186    0.477772    0.000000
   167  O2    c     0.549521    0.953715    0.818143    0.000000
   168  O2    c     0.003732    0.575006    0.145708    0.000000
   169  O3    c     0.549091    0.558912    0.331755    0.000000
   170  O2    c     0.000622    0.430695    0.001430    0.000000
   171  O2    c     0.407686    0.960024    0.670134    0.000000
   172  O2    c     0.432198    0.394453    0.839874    0.000000
   173  O2    c     0.952132    0.540998    0.508753    0.000000
   174  O2    c     0.575242    0.022319    0.176167    0.000000
   175  O2    c     0.556475    0.144188    0.252197    0.000000
   176  O2    c     0.825238    0.404408    0.584803    0.000000
   177  O2    c     0.575089    0.409902    0.915185    0.000000
   178  O2    c     0.411576    0.820585    0.743206    0.000000
   179  O2    c     0.138218    0.567799    0.073606    0.000000
   180  O3    c     0.403666    0.567052    0.409915    0.000000
   181  F     c     0.423822    0.875955    0.244786    0.000000
   182  F     c     0.086503    0.532503    0.579721    0.000000
   183  F     c     0.436974    0.539810    0.910491    0.000000
   184  F     c     0.541060    0.081889    0.744399    0.000000
   185  F     c     0.846982    0.431183    0.068606    0.000000
   186  F     c     0.539616    0.406275    0.400564    0.000000
   187  O2    s     0.912211    0.996636    0.995346    0.000000
   188  O2    s     0.972019    0.902934    0.329431    0.000000
   189  O2    s     0.069912    0.066055    0.660858    0.000000
   190  O2    s     0.052958    0.978684    0.495927    0.000000
   191  O2    s     0.989834    0.056696    0.827191    0.000000
   192  O2    s     0.911179    0.922307    0.160910    0.000000
   193  O3    s     0.321080    0.560340    0.320860    0.000000
   194  O2    s     0.410267    0.755137    0.660080    0.000000
   195  O2    s     0.214356    0.636010    0.990812    0.000000
   196  O2    s     0.637603    0.394453    0.832078    0.000000
   197  O2    s     0.573125    0.227294    0.170354    0.000000
   198  O2    s     0.748668    0.336146    0.503095    0.000000
   199  O3    s     0.567557    0.344367    0.998267    0.000000
   200  O2    s     0.760860    0.404849    0.667502    0.000000
   201  O3    s     0.625158    0.201560    0.334131    0.000000
   202  O2    s     0.394598    0.624440    0.494957    0.000000
   203  O2    s     0.216091    0.580791    0.156710    0.000000
   204  O2    s     0.343051    0.747807    0.825830    0.000000
   205  O2    s     0.112792    0.206958    0.964530    0.000000
   206  O2    s     0.754140    0.877505    0.299195    0.000000
   207  O2    s     0.089892    0.866901    0.633681    0.000000
   208  O2    s     0.857653    0.759693    0.464786    0.000000
   209  O2    s     0.207287    0.076343    0.798442    0.000000
   210  O2    s     0.887301    0.116291    0.130180    0.000000
   211  O2    s     0.182914    0.092125    0.358551    0.000000
   212  O2    s     0.897007    0.787524    0.024447    0.000000
   213  O2    s     0.873471    0.085489    0.691993    0.000000
   214  O2    s     0.774624    0.860635    0.858243    0.000000
   215  O2    s     0.076237    0.195881    0.528121    0.000000
   216  O2    s     0.105426    0.899359    0.191732    0.000000
   217  O2    s     0.911826    0.853373    0.243827    0.000000
   218  O2    s     0.132748    0.051993    0.578111    0.000000
   219  O2    s     0.924759    0.053616    0.910608    0.000000
   220  O2    s     0.064256    0.125277    0.744778    0.000000
   221  O2    s     0.840142    0.924279    0.078178    0.000000
   222  O2    s     0.046894    0.903243    0.412985    0.000000
   223  O2    s     0.899339    0.195301    0.972790    0.000000
   224  O2    s     0.784958    0.686364    0.306863    0.000000
   225  O2    s     0.290861    0.079926    0.644232    0.000000
   226  O2    s     0.071755    0.774495    0.479811    0.000000
   227  O2    s     0.196387    0.277912    0.810891    0.000000
   228  O2    s     0.688360    0.903286    0.145050    0.000000
   229  O2    s     0.174625    0.880566    0.345896    0.000000
   230  O2    s     0.689862    0.790426    0.011851    0.000000
   231  O2    s     0.087236    0.286184    0.681686    0.000000
   232  O2    s     0.784755    0.071812    0.846539    0.000000
   233  O2    s     0.275826    0.184453    0.510515    0.000000
   234  O2    s     0.892180    0.700067    0.177143    0.000000
   235  O2    s     0.303406    0.637445    0.239947    0.000000
   236  O2    s     0.332491    0.655007    0.578242    0.000000
   237  O2    s     0.313794    0.658206    0.908928    0.000000
   238  O2    s     0.661811    0.328212    0.748563    0.000000
   239  O3    s     0.620300    0.307119    0.086691    0.000000
   240  O3    s     0.665138    0.303083    0.419984    0.000000
   241  O2    s     0.365383    0.332530    0.964139    0.000000
   242  O2    s     0.631354    0.007360    0.299724    0.000000
   243  O2    s     0.956918    0.613023    0.634215    0.000000
   244  O2    s     0.602770    0.633589    0.460169    0.000000
   245  O2    s     0.331224    0.945487    0.795684    0.000000
   246  O2    s     0.016256    0.370622    0.125773    0.000000
   247  O3    s     0.311615    0.343444    0.357774    0.000000
   248  O2    s     0.016839    0.649973    0.023629    0.000000
   249  O2    s     0.618910    0.952864    0.692458    0.000000
   250  O2    s     0.649510    0.607071    0.860990    0.000000
   251  O2    s     0.948902    0.323968    0.530790    0.000000
   252  O2    s     0.360327    0.025463    0.196114    0.000000
   253  O3    s     0.758080    0.285612    0.003886    0.000000
   254  O3    s     0.690066    0.455649    0.337959    0.000000
   255  O2    s     0.527843    0.211683    0.677162    0.000000
   256  O2    s     0.204453    0.666729    0.509618    0.000000
   257  O2    s     0.301927    0.517232    0.840191    0.000000
   258  O2    s     0.447297    0.769961    0.172742    0.000000
   259  O2    s     0.278095    0.748825    0.311734    0.000000
   260  O2    s     0.450822    0.682101    0.979491    0.000000
   261  O2    s     0.219415    0.522012    0.648911    0.000000
   262  O2    s     0.678978    0.204421    0.816425    0.000000
   263  O2    s     0.515586    0.290662    0.481239    0.000000
   264  O2    s     0.756286    0.460232    0.147463    0.000000
   265  O3    s     0.774821    0.544302    0.020760    0.000000
   266  O3    s     0.428735    0.219196    0.353091    0.000000
   267  O2    s     0.737255    0.200038    0.694262    0.000000
   268  O2    s     0.195831    0.446896    0.527521    0.000000
   269  O2    s     0.522687    0.727610    0.857582    0.000000
   270  O2    s     0.235837    0.779106    0.190596    0.000000
   271  O2    s     0.502171    0.760507    0.297196    0.000000
   272  O2    s     0.243834    0.458525    0.963406    0.000000
   273  O2    s     0.203460    0.728558    0.632431    0.000000
   274  O2    s     0.457920    0.191612    0.799544    0.000000
   275  O2    s     0.723239    0.509446    0.462977    0.000000
   276  O2    s     0.771668    0.252339    0.129332    0.000000
   277  O2    s     0.229790    0.321269    0.893816    0.000000
   278  O2    s     0.641558    0.885013    0.228304    0.000000
   279  O2    s     0.080411    0.742957    0.563118    0.000000
   280  O2    s     0.740010    0.640868    0.392026    0.000000
   281  O2    s     0.325942    0.077815    0.727471    0.000000
   282  O2    s     0.887554    0.232764    0.058013    0.000000
   283  O2    s     0.321079    0.215406    0.426857    0.000000
   284  O2    s     0.881697    0.653795    0.093524    0.000000
   285  O2    s     0.751620    0.077235    0.763322    0.000000
   286  O2    s     0.654440    0.746714    0.929165    0.000000
   287  O2    s     0.081348    0.318563    0.599115    0.000000
   288  O2    s     0.218961    0.892508    0.263038    0.000000
   289  O2    s     0.566545    0.552367    0.984016    0.000000
   290  O2    s     0.413341    0.992780    0.319482    0.000000
   291  O2    s     0.973715    0.410694    0.653553    0.000000
   292  O2    s     0.398163    0.417349    0.475524    0.000000
   293  O2    s     0.549879    0.958659    0.814869    0.000000
   294  O2    s     0.000040    0.571411    0.143004    0.000000
   295  O3    s     0.550148    0.556395    0.334670    0.000000
   296  O2    s     0.998097    0.431199    0.004349    0.000000
   297  O2    s     0.412335    0.964870    0.673599    0.000000
   298  O2    s     0.431724    0.399580    0.843087    0.000000
   299  O2    s     0.957882    0.541535    0.512056    0.000000
   300  O2    s     0.569597    0.016531    0.179210    0.000000
   301  O2    s     0.551944    0.134178    0.251572    0.000000
   302  O2    s     0.836318    0.410078    0.584624    0.000000
   303  O2    s     0.569549    0.414583    0.914764    0.000000
   304  O2    s     0.416955    0.831491    0.743282    0.000000
   305  O2    s     0.128803    0.563441    0.073814    0.000000
   306  O3    s     0.407935    0.562062    0.410791    0.000000
   307  F     s     0.423013    0.874379    0.244632    0.000000
   308  F     s     0.087012    0.532633    0.579533    0.000000
   309  F     s     0.436292    0.540493    0.910330    0.000000
   310  F     s     0.541306    0.082325    0.744240    0.000000
   311  F     s     0.835853    0.427117    0.066055    0.000000
   312  F     s     0.543129    0.399784    0.398140    0.000000
--------------------------------------------------------------------------------

  Final Cartesian lattice vectors (Angstroms) :

       11.922290    0.010133    0.008778
       -5.954680   10.405638    0.001329
        0.083505   -0.245402   29.454692


  Final cell parameters and derivatives :

--------------------------------------------------------------------------------
       a           11.922298 Angstrom     dE/de1(xx)    -0.000003 eV/strain
       b           11.988975 Angstrom     dE/de2(yy)    -0.000960 eV/strain
       c           29.455833 Angstrom     dE/de3(zz)    -0.000236 eV/strain
       alpha       90.488629 Degrees      dE/de4(yz)    -0.000200 eV/strain
       beta        89.795793 Degrees      dE/de5(xz)    -0.000024 eV/strain
       gamma      119.731856 Degrees      dE/de6(xy)     0.000117 eV/strain
--------------------------------------------------------------------------------

  Primitive cell volume =          3655.907368 Angs**3

  Density of cell =      1.750070 g/cm**3

  Non-primitive cell volume =          3655.907368 Angs**3


  Final internal derivatives :

--------------------------------------------------------------------------------
   No.  Atomic          a             b             c           Radius
        Label          (eV)          (eV)          (eV)        (eV/Angs)
--------------------------------------------------------------------------------
      1 Ge    c       0.000000      0.000000      0.000000      0.000000
      2 Ge    c      -0.000065      0.000030      0.000131      0.000000
      3 Si    c      -0.000020     -0.000194      0.000217      0.000000
      4 Si    c       0.000020     -0.000008      0.000601      0.000000
      5 Si    c      -0.000100      0.000018      0.000445      0.000000
      6 Si    c       0.000062     -0.000059      0.001469      0.000000
      7 Si    c      -0.000015      0.000079     -0.000126      0.000000
      8 Si    c       0.000006     -0.000045     -0.000251      0.000000
      9 Si    c      -0.000071     -0.000023      0.000048      0.000000
     10 Si    c       0.000070      0.000012      0.000167      0.000000
     11 Si    c       0.000124      0.000039     -0.000012      0.000000
     12 Si    c      -0.000860     -0.000869      0.004403      0.000000
     13 Si    c      -0.001880      0.001138     -0.004587      0.000000
     14 Si    c       0.000214     -0.000003      0.000049      0.000000
     15 Si    c       0.000010      0.000028      0.000396      0.000000
     16 Si    c      -0.000025     -0.000052      0.000385      0.000000
     17 Si    c      -0.000039     -0.000030      0.000006      0.000000
     18 Si    c       0.000539      0.000001      0.000914      0.000000
     19 Ge    c       0.000114     -0.000106      0.000048      0.000000
     20 Si    c      -0.000121      0.000408     -0.001019      0.000000
     21 Si    c      -0.000047      0.000077      0.000098      0.000000
     22 Si    c       0.000070      0.000032      0.000495      0.000000
     23 Si    c      -0.000161     -0.000021      0.000009      0.000000
     24 Si    c       0.000059     -0.000099      0.001497      0.000000
     25 Si    c      -0.000168      0.000133     -0.000090      0.000000
     26 Si    c       0.000207     -0.000141      0.000343      0.000000
     27 Si    c       0.000031      0.000030     -0.000200      0.000000
     28 Si    c       0.000033     -0.000331     -0.000123      0.000000
     29 Si    c       0.000045     -0.000077      0.000022      0.000000
     30 Si    c       0.000641     -0.000947     -0.002760      0.000000
     31 Si    c      -0.000083      0.000231     -0.000458      0.000000
     32 Si    c      -0.000128      0.000475      0.000605      0.000000
     33 Si    c      -0.000033      0.000072      0.000150      0.000000
     34 Si    c       0.000084     -0.000168     -0.000411      0.000000
     35 Si    c       0.000062      0.000109      0.000132      0.000000
     36 Si    c      -0.000031      0.000050     -0.000386      0.000000
     37 Si    c      -0.000173      0.000231      0.000305      0.000000
     38 Si    c       0.000024      0.000081      0.000153      0.000000
     39 Si    c       0.000202     -0.000210      0.000329      0.000000
     40 Si    c       0.000108      0.000017      0.000425      0.000000
     41 Si    c       0.000007     -0.000031      0.000121      0.000000
     42 Si    c       0.000447     -0.000596      0.000290      0.000000
     43 Si    c      -0.000361      0.000363     -0.000334      0.000000
     44 Si    c      -0.000152     -0.001040      0.000107      0.000000
     45 Si    c      -0.000185      0.000093      0.000134      0.000000
     46 Si    c       0.000102     -0.000085      0.000324      0.000000
     47 Si    c       0.000008     -0.000040     -0.000131      0.000000
     48 Si    c      -0.000299      0.000209     -0.000098      0.000000
     49 Si    c       0.000090      0.000134     -0.000184      0.000000
     50 Si    c       0.000319      0.000151     -0.000565      0.000000
     51 Si    c       0.000047      0.000013      0.000003      0.000000
     52 Si    c       0.000158      0.000025      0.000139      0.000000
     53 Si    c      -0.000098      0.000084     -0.000155      0.000000
     54 Si    c       0.000131     -0.000086     -0.000030      0.000000
     55 Si    c       0.000261     -0.000026     -0.000107      0.000000
     56 Si    c       0.000118      0.000127     -0.000026      0.000000
     57 Si    c       0.000059     -0.000066      0.000213      0.000000
     58 Si    c       0.000053     -0.000073     -0.000005      0.000000
     59 Si    c       0.000185      0.000073     -0.000076      0.000000
     60 Si    c       0.000043      0.000089      0.000082      0.000000
     61 O2    c      -0.000040     -0.000099      0.000443      0.000000
     62 O2    c       0.000080     -0.000090     -0.000257      0.000000
     63 O2    c      -0.000052      0.000015      0.000219      0.000000
     64 O2    c      -0.000023     -0.000179     -0.000599      0.000000
     65 O2    c       0.000024      0.000038      0.000046      0.000000
     66 O2    c       0.000044     -0.000063      0.000209      0.000000
     67 O3    c       0.000036     -0.000102      0.000728      0.000000
     68 O2    c       0.000136      0.000058      0.000132      0.000000
     69 O2    c       0.000150      0.000004      0.000068      0.000000
     70 O2    c       0.000088     -0.000090     -0.000180      0.000000
     71 O2    c      -0.000135      0.000435     -0.000025      0.000000
     72 O2    c      -0.000048     -0.000044     -0.000218      0.000000
     73 O3    c       0.000175     -0.002579      0.000298      0.000000
     74 O2    c       0.000121      0.000067     -0.000393      0.000000
     75 O3    c       0.000419     -0.000365     -0.002291      0.000000
     76 O2    c      -0.000138      0.000117      0.000580      0.000000
     77 O2    c       0.000051      0.000056      0.000329      0.000000
     78 O2    c       0.000023     -0.000006      0.000095      0.000000
     79 O2    c      -0.000214     -0.000129      0.000145      0.000000
     80 O2    c      -0.000184      0.000229      0.000045      0.000000
     81 O2    c      -0.000057      0.000104      0.000246      0.000000
     82 O2    c      -0.000128      0.000019      0.000298      0.000000
     83 O2    c       0.000029     -0.000047      0.000165      0.000000
     84 O2    c       0.000017     -0.000004      0.000135      0.000000
     85 O2    c      -0.000370      0.000153      0.001139      0.000000
     86 O2    c       0.000475     -0.000039      0.000410      0.000000
     87 O2    c       0.000065     -0.000073     -0.000055      0.000000
     88 O2    c       0.000072      0.000078      0.000048      0.000000
     89 O2    c      -0.000089      0.000096      0.000168      0.000000
     90 O2    c       0.000081     -0.000008      0.000023      0.000000
     91 O2    c      -0.000162      0.000009      0.001055      0.000000
     92 O2    c      -0.000368     -0.000134      0.000534      0.000000
     93 O2    c      -0.000022      0.000164      0.000481      0.000000
     94 O2    c       0.000010      0.000013      0.000356      0.000000
     95 O2    c       0.000025     -0.000035      0.000079      0.000000
     96 O2    c      -0.000137     -0.000527     -0.002123      0.000000
     97 O2    c       0.000026      0.000066      0.000113      0.000000
     98 O2    c       0.000027      0.000026     -0.000123      0.000000
     99 O2    c      -0.000008      0.000008     -0.000068      0.000000
    100 O2    c       0.000014     -0.000024      0.000130      0.000000
    101 O2    c       0.000027     -0.000026      0.000063      0.000000
    102 O2    c       0.000132     -0.000030     -0.000277      0.000000
    103 O2    c      -0.000165      0.000369      0.000145      0.000000
    104 O2    c      -0.000150     -0.000042     -0.000275      0.000000
    105 O2    c      -0.000046      0.000037      0.000036      0.000000
    106 O2    c      -0.000092      0.000145      0.000089      0.000000
    107 O2    c      -0.000254     -0.000015      0.001103      0.000000
    108 O2    c       0.000051     -0.000091     -0.000087      0.000000
    109 O2    c      -0.000109      0.000275     -0.001560      0.000000
    110 O2    c       0.000008     -0.000035     -0.000835      0.000000
    111 O2    c       0.000154     -0.000051     -0.000411      0.000000
    112 O2    c       0.000029      0.000026     -0.000103      0.000000
    113 O3    c      -0.001002      0.000735     -0.008260      0.000000
    114 O3    c       0.000147     -0.000040      0.000635      0.000000
    115 O2    c       0.000170     -0.000118      0.000474      0.000000
    116 O2    c      -0.000056      0.000174      0.000017      0.000000
    117 O2    c       0.000028     -0.000020     -0.000057      0.000000
    118 O2    c      -0.000061      0.000037     -0.000010      0.000000
    119 O2    c      -0.000031      0.000021      0.000051      0.000000
    120 O2    c       0.000099     -0.000064      0.000315      0.000000
    121 O3    c       0.000236     -0.000097     -0.000042      0.000000
    122 O2    c       0.000376     -0.000062     -0.000123      0.000000
    123 O2    c      -0.000029      0.000000      0.000059      0.000000
    124 O2    c      -0.000005      0.000018      0.000118      0.000000
    125 O2    c       0.000017     -0.000026      0.000030      0.000000
    126 O2    c       0.000038      0.000126     -0.000051      0.000000
    127 O3    c      -0.002372      0.000860     -0.000329      0.000000
    128 O3    c      -0.000220      0.000392     -0.000646      0.000000
    129 O2    c       0.000041     -0.000003      0.000103      0.000000
    130 O2    c      -0.000107      0.000115      0.000088      0.000000
    131 O2    c       0.000061     -0.000087      0.000219      0.000000
    132 O2    c       0.000167      0.000034      0.000104      0.000000
    133 O2    c       0.000087      0.000015      0.000022      0.000000
    134 O2    c       0.000023      0.000023     -0.000012      0.000000
    135 O2    c      -0.000102     -0.000013      0.000003      0.000000
    136 O2    c       0.000042     -0.000041      0.000019      0.000000
    137 O2    c      -0.000442     -0.000038     -0.000163      0.000000
    138 O2    c      -0.000072      0.000115      0.000470      0.000000
    139 O3    c       0.002085     -0.001278      0.003872      0.000000
    140 O3    c       0.000223     -0.000232     -0.000667      0.000000
    141 O2    c      -0.000091      0.000037      0.000191      0.000000
    142 O2    c      -0.000062      0.000008      0.000218      0.000000
    143 O2    c      -0.000001      0.000049     -0.000049      0.000000
    144 O2    c       0.000081     -0.000095     -0.000007      0.000000
    145 O2    c      -0.000187     -0.000013     -0.000001      0.000000
    146 O2    c       0.000154     -0.000120     -0.000209      0.000000
    147 O2    c      -0.000052      0.000020     -0.000124      0.000000
    148 O2    c      -0.000093      0.000013      0.000115      0.000000
    149 O2    c      -0.000020     -0.000140     -0.000018      0.000000
    150 O2    c       0.000456     -0.000558      0.000759      0.000000
    151 O2    c      -0.000005     -0.000016     -0.000044      0.000000
    152 O2    c      -0.000131      0.000179     -0.001247      0.000000
    153 O2    c      -0.000036      0.000051      0.000009      0.000000
    154 O2    c       0.000065      0.000068     -0.000574      0.000000
    155 O2    c      -0.000009     -0.000021     -0.000021      0.000000
    156 O2    c       0.000096     -0.000304      0.000721      0.000000
    157 O2    c      -0.000079      0.000328      0.001326      0.000000
    158 O2    c      -0.000184      0.000009     -0.001997      0.000000
    159 O2    c      -0.000014      0.000017      0.000023      0.000000
    160 O2    c      -0.000006      0.000022     -0.000293      0.000000
    161 O2    c       0.000002     -0.000000      0.000155      0.000000
    162 O2    c       0.000198     -0.000106      0.001270      0.000000
    163 O2    c      -0.000179     -0.000139     -0.001109      0.000000
    164 O2    c       0.000097      0.000114     -0.000071      0.000000
    165 O2    c      -0.000015     -0.000038     -0.000024      0.000000
    166 O2    c       0.000249     -0.000388      0.000017      0.000000
    167 O2    c       0.000028      0.000025      0.000129      0.000000
    168 O2    c       0.000250     -0.000018      0.000324      0.000000
    169 O3    c      -0.000109      0.000046      0.000001      0.000000
    170 O2    c       0.000386     -0.000371      0.000131      0.000000
    171 O2    c      -0.000034     -0.000008      0.000194      0.000000
    172 O2    c      -0.000027     -0.000018     -0.000097      0.000000
    173 O2    c       0.000028      0.000039      0.000055      0.000000
    174 O2    c       0.000101     -0.000103     -0.000090      0.000000
    175 O2    c      -0.000126      0.000006     -0.001602      0.000000
    176 O2    c       0.000007     -0.000070     -0.000352      0.000000
    177 O2    c      -0.000118      0.000073     -0.000109      0.000000
    178 O2    c      -0.000062      0.000010      0.000113      0.000000
    179 O2    c       0.000181      0.000090     -0.000202      0.000000
    180 O3    c       0.000004     -0.000002     -0.000331      0.000000
    181 F     c       0.000075     -0.000006      0.000861      0.000000
    182 F     c      -0.000053     -0.000003      0.000232      0.000000
    183 F     c       0.000003      0.000013      0.000092      0.000000
    184 F     c      -0.000021     -0.000005      0.000023      0.000000
    185 F     c      -0.000144     -0.000211      0.001332      0.000000
    186 F     c       0.000156     -0.000120      0.000082      0.000000
    187 O2    s      -0.000056      0.000066     -0.000371      0.000000
    188 O2    s       0.000296      0.000042     -0.000236      0.000000
    189 O2    s       0.000008      0.000017     -0.000024      0.000000
    190 O2    s       0.000139      0.000111     -0.000199      0.000000
    191 O2    s       0.000038      0.000045     -0.000112      0.000000
    192 O2    s      -0.000049     -0.000053     -0.000146      0.000000
    193 O3    s       0.000074      0.000011     -0.000309      0.000000
    194 O2    s      -0.000014     -0.000030      0.000129      0.000000
    195 O2    s      -0.000036     -0.000135      0.000085      0.000000
    196 O2    s      -0.000113      0.000122      0.000054      0.000000
    197 O2    s       0.000035     -0.000429      0.000441      0.000000
    198 O2    s       0.000125      0.000015     -0.000046      0.000000
    199 O3    s       0.000265      0.002409      0.002079      0.000000
    200 O2    s      -0.000054     -0.000017      0.000014      0.000000
    201 O3    s      -0.000574      0.000531      0.001240      0.000000
    202 O2    s       0.000015     -0.000007     -0.000291      0.000000
    203 O2    s      -0.000060     -0.000013     -0.000208      0.000000
    204 O2    s       0.000006     -0.000009     -0.000025      0.000000
    205 O2    s       0.000030      0.000097     -0.000579      0.000000
    206 O2    s       0.000222     -0.000083      0.000056      0.000000
    207 O2    s       0.000033     -0.000057     -0.000197      0.000000
    208 O2    s       0.000010      0.000058      0.000426      0.000000
    209 O2    s      -0.000035      0.000068     -0.000338      0.000000
    210 O2    s      -0.000016      0.000079     -0.000142      0.000000
    211 O2    s      -0.000095     -0.000176      0.000702      0.000000
    212 O2    s      -0.000283     -0.000006     -0.000133      0.000000
    213 O2    s      -0.000037      0.000003     -0.000084      0.000000
    214 O2    s      -0.000022     -0.000068      0.000049      0.000000
    215 O2    s       0.000005      0.000055     -0.000141      0.000000
    216 O2    s       0.000044     -0.000068      0.000114      0.000000
    217 O2    s       0.000153     -0.000112     -0.000308      0.000000
    218 O2    s       0.000020      0.000061     -0.000345      0.000000
    219 O2    s      -0.000012     -0.000065      0.000008      0.000000
    220 O2    s      -0.000014     -0.000023     -0.000068      0.000000
    221 O2    s      -0.000203      0.000058      0.000174      0.000000
    222 O2    s       0.000074      0.000048     -0.000346      0.000000
    223 O2    s       0.000218     -0.000049      0.000171      0.000000
    224 O2    s       0.000066      0.000060      0.000584      0.000000
    225 O2    s      -0.000064      0.000009     -0.000058      0.000000
    226 O2    s       0.000107     -0.000013      0.000176      0.000000
    227 O2    s       0.000026      0.000023      0.000068      0.000000
    228 O2    s      -0.000089     -0.000034      0.000268      0.000000
    229 O2    s       0.000064      0.000261      0.000092      0.000000
    230 O2    s       0.000067     -0.000165      0.000045      0.000000
    231 O2    s       0.000001     -0.000035     -0.000247      0.000000
    232 O2    s       0.000000     -0.000007     -0.000338      0.000000
    233 O2    s       0.000247     -0.000017     -0.000404      0.000000
    234 O2    s       0.000052     -0.000048      0.000142      0.000000
    235 O2    s       0.000108     -0.000441      0.000952      0.000000
    236 O2    s       0.000043      0.000012      0.000121      0.000000
    237 O2    s       0.000006     -0.000025      0.000247      0.000000
    238 O2    s      -0.000040      0.000006      0.000288      0.000000
    239 O3    s       0.000474      0.000146      0.002517      0.000000
    240 O3    s      -0.000148     -0.000005     -0.000141      0.000000
    241 O2    s      -0.000255      0.000069     -0.000536      0.000000
    242 O2    s       0.000095      0.000096      0.000034      0.000000
    243 O2    s      -0.000054     -0.000044     -0.000040      0.000000
    244 O2    s       0.000057     -0.000040      0.000104      0.000000
    245 O2    s       0.000010      0.000033     -0.000093      0.000000
    246 O2    s      -0.000335      0.000381     -0.000908      0.000000
    247 O3    s      -0.000031      0.000090      0.000388      0.000000
    248 O2    s       0.000604     -0.000448      0.000711      0.000000
    249 O2    s      -0.000043     -0.000062     -0.000090      0.000000
    250 O2    s      -0.000088      0.000100     -0.000135      0.000000
    251 O2    s       0.000005      0.000132      0.000148      0.000000
    252 O2    s       0.000160     -0.000194     -0.000170      0.000000
    253 O3    s       0.001418      0.000344      0.001565      0.000000
    254 O3    s      -0.000097      0.000164      0.000828      0.000000
    255 O2    s      -0.000099      0.000014     -0.000079      0.000000
    256 O2    s       0.000011      0.000033     -0.000188      0.000000
    257 O2    s       0.000059      0.000005     -0.000125      0.000000
    258 O2    s       0.000069      0.000155      0.000010      0.000000
    259 O2    s      -0.000048      0.000117      0.000077      0.000000
    260 O2    s       0.000101     -0.000158      0.000055      0.000000
    261 O2    s      -0.000042     -0.000087     -0.000021      0.000000
    262 O2    s      -0.000062      0.000031     -0.000259      0.000000
    263 O2    s      -0.000008      0.000138     -0.000352      0.000000
    264 O2    s       0.000255     -0.000118     -0.001569      0.000000
    265 O3    s      -0.002199     -0.000825     -0.002391      0.000000
    266 O3    s      -0.000115      0.000196      0.001451      0.000000
    267 O2    s       0.000084     -0.000036     -0.000293      0.000000
    268 O2    s       0.000082     -0.000042     -0.000354      0.000000
    269 O2    s       0.000086     -0.000087      0.000061      0.000000
    270 O2    s      -0.000003      0.000113     -0.000244      0.000000
    271 O2    s       0.000185     -0.000107      0.000069      0.000000
    272 O2    s      -0.000046      0.000132      0.000022      0.000000
    273 O2    s      -0.000099      0.000099      0.000076      0.000000
    274 O2    s       0.000118     -0.000033     -0.000369      0.000000
    275 O2    s       0.000062     -0.000044      0.000045      0.000000
    276 O2    s      -0.000200      0.000619     -0.001635      0.000000
    277 O2    s       0.000073     -0.000022      0.000062      0.000000
    278 O2    s      -0.000035      0.000045      0.000044      0.000000
    279 O2    s       0.000044     -0.000065     -0.000166      0.000000
    280 O2    s      -0.000004     -0.000134     -0.000215      0.000000
    281 O2    s      -0.000033      0.000037      0.000125      0.000000
    282 O2    s      -0.000037      0.000537     -0.000001      0.000000
    283 O2    s      -0.000020      0.000117     -0.000271      0.000000
    284 O2    s       0.000288     -0.000382      0.001753      0.000000
    285 O2    s      -0.000054      0.000020      0.000188      0.000000
    286 O2    s       0.000052     -0.000061      0.000185      0.000000
    287 O2    s      -0.000026      0.000058      0.000011      0.000000
    288 O2    s       0.000005     -0.000074     -0.000365      0.000000
    289 O2    s       0.000508     -0.000411      0.001347      0.000000
    290 O2    s      -0.000016      0.000077     -0.000004      0.000000
    291 O2    s      -0.000038     -0.000045     -0.000248      0.000000
    292 O2    s       0.000152     -0.000126     -0.000282      0.000000
    293 O2    s      -0.000022      0.000051     -0.000265      0.000000
    294 O2    s      -0.000192     -0.000366     -0.001412      0.000000
    295 O3    s       0.000182      0.000056      0.000728      0.000000
    296 O2    s      -0.000872      0.000735      0.001394      0.000000
    297 O2    s      -0.000055     -0.000016     -0.000148      0.000000
    298 O2    s      -0.000027      0.000116      0.000285      0.000000
    299 O2    s       0.000073     -0.000037      0.000180      0.000000
    300 O2    s      -0.000024     -0.000182      0.000418      0.000000
    301 O2    s       0.000262     -0.000025      0.000955      0.000000
    302 O2    s       0.000026      0.000018      0.000306      0.000000
    303 O2    s       0.000153     -0.000047     -0.000238      0.000000
    304 O2    s      -0.000011     -0.000027      0.000069      0.000000
    305 O2    s      -0.000423     -0.000139      0.000062      0.000000
    306 O3    s       0.000059     -0.000035      0.000063      0.000000
    307 F     s      -0.000008      0.000110     -0.001594      0.000000
    308 F     s       0.000019      0.000015     -0.000441      0.000000
    309 F     s       0.000066     -0.000079     -0.000176      0.000000
    310 F     s      -0.000040      0.000027      0.000084      0.000000
    311 F     s       0.001096      0.000190     -0.000770      0.000000
    312 F     s      -0.000128      0.000038     -0.000399      0.000000
--------------------------------------------------------------------------------
  Maximum abs         0.002372      0.002579      0.008260      0.000000
--------------------------------------------------------------------------------


  Time to end of optimisation =       8.8325 seconds


  Peak dynamic memory used =      19.13 MB 


  Timing analysis for GULP :

--------------------------------------------------------------------------------
  Task / Subroutine                                          Time (Seconds)
--------------------------------------------------------------------------------
  Calculation of reciprocal space energy and derivatives          0.3177
  Calculation of real space energy and derivatives                7.4543
  Calculation of three-body energy and derivatives                0.8290
  Calculation of matrix inversion                                 0.1920
--------------------------------------------------------------------------------
  Total CPU time                                                  8.8325
--------------------------------------------------------------------------------


  Dump file written as out.res                                                 
  CIF file written as out.cif                                                 


  Job Finished at 05:39.22  4th December   2016                               

