********************************************************************************
*                       GENERAL UTILITY LATTICE PROGRAM                        *
*                                 Julian Gale                                  *
*                      Nanochemistry Research Institute                        *
*                           Department of Chemistry                            *
*                    Curtin University, Western Australia                      *
********************************************************************************
* Version = 4.2.0 * Last modified =  20th January 2014                         *
********************************************************************************
*  optimise     - perform optimisation run                                     *
*  conp         - constant pressure calculation                                *
*  qok          - running with non charge neutral cell is OK                   *
********************************************************************************

  Job Started  at 05:51.56  4th December   2016                               

  Number of CPUs =     1


  Total number of configurations input =   1

********************************************************************************
*  Input for Configuration =   1                                               *
********************************************************************************

  Formula = Ge3Si57O120F6                                               

  Number of irreducible atoms/shells =     312


  Total number atoms/shells =     312

  Dimensionality = 3               :  Bulk   


  Charge on solid   =  -6.000000 =>neutralising background added


  Cartesian lattice vectors (Angstroms) :

       11.910970    0.000000    0.000000
       -6.003647   10.420977    0.000000
        0.224253   -0.311933   29.474331

  Cell parameters (Angstroms/Degrees):

  a =      11.9110    alpha =  90.7430
  b =      12.0267    beta  =  89.5641
  c =      29.4768    gamma = 119.9468

  Initial cell volume =        3658.470375 Angs**3

  Temperature of configuration =  0.000     K 

  Pressure of configuration =         0.000 GPa 

  Fractional coordinates of asymmetric unit :

--------------------------------------------------------------------------------
   No.  Atomic       x           y          z         Charge      Occupancy
        Label      (Frac)      (Frac)     (Frac)        (e)         (Frac)  
--------------------------------------------------------------------------------
      1 Ge    c    0.699600    0.375700    0.033890     4.00000    1.000000    
      2 Ge    c    0.608546 *  0.333702 *  0.365393 *   4.00000    1.000000    
      3 Si    c    0.689265 *  0.306620 *  0.698533 *   4.00000    1.000000    
      4 Si    c    0.294824 *  0.616865 *  0.531077 *   4.00000    1.000000    
      5 Si    c    0.378513 *  0.673088 *  0.861813 *   4.00000    1.000000    
      6 Si    c    0.316881 *  0.704804 *  0.195621 *   4.00000    1.000000    
      7 Si    c    0.372686 *  0.703614 *  0.295680 *   4.00000    1.000000    
      8 Si    c    0.319055 *  0.620591 *  0.961821 *   4.00000    1.000000    
      9 Si    c    0.304958 *  0.678702 *  0.633362 *   4.00000    1.000000    
     10 Si    c    0.626528 *  0.295754 *  0.800061 *   4.00000    1.000000    
     11 Si    c    0.680425 *  0.372625 *  0.463002 *   4.00000    1.000000    
     12 Si    c    0.683518 *  0.320559 *  0.132601 *   4.00000    1.000000    
     13 Si    c    0.529647 *  0.418665 *  0.966807 *   4.00000    1.000000    
     14 Si    c    0.578338 *  0.116858 *  0.301568 *   4.00000    1.000000    
     15 Ge    c    0.909697 *  0.475946 *  0.632658 *   4.00000    1.000000    
     16 Si    c    0.464361 *  0.578689 *  0.462250 *   4.00000    1.000000    
     17 Si    c    0.421458 *  0.884106 *  0.797411 *   4.00000    1.000000    
     18 Si    c    0.105396 *  0.533602 *  0.128844 *   4.00000    1.000000    
     19 Si    c    0.409177 *  0.527917 *  0.359174 *   4.00000    1.000000    
     20 Si    c    0.102131 *  0.580266 *  0.025489 *   4.00000    1.000000    
     21 Si    c    0.480047 *  0.894065 *  0.696318 *   4.00000    1.000000    
     22 Si    c    0.584645 *  0.468187 *  0.864602 *   4.00000    1.000000    
     23 Si    c    0.876501 *  0.409030 *  0.533949 *   4.00000    1.000000    
     24 Si    c    0.524294 *  0.113778 *  0.199617 *   4.00000    1.000000    
     25 Si    c    0.302901 *  0.396293 *  0.848203 *   4.00000    1.000000    
     26 Si    c    0.596129 *  0.906417 *  0.182049 *   4.00000    1.000000    
     27 Si    c    0.088641 *  0.693927 *  0.518032 *   4.00000    1.000000    
     28 Si    c    0.698380 *  0.603324 *  0.343306 *   4.00000    1.000000    
     29 Si    c    0.409436 *  0.101798 *  0.683561 *   4.00000    1.000000    
     30 Si    c    0.889854 *  0.293267 *  0.011266 *   4.00000    1.000000    
     31 Si    c    0.394546 *  0.295458 *  0.474987 *   4.00000    1.000000    
     32 Si    c    0.889052 *  0.604577 *  0.142636 *   4.00000    1.000000    
     33 Si    c    0.702392 *  0.093853 *  0.812791 *   4.00000    1.000000    
     34 Si    c    0.597598 *  0.699319 *  0.978468 *   4.00000    1.000000    
     35 Si    c    0.105822 *  0.397456 *  0.652897 *   4.00000    1.000000    
     36 Si    c    0.295980 *  0.903633 *  0.312490 *   4.00000    1.000000    
     37 Si    c    0.249967 *  0.341956 *  0.948512 *   4.00000    1.000000    
     38 Si    c    0.653346 *  0.914162 *  0.282476 *   4.00000    1.000000    
     39 Si    c    0.090816 *  0.753492 *  0.620314 *   4.00000    1.000000    
     40 Si    c    0.747579 *  0.655643 *  0.446550 *   4.00000    1.000000    
     41 Si    c    0.345552 *  0.085813 *  0.783779 *   4.00000    1.000000    
     42 Si    c    0.900859 *  0.252267 *  0.114204 *   4.00000    1.000000    
     43 Si    c    0.325535 *  0.244022 *  0.372740 *   4.00000    1.000000    
     44 Si    c    0.896191 *  0.659490 *  0.040003 *   4.00000    1.000000    
     45 Si    c    0.758154 *  0.094745 *  0.711924 *   4.00000    1.000000    
     46 Si    c    0.659973 *  0.745948 *  0.877890 *   4.00000    1.000000    
     47 Si    c    0.083513 *  0.333905 *  0.549879 *   4.00000    1.000000    
     48 Si    c    0.244319 *  0.911870 *  0.212160 *   4.00000    1.000000    
     49 Si    c    0.972808 *  0.120235 *  0.963223 *   4.00000    1.000000    
     50 Si    c    0.872481 *  0.855004 *  0.295825 *   4.00000    1.000000    
     51 Si    c    0.165096 *  0.037665 *  0.631648 *   4.00000    1.000000    
     52 Si    c    0.024829 *  0.874561 *  0.465574 *   4.00000    1.000000    
     53 Si    c    0.125774 *  0.145189 *  0.798653 *   4.00000    1.000000    
     54 Si    c    0.845025 *  0.976532 *  0.130251 *   4.00000    1.000000    
     55 Si    c    0.110270 *  0.966702 *  0.363769 *   4.00000    1.000000    
     56 Si    c    0.846487 *  0.882946 *  0.029003 *   4.00000    1.000000    
     57 Si    c    0.039358 *  0.150891 *  0.698215 *   4.00000    1.000000    
     58 Si    c    0.880078 *  0.022877 *  0.862947 *   4.00000    1.000000    
     59 Si    c    0.150556 *  0.119666 *  0.530421 *   4.00000    1.000000    
     60 Si    c    0.966403 *  0.855782 *  0.194715 *   4.00000    1.000000    
     61 O2    c    0.929680 *  0.004683 *  0.997804 *   0.87073    1.000000    
     62 O2    c    0.986669 *  0.920852 *  0.332172 *   0.87073    1.000000    
     63 O2    c    0.077409 *  0.074036 *  0.662473 *   0.87073    1.000000    
     64 O2    c    0.064609 *  0.995378 *  0.498894 *   0.87073    1.000000    
     65 O2    c    0.002639 *  0.064784 *  0.830486 *   0.87073    1.000000    
     66 O2    c    0.928188 *  0.938678 *  0.162814 *   0.87073    1.000000    
     67 O2    c    0.334905 *  0.580273 *  0.327984 *   0.87073    1.000000    
     68 O2    c    0.432405 *  0.768837 *  0.662804 *   0.87073    1.000000    
     69 O2    c    0.229327 *  0.656484 *  0.994016 *   0.87073    1.000000    
     70 O2    c    0.663016 *  0.417343 *  0.833396 *   0.87073    1.000000    
     71 O2    c    0.574047 *  0.242580 *  0.170454 *   0.87073    1.000000    
     72 O2    c    0.759240 *  0.336166 *  0.498183 *   0.87073    1.000000    
     73 O3    c    0.566838 *  0.338216 *  0.998883 *   1.33043    1.000000    
     74 O3    c    0.773608 *  0.427627 *  0.668742 *   1.33043    1.000000    
     75 O3    c    0.653752 *  0.238376 *  0.332466 *   1.33043    1.000000    
     76 O2    c    0.413905 *  0.651214 *  0.496398 *   0.87073    1.000000    
     77 O2    c    0.230530 *  0.584154 *  0.161484 *   0.87073    1.000000    
     78 O2    c    0.342718 *  0.757608 *  0.828499 *   0.87073    1.000000    
     79 O2    c    0.126396 *  0.214033 *  0.968764 *   0.87073    1.000000    
     80 O2    c    0.782923 *  0.919187 *  0.302233 *   0.87073    1.000000    
     81 O2    c    0.105148 *  0.886597 *  0.638102 *   0.87073    1.000000    
     82 O2    c    0.869536 *  0.781760 *  0.468727 *   0.87073    1.000000    
     83 O2    c    0.218376 *  0.084337 *  0.804637 *   0.87073    1.000000    
     84 O2    c    0.904763 *  0.130111 *  0.135138 *   0.87073    1.000000    
     85 O2    c    0.188303 *  0.120537 *  0.358145 *   0.87073    1.000000    
     86 O2    c    0.913532 *  0.795995 *  0.023777 *   0.87073    1.000000    
     87 O2    c    0.886454 *  0.096947 *  0.691501 *   0.87073    1.000000    
     88 O2    c    0.787566 *  0.869667 *  0.857420 *   0.87073    1.000000    
     89 O2    c    0.086203 *  0.210194 *  0.528496 *   0.87073    1.000000    
     90 O2    c    0.120701 *  0.914590 *  0.190772 *   0.87073    1.000000    
     91 O2    c    0.930113 *  0.872333 *  0.245758 *   0.87073    1.000000    
     92 O2    c    0.152517 *  0.072206 *  0.580258 *   0.87073    1.000000    
     93 O2    c    0.933866 *  0.060228 *  0.913454 *   0.87073    1.000000    
     94 O2    c    0.072333 *  0.126014 *  0.747898 *   0.87073    1.000000    
     95 O2    c    0.857101 *  0.935216 *  0.079899 *   0.87073    1.000000    
     96 O2    c    0.065925 *  0.926614 *  0.415304 *   0.87073    1.000000    
     97 O2    c    0.901240 *  0.200823 *  0.973594 *   0.87073    1.000000    
     98 O2    c    0.787046 *  0.704005 *  0.305107 *   0.87073    1.000000    
     99 O2    c    0.316124 *  0.109317 *  0.644725 *   0.87073    1.000000    
    100 O2    c    0.091065 *  0.790386 *  0.479331 *   0.87073    1.000000    
    101 O2    c    0.205840 *  0.297046 *  0.809759 *   0.87073    1.000000    
    102 O2    c    0.693349 *  0.905650 *  0.143336 *   0.87073    1.000000    
    103 O2    c    0.197395 *  0.902846 *  0.351183 *   0.87073    1.000000    
    104 O2    c    0.694363 *  0.800629 *  0.016606 *   0.87073    1.000000    
    105 O2    c    0.121814 *  0.303379 *  0.688151 *   0.87073    1.000000    
    106 O2    c    0.799451 *  0.093763 *  0.851194 *   0.87073    1.000000    
    107 O2    c    0.298711 *  0.201196 *  0.513642 *   0.87073    1.000000    
    108 O2    c    0.893918 *  0.705183 *  0.181133 *   0.87073    1.000000    
    109 O2    c    0.316660 *  0.644510 *  0.245152 *   0.87073    1.000000    
    110 O2    c    0.349652 *  0.673777 *  0.581063 *   0.87073    1.000000    
    111 O2    c    0.317473 *  0.675373 *  0.911528 *   0.87073    1.000000    
    112 O2    c    0.684630 *  0.353187 *  0.750541 *   0.87073    1.000000    
    113 O3    c    0.612437 *  0.305971 *  0.085597 *   1.33043    1.000000    
    114 O3    c    0.686372 *  0.316771 *  0.414972 *   1.33043    1.000000    
    115 O2    c    0.371883 *  0.333742 *  0.966933 *   0.87073    1.000000    
    116 O2    c    0.663635 *  0.044457 *  0.301690 *   0.87073    1.000000    
    117 O3    c    0.960650 *  0.642613 *  0.640650 *   1.33043    1.000000    
    118 O2    c    0.620595 *  0.660560 *  0.464064 *   0.87073    1.000000    
    119 O2    c    0.333850 *  0.953025 *  0.801079 *   0.87073    1.000000    
    120 O2    c    0.032964 *  0.378456 *  0.130941 *   0.87073    1.000000    
    121 O2    c    0.321006 *  0.372598 *  0.358075 *   0.87073    1.000000    
    122 O2    c    0.030335 *  0.664049 *  0.024322 *   0.87073    1.000000    
    123 O2    c    0.636757 *  0.961461 *  0.692754 *   0.87073    1.000000    
    124 O2    c    0.670363 *  0.623374 *  0.860153 *   0.87073    1.000000    
    125 O2    c    0.952108 *  0.326102 *  0.531983 *   0.87073    1.000000    
    126 O2    c    0.367704 *  0.042560 *  0.194511 *   0.87073    1.000000    
    127 O3    c    0.754335 *  0.283013 *  0.002522 *   1.33043    1.000000    
    128 O3    c    0.704190 *  0.477225 *  0.333645 *   1.33043    1.000000    
    129 O2    c    0.542970 *  0.234744 *  0.677256 *   0.87073    1.000000    
    130 O2    c    0.220112 *  0.686607 *  0.511019 *   0.87073    1.000000    
    131 O2    c    0.304548 *  0.529913 *  0.839007 *   0.87073    1.000000    
    132 O2    c    0.460483 *  0.774221 *  0.172871 *   0.87073    1.000000    
    133 O2    c    0.294161 *  0.768446 *  0.318683 *   0.87073    1.000000    
    134 O2    c    0.461946 *  0.699431 *  0.984976 *   0.87073    1.000000    
    135 O2    c    0.239947 *  0.535655 *  0.654125 *   0.87073    1.000000    
    136 O2    c    0.699753 *  0.225499 *  0.821826 *   0.87073    1.000000    
    137 O2    c    0.531072 *  0.301514 *  0.482396 *   0.87073    1.000000    
    138 O2    c    0.757611 *  0.469908 *  0.151124 *   0.87073    1.000000    
    139 O3    c    0.770592 *  0.545331 *  0.018960 *   1.33043    1.000000    
    140 O3    c    0.439912 *  0.235061 *  0.349443 *   1.33043    1.000000    
    141 O2    c    0.758277 *  0.218940 *  0.692644 *   0.87073    1.000000    
    142 O2    c    0.206973 *  0.462821 *  0.530748 *   0.87073    1.000000    
    143 O2    c    0.535534 *  0.747983 *  0.857701 *   0.87073    1.000000    
    144 O2    c    0.239302 *  0.783487 *  0.192385 *   0.87073    1.000000    
    145 O2    c    0.529209 *  0.785256 *  0.301606 *   0.87073    1.000000    
    146 O2    c    0.244164 *  0.465639 *  0.967792 *   0.87073    1.000000    
    147 O2    c    0.214780 *  0.743087 *  0.637312 *   0.87073    1.000000    
    148 O2    c    0.469950 *  0.211515 *  0.804058 *   0.87073    1.000000    
    149 O2    c    0.745755 *  0.529621 *  0.464947 *   0.87073    1.000000    
    150 O2    c    0.777362 *  0.257231 *  0.133952 *   0.87073    1.000000    
    151 O2    c    0.228939 *  0.323877 *  0.894179 *   0.87073    1.000000    
    152 O2    c    0.670241 *  0.908639 *  0.228135 *   0.87073    1.000000    
    153 O2    c    0.089944 *  0.762875 *  0.565125 *   0.87073    1.000000    
    154 O2    c    0.762593 *  0.670457 *  0.392278 *   0.87073    1.000000    
    155 O2    c    0.329077 *  0.091166 *  0.729491 *   0.87073    1.000000    
    156 O2    c    0.897848 *  0.234087 *  0.060008 *   0.87073    1.000000    
    157 O2    c    0.325027 *  0.230023 *  0.427821 *   0.87073    1.000000    
    158 O2    c    0.889799 *  0.669509 *  0.095398 *   0.87073    1.000000    
    159 O2    c    0.775822 *  0.094295 *  0.766234 *   0.87073    1.000000    
    160 O2    c    0.675180 *  0.766720 *  0.932265 *   0.87073    1.000000    
    161 O2    c    0.089620 *  0.324124 *  0.603908 *   0.87073    1.000000    
    162 O2    c    0.225392 *  0.910471 *  0.266590 *   0.87073    1.000000    
    163 O2    c    0.580602 *  0.560976 *  0.988778 *   0.87073    1.000000    
    164 O2    c    0.435471 *  0.024561 *  0.323503 *   0.87073    1.000000    
    165 O3    c    0.983318 *  0.407207 *  0.666889 *   1.33043    1.000000    
    166 O2    c    0.410579 *  0.436239 *  0.481394 *   0.87073    1.000000    
    167 O2    c    0.563218 *  0.967262 *  0.820622 *   0.87073    1.000000    
    168 O2    c    0.012901 *  0.585420 *  0.148398 *   0.87073    1.000000    
    169 O2    c    0.551739 *  0.579073 *  0.338370 *   0.87073    1.000000    
    170 O2    c    0.011880 *  0.437749 *  0.004939 *   0.87073    1.000000    
    171 O2    c    0.420283 *  0.974878 *  0.672710 *   0.87073    1.000000    
    172 O2    c    0.443109 *  0.408868 *  0.840995 *   0.87073    1.000000    
    173 O2    c    0.965441 *  0.552726 *  0.512325 *   0.87073    1.000000    
    174 O2    c    0.584426 *  0.033030 *  0.175104 *   0.87073    1.000000    
    175 O2    c    0.572929 *  0.163455 *  0.250458 *   0.87073    1.000000    
    176 O3    c    0.815017 *  0.403110 *  0.582066 *   1.33043    1.000000    
    177 O2    c    0.585557 *  0.421918 *  0.915778 *   0.87073    1.000000    
    178 O2    c    0.422425 *  0.833428 *  0.745869 *   0.87073    1.000000    
    179 O2    c    0.149341 *  0.578503 *  0.077179 *   0.87073    1.000000    
    180 O2    c    0.414941 *  0.578131 *  0.411303 *   0.87073    1.000000    
    181 F     c    0.442218 *  0.898412 *  0.246935 *   0.56000    1.000000    
    182 F     c    0.054750 *  0.527854 *  0.593426 *   0.56000    1.000000    
    183 F     c    0.446945 *  0.550594 *  0.912867 *   0.56000    1.000000    
    184 F     c    0.550319 *  0.088702 *  0.747276 *   0.56000    1.000000    
    185 F     c    0.850820 *  0.435547 *  0.069926 *   0.56000    1.000000    
    186 F     c    0.554615 *  0.425437 *  0.402399 *   0.56000    1.000000    
    187 O2    s    0.925073 *  0.003912 *  0.997442 *  -2.87073    1.000000    
    188 O2    s    0.987895 *  0.918606 *  0.331684 *  -2.87073    1.000000    
    189 O2    s    0.083184 *  0.078573 *  0.662963 *  -2.87073    1.000000    
    190 O2    s    0.069516 *  0.995565 *  0.498652 *  -2.87073    1.000000    
    191 O2    s    0.002748 *  0.069146 *  0.830540 *  -2.87073    1.000000    
    192 O2    s    0.923329 *  0.933602 *  0.162799 *  -2.87073    1.000000    
    193 O2    s    0.346467 *  0.586918 *  0.328076 *  -2.87073    1.000000    
    194 O2    s    0.423317 *  0.771352 *  0.662881 *  -2.87073    1.000000    
    195 O2    s    0.224882 *  0.644862 *  0.994110 *  -2.87073    1.000000    
    196 O2    s    0.651194 *  0.409987 *  0.833150 *  -2.87073    1.000000    
    197 O2    s    0.580277 *  0.237114 *  0.169563 *  -2.87073    1.000000    
    198 O2    s    0.763136 *  0.347758 *  0.498164 *  -2.87073    1.000000    
    199 O3    s    0.572824 *  0.349519 *  0.998117 *  -3.33043    1.000000    
    200 O3    s    0.773957 *  0.417868 *  0.669459 *  -3.33043    1.000000    
    201 O3    s    0.642167 *  0.231699 *  0.331381 *  -3.33043    1.000000    
    202 O2    s    0.406820 *  0.640119 *  0.496441 *  -2.87073    1.000000    
    203 O2    s    0.226066 *  0.590917 *  0.161495 *  -2.87073    1.000000    
    204 O2    s    0.354463 *  0.762017 *  0.828694 *  -2.87073    1.000000    
    205 O2    s    0.122395 *  0.216994 *  0.966105 *  -2.87073    1.000000    
    206 O2    s    0.779399 *  0.911682 *  0.299539 *  -2.87073    1.000000    
    207 O2    s    0.110335 *  0.888859 *  0.635431 *  -2.87073    1.000000    
    208 O2    s    0.873199 *  0.778414 *  0.466113 *  -2.87073    1.000000    
    209 O2    s    0.221608 *  0.091032 *  0.801857 *  -2.87073    1.000000    
    210 O2    s    0.898109 *  0.126667 *  0.132489 *  -2.87073    1.000000    
    211 O2    s    0.194173 *  0.116997 *  0.360240 *  -2.87073    1.000000    
    212 O2    s    0.904494 *  0.791519 *  0.025975 *  -2.87073    1.000000    
    213 O2    s    0.889704 *  0.102525 *  0.694281 *  -2.87073    1.000000    
    214 O2    s    0.784307 *  0.873269 *  0.860087 *  -2.87073    1.000000    
    215 O2    s    0.092718 *  0.213383 *  0.530889 *  -2.87073    1.000000    
    216 O2    s    0.116876 *  0.907939 *  0.193399 *  -2.87073    1.000000    
    217 O2    s    0.927621 *  0.868526 *  0.245747 *  -2.87073    1.000000    
    218 O2    s    0.153666 *  0.073920 *  0.580135 *  -2.87073    1.000000    
    219 O2    s    0.932201 *  0.062824 *  0.913381 *  -2.87073    1.000000    
    220 O2    s    0.074526 *  0.131049 *  0.747844 *  -2.87073    1.000000    
    221 O2    s    0.854516 *  0.934207 *  0.080082 *  -2.87073    1.000000    
    222 O2    s    0.066090 *  0.925072 *  0.415374 *  -2.87073    1.000000    
    223 O2    s    0.907907 *  0.201792 *  0.976447 *  -2.87073    1.000000    
    224 O2    s    0.786860 *  0.709756 *  0.308194 *  -2.87073    1.000000    
    225 O2    s    0.308929 *  0.100810 *  0.647119 *  -2.87073    1.000000    
    226 O2    s    0.083921 *  0.789326 *  0.481828 *  -2.87073    1.000000    
    227 O2    s    0.207140 *  0.290952 *  0.812456 *  -2.87073    1.000000    
    228 O2    s    0.699487 *  0.913278 *  0.145936 *  -2.87073    1.000000    
    229 O2    s    0.197958 *  0.909770 *  0.348615 *  -2.87073    1.000000    
    230 O2    s    0.700729 *  0.799181 *  0.014094 *  -2.87073    1.000000    
    231 O2    s    0.111774 *  0.297244 *  0.685607 *  -2.87073    1.000000    
    232 O2    s    0.798112 *  0.086213 *  0.848517 *  -2.87073    1.000000    
    233 O2    s    0.292875 *  0.202393 *  0.511340 *  -2.87073    1.000000    
    234 O2    s    0.901035 *  0.710846 *  0.178665 *  -2.87073    1.000000    
    235 O2    s    0.322269 *  0.656414 *  0.245246 *  -2.87073    1.000000    
    236 O2    s    0.339431 *  0.668217 *  0.580919 *  -2.87073    1.000000    
    237 O2    s    0.323749 *  0.669581 *  0.911631 *  -2.87073    1.000000    
    238 O2    s    0.678960 *  0.342445 *  0.750567 *  -2.87073    1.000000    
    239 O3    s    0.625550 *  0.312117 *  0.086945 *  -3.33043    1.000000    
    240 O3    s    0.680553 *  0.323955 *  0.416862 *  -3.33043    1.000000    
    241 O2    s    0.374323 *  0.343306 *  0.964852 *  -2.87073    1.000000    
    242 O2    s    0.653961 *  0.037308 *  0.299557 *  -2.87073    1.000000    
    243 O3    s    0.971163 *  0.643216 *  0.637900 *  -3.33043    1.000000    
    244 O2    s    0.617097 *  0.651362 *  0.462060 *  -2.87073    1.000000    
    245 O2    s    0.344093 *  0.959872 *  0.798870 *  -2.87073    1.000000    
    246 O2    s    0.026817 *  0.381519 *  0.128993 *  -2.87073    1.000000    
    247 O2    s    0.330539 *  0.375911 *  0.359653 *  -2.87073    1.000000    
    248 O2    s    0.024509 *  0.654684 *  0.026023 *  -2.87073    1.000000    
    249 O2    s    0.632979 *  0.968112 *  0.695085 *  -2.87073    1.000000    
    250 O2    s    0.660459 *  0.620325 *  0.862480 *  -2.87073    1.000000    
    251 O2    s    0.958857 *  0.334975 *  0.534105 *  -2.87073    1.000000    
    252 O2    s    0.370612 *  0.035850 *  0.196936 *  -2.87073    1.000000    
    253 O3    s    0.764933 *  0.290349 *  0.005633 *  -3.33043    1.000000    
    254 O3    s    0.697111 *  0.481071 *  0.336872 *  -3.33043    1.000000    
    255 O2    s    0.542948 *  0.227378 *  0.680091 *  -2.87073    1.000000    
    256 O2    s    0.214420 *  0.680006 *  0.513856 *  -2.87073    1.000000    
    257 O2    s    0.311891 *  0.530554 *  0.842310 *  -2.87073    1.000000    
    258 O2    s    0.459691 *  0.780727 *  0.176199 *  -2.87073    1.000000    
    259 O2    s    0.302343 *  0.775613 *  0.315658 *  -2.87073    1.000000    
    260 O2    s    0.461325 *  0.691392 *  0.981912 *  -2.87073    1.000000    
    261 O2    s    0.233227 *  0.536652 *  0.651797 *  -2.87073    1.000000    
    262 O2    s    0.692517 *  0.218789 *  0.818612 *  -2.87073    1.000000    
    263 O2    s    0.530676 *  0.307772 *  0.479671 *  -2.87073    1.000000    
    264 O2    s    0.764372 *  0.469746 *  0.148396 *  -2.87073    1.000000    
    265 O3    s    0.780260 *  0.547581 *  0.022143 *  -3.33043    1.000000    
    266 O3    s    0.438425 *  0.242540 *  0.352937 *  -3.33043    1.000000    
    267 O2    s    0.751210 *  0.213800 *  0.695318 *  -2.87073    1.000000    
    268 O2    s    0.203424 *  0.465865 *  0.532780 *  -2.87073    1.000000    
    269 O2    s    0.532650 *  0.739854 *  0.860296 *  -2.87073    1.000000    
    270 O2    s    0.247985 *  0.789025 *  0.194830 *  -2.87073    1.000000    
    271 O2    s    0.526023 *  0.790375 *  0.299010 *  -2.87073    1.000000    
    272 O2    s    0.252548 *  0.468528 *  0.965165 *  -2.87073    1.000000    
    273 O2    s    0.211598 *  0.736996 *  0.635136 *  -2.87073    1.000000    
    274 O2    s    0.472802 *  0.206528 *  0.801448 *  -2.87073    1.000000    
    275 O2    s    0.739492 *  0.528146 *  0.462737 *  -2.87073    1.000000    
    276 O2    s    0.781662 *  0.263088 *  0.131638 *  -2.87073    1.000000    
    277 O2    s    0.238875 *  0.333379 *  0.895059 *  -2.87073    1.000000    
    278 O2    s    0.660649 *  0.908924 *  0.229020 *  -2.87073    1.000000    
    279 O2    s    0.089859 *  0.754345 *  0.565476 *  -2.87073    1.000000    
    280 O2    s    0.754698 *  0.662290 *  0.393316 *  -2.87073    1.000000    
    281 O2    s    0.339131 *  0.091689 *  0.730379 *  -2.87073    1.000000    
    282 O2    s    0.897349 *  0.241900 *  0.061048 *  -2.87073    1.000000    
    283 O2    s    0.332764 *  0.238601 *  0.427483 *  -2.87073    1.000000    
    284 O2    s    0.890261 *  0.661322 *  0.095178 *  -2.87073    1.000000    
    285 O2    s    0.766303 *  0.094286 *  0.765353 *  -2.87073    1.000000    
    286 O2    s    0.665504 *  0.757521 *  0.931326 *  -2.87073    1.000000    
    287 O2    s    0.090461 *  0.332300 *  0.602697 *  -2.87073    1.000000    
    288 O2    s    0.234645 *  0.909885 *  0.265604 *  -2.87073    1.000000    
    289 O2    s    0.577030 *  0.561717 *  0.985406 *  -2.87073    1.000000    
    290 O2    s    0.434381 *  0.020181 *  0.320070 *  -2.87073    1.000000    
    291 O3    s    0.991859 *  0.411064 *  0.663058 *  -3.33043    1.000000    
    292 O2    s    0.414736 *  0.436710 *  0.478642 *  -2.87073    1.000000    
    293 O2    s    0.563372 *  0.972352 *  0.817341 *  -2.87073    1.000000    
    294 O2    s    0.009458 *  0.581822 *  0.145692 *  -2.87073    1.000000    
    295 O2    s    0.551210 *  0.575771 *  0.341159 *  -2.87073    1.000000    
    296 O2    s    0.008838 *  0.438207 *  0.007802 *  -2.87073    1.000000    
    297 O2    s    0.425409 *  0.979965 *  0.676254 *  -2.87073    1.000000    
    298 O2    s    0.442681 *  0.413822 *  0.844216 *  -2.87073    1.000000    
    299 O2    s    0.970486 *  0.554351 *  0.515062 *  -2.87073    1.000000    
    300 O2    s    0.579342 *  0.027568 *  0.178364 *  -2.87073    1.000000    
    301 O2    s    0.568068 *  0.153118 *  0.250136 *  -2.87073    1.000000    
    302 O3    s    0.827901 *  0.408550 *  0.580243 *  -3.33043    1.000000    
    303 O2    s    0.579861 *  0.426563 *  0.915482 *  -2.87073    1.000000    
    304 O2    s    0.428278 *  0.844871 *  0.746000 *  -2.87073    1.000000    
    305 O2    s    0.139938 *  0.573914 *  0.077454 *  -2.87073    1.000000    
    306 O2    s    0.419563 *  0.573149 *  0.411477 *  -2.87073    1.000000    
    307 F     s    0.441590 *  0.897212 *  0.246867 *  -1.56000    1.000000    
    308 F     s    0.045386 *  0.524290 *  0.595806 *  -1.56000    1.000000    
    309 F     s    0.446267 *  0.551163 *  0.912804 *  -1.56000    1.000000    
    310 F     s    0.549905 *  0.088038 *  0.747181 *  -1.56000    1.000000    
    311 F     s    0.840810 *  0.431551 *  0.067719 *  -1.56000    1.000000    
    312 F     s    0.558390 *  0.418816 *  0.399846 *  -1.56000    1.000000    
--------------------------------------------------------------------------------



********************************************************************************
*  General input information                                                   *
********************************************************************************

  Species output for all configurations : 

--------------------------------------------------------------------------------
  Species    Type    Atomic    Atomic    Charge       Radii (Angs)     Library
                     Number     Mass       (e)     Cova   Ionic  VDW   Symbol
--------------------------------------------------------------------------------
    Si       Core       14      28.09   4.000000   1.200  0.000  2.100          
    O1       Core        8      16.00   1.733957   0.730  0.000  1.360          
    O1       Shell       8       0.00  -3.733957   0.730  0.000  1.360          
    O2       Core        8      16.00   0.870733   0.730  0.000  1.360          
    O2       Shell       8       0.00  -2.870733   0.730  0.000  1.360          
    O3       Core        8      16.00   1.330431   0.730  0.000  1.360          
    O3       Shell       8       0.00  -3.330431   0.730  0.000  1.360          
    F        Core        9      19.00   0.560000   0.710  0.000  1.300          
    F        Shell       9       0.00  -1.560000   0.710  0.000  1.300          
    Ge       Core       32      72.61   4.000000   1.170  0.000  1.750          
--------------------------------------------------------------------------------


  Lattice summation method               =    Ewald          (3-D)
                                         =    Parry          (2-D)
                                         =    Saunders et al (1-D)
  Accuracy factor for lattice sums       =   12.000


  Time limit = Infinity

  Maximum range for interatomic potentials =        16.000000 Angstroms

  Taper potentials to zero over   1.0000 Angstroms using polynomial

  General interatomic potentials :

--------------------------------------------------------------------------------
Atom  Types   Potential         A         B         C         D     Cutoffs(Ang)
  1     2                                                            Min    Max 
--------------------------------------------------------------------------------
Si   c O1   s Buckingham    0.132E+04 0.318      10.1      0.00     0.000 16.000
Si   c O2   s Buckingham    0.132E+04 0.318      10.1      0.00     0.000 16.000
Si   c O3   s Buckingham    0.132E+04 0.318      10.1      0.00     0.000 16.000
Ge   c O1   s Buckingham    0.150E+04 0.326      16.8      0.00     0.000 16.000
Ge   c O2   s Buckingham    0.150E+04 0.326      16.8      0.00     0.000 16.000
Ge   c O3   s Buckingham    0.150E+04 0.326      16.8      0.00     0.000 16.000
O1   s O1   s Buckingham    0.228E+05 0.149      10.9      0.00     0.000 16.000
O1   s O2   s Buckingham    0.228E+05 0.149      10.9      0.00     0.000 16.000
O1   s O3   s Buckingham    0.228E+05 0.149      10.9      0.00     0.000 16.000
O2   s O2   s Buckingham    0.228E+05 0.149      10.9      0.00     0.000 16.000
O2   s O3   s Buckingham    0.228E+05 0.149      10.9      0.00     0.000 16.000
O3   s O3   s Buckingham    0.228E+05 0.149      10.9      0.00     0.000 16.000
Si   c F    s Buckingham     977.     0.282      0.00      0.00     0.000 16.000
Ge   c F    s Buckingham     681.     0.320      0.00      0.00     0.000 16.000
F    s F    s Buckingham     540.     0.262      0.00      0.00     0.000 16.000
O1   s F    s Buckingham    0.168E+04 0.268      0.00      0.00     0.000 16.000
O2   s F    s Buckingham    0.168E+04 0.268      0.00      0.00     0.000 16.000
O3   s F    s Buckingham    0.168E+04 0.268      0.00      0.00     0.000 16.000
O2   c O2   s Spring (c-s)   76.0      0.00      0.00      0.00     0.000  0.800
O3   c O3   s Spring (c-s)   128.      0.00      0.00      0.00     0.000  0.800
O1   c O1   s Spring (c-s)   180.      0.00      0.00      0.00     0.000  0.800
F    c F    s Spring (c-s)   33.5      0.00      0.00      0.00     0.000  0.800
--------------------------------------------------------------------------------

  General Three-body potentials :

  Harmonic form:

--------------------------------------------------------------------------------
Atom    Atom    Atom           Force Constants            Theta     Cutoffs  
  1       2       3     (eVrad**-2/eVrad**-3/eVrad**-4)   (deg)  1-2  1-3  2-3
--------------------------------------------------------------------------------
Si    c O1    s O1    s  1.261        0.0000    0.0000   109.470 0.00 0.00 0.00
                                                                 1.90 1.90 3.50
Si    c O1    s O2    s  1.261        0.0000    0.0000   109.470 0.00 0.00 0.00
                                                                 1.90 1.90 3.50
Si    c O2    s O2    s  1.261        0.0000    0.0000   109.470 0.00 0.00 0.00
                                                                 1.90 1.90 3.50
--------------------------------------------------------------------------------

********************************************************************************
*  Output for configuration   1                                                *
********************************************************************************


  Components of energy : 

--------------------------------------------------------------------------------
  Interatomic potentials     =        2066.39008338 eV
  Three-body potentials      =           0.48606496 eV
  Monopole - monopole (real) =       -6617.10278295 eV
  Monopole - monopole (recip)=       -3170.85952360 eV
  Monopole - monopole (total)=       -9787.96230654 eV
  Neutralising energy        =          -6.45905175 eV
--------------------------------------------------------------------------------
  Total lattice energy       =       -7727.54520995 eV
--------------------------------------------------------------------------------
  Total lattice energy       =         -745589.9864 kJ/(mole unit cells)
--------------------------------------------------------------------------------


  Number of variables =      939

  Maximum number of calculations  =          1000
  Maximum Hessian update interval =            10
  Maximum step size               =   1.000000000
  Maximum parameter tolerance     =   0.000010000
  Maximum function  tolerance     =   0.000010000
  Maximum gradient  tolerance     =   0.001000000
  Maximum gradient  component     =   0.010000000

  Symmetry not applied to optimisation

  Cell parameters to be optimised using strains

  Newton-Raphson optimiser to be used

  BFGS hessian update to be used

  Dumpfile to be written after every cycle

  Start of bulk optimisation :

  Cycle:      0 Energy:     -7727.545210  Gnorm:      0.001497  CPU:    1.259
  ** Hessian calculated **
  Cycle:      1 Energy:     -7727.667941  Gnorm:      0.005563  CPU:    3.587
  Cycle:      2 Energy:     -7727.673799  Gnorm:      0.001604  CPU:    5.183
  Cycle:      3 Energy:     -7727.673889  Gnorm:      0.000321  CPU:    6.588
  Cycle:      4 Energy:     -7727.673902  Gnorm:      0.000097  CPU:    7.994


  **** Optimisation achieved ****


  Final energy =   -7727.67390183 eV
  Final Gnorm  =       0.00001212

  Components of energy : 

--------------------------------------------------------------------------------
  Interatomic potentials     =        2067.17551798 eV
  Three-body potentials      =           0.48014993 eV
  Monopole - monopole (real) =       -6617.98965969 eV
  Monopole - monopole (recip)=       -3170.88081136 eV
  Monopole - monopole (total)=       -9788.87047105 eV
  Neutralising energy        =          -6.45909869 eV
--------------------------------------------------------------------------------
  Total lattice energy       =       -7727.67390183 eV
--------------------------------------------------------------------------------
  Total lattice energy       =         -745602.4032 kJ/(mole unit cells)
--------------------------------------------------------------------------------

  Final fractional coordinates of atoms :

--------------------------------------------------------------------------------
   No.  Atomic        x           y          z          Radius
        Label       (Frac)      (Frac)     (Frac)       (Angs) 
--------------------------------------------------------------------------------
     1  Ge    c     0.699600    0.375700    0.033890    0.000000
     2  Ge    c     0.584459    0.312038    0.364814    0.000000
     3  Si    c     0.677315    0.292969    0.697944    0.000000
     4  Si    c     0.270548    0.596828    0.528790    0.000000
     5  Si    c     0.369268    0.658497    0.859836    0.000000
     6  Si    c     0.298570    0.690891    0.194025    0.000000
     7  Si    c     0.348105    0.682089    0.294070    0.000000
     8  Si    c     0.309084    0.608899    0.960140    0.000000
     9  Si    c     0.291886    0.665067    0.630848    0.000000
    10  Si    c     0.614521    0.279554    0.799609    0.000000
    11  Si    c     0.655863    0.352736    0.462681    0.000000
    12  Si    c     0.668320    0.308124    0.132117    0.000000
    13  Si    c     0.521355    0.407984    0.966943    0.000000
    14  Si    c     0.552819    0.094795    0.301366    0.000000
    15  Ge    c     0.896530    0.463404    0.632658    0.000000
    16  Si    c     0.437319    0.555883    0.459478    0.000000
    17  Si    c     0.411413    0.868249    0.794702    0.000000
    18  Si    c     0.090242    0.520289    0.127361    0.000000
    19  Si    c     0.383021    0.503479    0.356412    0.000000
    20  Si    c     0.092918    0.571296    0.024124    0.000000
    21  Si    c     0.470244    0.880818    0.693301    0.000000
    22  Si    c     0.575470    0.454050    0.864259    0.000000
    23  Si    c     0.852159    0.390315    0.534339    0.000000
    24  Si    c     0.505041    0.099246    0.198971    0.000000
    25  Si    c     0.294154    0.381862    0.847240    0.000000
    26  Si    c     0.577232    0.891959    0.181033    0.000000
    27  Si    c     0.063957    0.674455    0.517406    0.000000
    28  Si    c     0.672937    0.580097    0.341178    0.000000
    29  Si    c     0.398933    0.088672    0.681435    0.000000
    30  Si    c     0.880683    0.284342    0.009416    0.000000
    31  Si    c     0.368546    0.273513    0.472713    0.000000
    32  Si    c     0.874805    0.592082    0.142020    0.000000
    33  Si    c     0.691396    0.077776    0.810997    0.000000
    34  Si    c     0.587533    0.688232    0.977187    0.000000
    35  Si    c     0.093100    0.385246    0.652325    0.000000
    36  Si    c     0.270517    0.881214    0.311438    0.000000
    37  Si    c     0.241600    0.330639    0.947837    0.000000
    38  Si    c     0.628673    0.892917    0.281773    0.000000
    39  Si    c     0.076793    0.739957    0.619674    0.000000
    40  Si    c     0.721388    0.634502    0.444643    0.000000
    41  Si    c     0.334711    0.069800    0.781897    0.000000
    42  Si    c     0.885809    0.239751    0.112773    0.000000
    43  Si    c     0.300632    0.220519    0.370280    0.000000
    44  Si    c     0.891310    0.656305    0.039483    0.000000
    45  Si    c     0.747537    0.081781    0.709942    0.000000
    46  Si    c     0.650577    0.731741    0.876467    0.000000
    47  Si    c     0.060151    0.315113    0.549463    0.000000
    48  Si    c     0.224942    0.896509    0.210836    0.000000
    49  Si    c     0.963335    0.110763    0.961874    0.000000
    50  Si    c     0.847357    0.832998    0.295012    0.000000
    51  Si    c     0.153637    0.024594    0.630464    0.000000
    52  Si    c     0.998013    0.854183    0.464883    0.000000
    53  Si    c     0.116129    0.130782    0.797578    0.000000
    54  Si    c     0.827705    0.963905    0.129656    0.000000
    55  Si    c     0.084676    0.943729    0.362865    0.000000
    56  Si    c     0.835172    0.874646    0.028224    0.000000
    57  Si    c     0.029576    0.139641    0.697261    0.000000
    58  Si    c     0.870249    0.008558    0.861849    0.000000
    59  Si    c     0.125459    0.099303    0.529382    0.000000
    60  Si    c     0.947419    0.841163    0.194268    0.000000
    61  O2    c     0.917837    0.997337    0.997540    0.000000
    62  O2    c     0.958450    0.895385    0.332538    0.000000
    63  O2    c     0.069309    0.063502    0.661930    0.000000
    64  O2    c     0.035741    0.973422    0.498936    0.000000
    65  O2    c     0.993811    0.050836    0.829846    0.000000
    66  O2    c     0.908362    0.924113    0.162692    0.000000
    67  O2    c     0.309098    0.556500    0.325271    0.000000
    68  O2    c     0.421521    0.756536    0.659157    0.000000
    69  O2    c     0.219683    0.645708    0.992300    0.000000
    70  O2    c     0.651989    0.400284    0.833392    0.000000
    71  O2    c     0.558109    0.229054    0.169889    0.000000
    72  O2    c     0.733421    0.317640    0.499052    0.000000
    73  O3    c     0.562824    0.333011    0.999524    0.000000
    74  O3    c     0.761973    0.416113    0.669204    0.000000
    75  O3    c     0.628659    0.214431    0.332965    0.000000
    76  O2    c     0.386611    0.629303    0.492963    0.000000
    77  O2    c     0.214813    0.570132    0.159929    0.000000
    78  O2    c     0.333234    0.741405    0.825690    0.000000
    79  O2    c     0.116889    0.202891    0.967797    0.000000
    80  O2    c     0.757316    0.896529    0.301752    0.000000
    81  O2    c     0.094451    0.874040    0.637630    0.000000
    82  O2    c     0.842523    0.761662    0.466553    0.000000
    83  O2    c     0.206991    0.067636    0.802641    0.000000
    84  O2    c     0.888557    0.117434    0.134154    0.000000
    85  O2    c     0.163814    0.096868    0.355664    0.000000
    86  O2    c     0.907690    0.792281    0.023659    0.000000
    87  O2    c     0.877016    0.085841    0.689716    0.000000
    88  O2    c     0.779067    0.855389    0.856387    0.000000
    89  O2    c     0.060861    0.189806    0.528585    0.000000
    90  O2    c     0.101770    0.901237    0.189934    0.000000
    91  O2    c     0.909408    0.855410    0.245417    0.000000
    92  O2    c     0.135235    0.055278    0.579116    0.000000
    93  O2    c     0.923417    0.047976    0.912487    0.000000
    94  O2    c     0.061076    0.114077    0.747122    0.000000
    95  O2    c     0.841200    0.923520    0.079321    0.000000
    96  O2    c     0.043721    0.908850    0.415029    0.000000
    97  O2    c     0.893425    0.193510    0.971461    0.000000
    98  O2    c     0.761157    0.681240    0.302881    0.000000
    99  O2    c     0.305545    0.096260    0.642468    0.000000
   100  O2    c     0.063358    0.769382    0.478684    0.000000
   101  O2    c     0.197666    0.282036    0.808949    0.000000
   102  O2    c     0.675884    0.893884    0.142339    0.000000
   103  O2    c     0.170040    0.877985    0.349968    0.000000
   104  O2    c     0.684222    0.790355    0.015082    0.000000
   105  O2    c     0.111875    0.292182    0.687337    0.000000
   106  O2    c     0.788458    0.077695    0.849426    0.000000
   107  O2    c     0.271699    0.179052    0.510992    0.000000
   108  O2    c     0.877154    0.691008    0.180642    0.000000
   109  O2    c     0.295082    0.626771    0.243091    0.000000
   110  O2    c     0.330974    0.657050    0.577968    0.000000
   111  O2    c     0.307497    0.662043    0.909421    0.000000
   112  O2    c     0.672253    0.337883    0.750125    0.000000
   113  O3    c     0.604594    0.300463    0.084515    0.000000
   114  O3    c     0.663236    0.297109    0.414766    0.000000
   115  O2    c     0.363274    0.322889    0.966879    0.000000
   116  O2    c     0.638075    0.022373    0.301216    0.000000
   117  O3    c     0.947958    0.630162    0.640951    0.000000
   118  O2    c     0.593346    0.638142    0.461656    0.000000
   119  O2    c     0.323316    0.936685    0.798627    0.000000
   120  O2    c     0.017538    0.365463    0.129606    0.000000
   121  O2    c     0.294897    0.348388    0.355387    0.000000
   122  O2    c     0.024328    0.658548    0.023829    0.000000
   123  O2    c     0.627147    0.948881    0.690033    0.000000
   124  O2    c     0.661312    0.609021    0.859139    0.000000
   125  O2    c     0.928316    0.307598    0.532064    0.000000
   126  O2    c     0.348510    0.027818    0.193490    0.000000
   127  O3    c     0.747550    0.278607    0.001410    0.000000
   128  O3    c     0.680072    0.454484    0.332359    0.000000
   129  O2    c     0.532003    0.222115    0.675937    0.000000
   130  O2    c     0.194117    0.665410    0.509206    0.000000
   131  O2    c     0.295613    0.515075    0.837447    0.000000
   132  O2    c     0.442051    0.760690    0.171132    0.000000
   133  O2    c     0.268492    0.745813    0.317112    0.000000
   134  O2    c     0.451879    0.688751    0.983185    0.000000
   135  O2    c     0.228198    0.522479    0.651901    0.000000
   136  O2    c     0.687483    0.208317    0.820817    0.000000
   137  O2    c     0.505401    0.280887    0.481115    0.000000
   138  O2    c     0.743811    0.457572    0.150674    0.000000
   139  O3    c     0.766868    0.542298    0.017698    0.000000
   140  O3    c     0.416404    0.213052    0.347596    0.000000
   141  O2    c     0.747468    0.206392    0.691102    0.000000
   142  O2    c     0.182930    0.442975    0.529450    0.000000
   143  O2    c     0.526365    0.733426    0.855798    0.000000
   144  O2    c     0.220155    0.769015    0.190276    0.000000
   145  O2    c     0.504282    0.763784    0.300568    0.000000
   146  O2    c     0.234766    0.454238    0.966608    0.000000
   147  O2    c     0.201673    0.729221    0.635380    0.000000
   148  O2    c     0.457984    0.194593    0.803031    0.000000
   149  O2    c     0.720156    0.509468    0.463826    0.000000
   150  O2    c     0.762062    0.244449    0.132437    0.000000
   151  O2    c     0.220600    0.310881    0.893497    0.000000
   152  O2    c     0.648150    0.890065    0.227415    0.000000
   153  O2    c     0.070212    0.746090    0.564414    0.000000
   154  O2    c     0.736043    0.647647    0.390255    0.000000
   155  O2    c     0.318637    0.076695    0.727581    0.000000
   156  O2    c     0.885411    0.223630    0.058436    0.000000
   157  O2    c     0.300508    0.207232    0.425474    0.000000
   158  O2    c     0.877952    0.659554    0.094881    0.000000
   159  O2    c     0.765120    0.079830    0.764276    0.000000
   160  O2    c     0.665338    0.754027    0.930818    0.000000
   161  O2    c     0.069830    0.308626    0.603547    0.000000
   162  O2    c     0.202980    0.891384    0.265255    0.000000
   163  O2    c     0.570491    0.550667    0.988265    0.000000
   164  O2    c     0.409727    0.001430    0.322972    0.000000
   165  O3    c     0.973283    0.398076    0.667387    0.000000
   166  O2    c     0.383029    0.413626    0.478849    0.000000
   167  O2    c     0.552685    0.950504    0.818218    0.000000
   168  O2    c     0.998583    0.572777    0.147299    0.000000
   169  O2    c     0.525646    0.553882    0.335746    0.000000
   170  O2    c     0.001662    0.429641    0.003476    0.000000
   171  O2    c     0.411144    0.962811    0.670144    0.000000
   172  O2    c     0.434385    0.394408    0.840363    0.000000
   173  O2    c     0.939781    0.533966    0.512527    0.000000
   174  O2    c     0.566099    0.019087    0.174806    0.000000
   175  O2    c     0.549439    0.144838    0.250466    0.000000
   176  O3    c     0.796054    0.387077    0.583133    0.000000
   177  O2    c     0.576541    0.410041    0.915726    0.000000
   178  O2    c     0.412924    0.819139    0.742873    0.000000
   179  O2    c     0.137244    0.566534    0.075939    0.000000
   180  O2    c     0.388249    0.554168    0.408391    0.000000
   181  F     c     0.419133    0.879091    0.245621    0.000000
   182  F     c     0.036829    0.512625    0.592465    0.000000
   183  F     c     0.437403    0.538017    0.911643    0.000000
   184  F     c     0.540169    0.074286    0.745317    0.000000
   185  F     c     0.845124    0.430246    0.069659    0.000000
   186  F     c     0.528902    0.402790    0.400885    0.000000
   187  O2    s     0.913477    0.996116    0.997015    0.000000
   188  O2    s     0.960395    0.893857    0.331775    0.000000
   189  O2    s     0.074550    0.067678    0.662301    0.000000
   190  O2    s     0.041204    0.973957    0.498504    0.000000
   191  O2    s     0.993689    0.055102    0.829809    0.000000
   192  O2    s     0.903846    0.919257    0.162581    0.000000
   193  O2    s     0.320768    0.563360    0.325458    0.000000
   194  O2    s     0.412398    0.758790    0.659417    0.000000
   195  O2    s     0.215186    0.634205    0.992457    0.000000
   196  O2    s     0.640262    0.393311    0.833056    0.000000
   197  O2    s     0.563982    0.223641    0.169011    0.000000
   198  O2    s     0.737587    0.328997    0.498852    0.000000
   199  O3    s     0.568065    0.344285    0.998421    0.000000
   200  O3    s     0.762274    0.406054    0.669750    0.000000
   201  O3    s     0.617100    0.208206    0.331741    0.000000
   202  O2    s     0.379842    0.618238    0.493192    0.000000
   203  O2    s     0.210040    0.577034    0.159924    0.000000
   204  O2    s     0.344937    0.746044    0.825972    0.000000
   205  O2    s     0.112905    0.205907    0.965142    0.000000
   206  O2    s     0.753941    0.889244    0.298994    0.000000
   207  O2    s     0.099170    0.876092    0.634857    0.000000
   208  O2    s     0.846323    0.758226    0.464133    0.000000
   209  O2    s     0.210440    0.074653    0.799973    0.000000
   210  O2    s     0.881897    0.113958    0.131499    0.000000
   211  O2    s     0.169524    0.093431    0.357920    0.000000
   212  O2    s     0.898248    0.787041    0.025773    0.000000
   213  O2    s     0.880080    0.091194    0.692561    0.000000
   214  O2    s     0.775615    0.859031    0.858999    0.000000
   215  O2    s     0.067604    0.193098    0.530791    0.000000
   216  O2    s     0.097882    0.894259    0.192545    0.000000
   217  O2    s     0.906612    0.851300    0.245350    0.000000
   218  O2    s     0.136107    0.056995    0.579022    0.000000
   219  O2    s     0.921972    0.050677    0.912400    0.000000
   220  O2    s     0.063614    0.118914    0.747015    0.000000
   221  O2    s     0.838952    0.922754    0.079459    0.000000
   222  O2    s     0.042990    0.906441    0.414971    0.000000
   223  O2    s     0.899710    0.194182    0.974452    0.000000
   224  O2    s     0.761090    0.686943    0.306111    0.000000
   225  O2    s     0.298314    0.087813    0.644966    0.000000
   226  O2    s     0.056590    0.768568    0.481191    0.000000
   227  O2    s     0.198762    0.276041    0.811617    0.000000
   228  O2    s     0.681907    0.901166    0.144988    0.000000
   229  O2    s     0.171002    0.885349    0.347464    0.000000
   230  O2    s     0.690654    0.789129    0.012686    0.000000
   231  O2    s     0.101589    0.285969    0.684806    0.000000
   232  O2    s     0.787269    0.070291    0.846820    0.000000
   233  O2    s     0.266121    0.180492    0.508870    0.000000
   234  O2    s     0.884341    0.696825    0.178154    0.000000
   235  O2    s     0.300830    0.638843    0.243334    0.000000
   236  O2    s     0.320751    0.651482    0.577994    0.000000
   237  O2    s     0.313802    0.656318    0.909600    0.000000
   238  O2    s     0.666609    0.327126    0.750123    0.000000
   239  O3    s     0.617414    0.306066    0.086350    0.000000
   240  O3    s     0.657291    0.304133    0.416671    0.000000
   241  O2    s     0.365564    0.332268    0.964756    0.000000
   242  O2    s     0.628496    0.015276    0.299071    0.000000
   243  O3    s     0.958400    0.630815    0.638068    0.000000
   244  O2    s     0.590019    0.629037    0.459661    0.000000
   245  O2    s     0.333556    0.943629    0.796451    0.000000
   246  O2    s     0.011430    0.368554    0.127619    0.000000
   247  O2    s     0.304553    0.351810    0.356973    0.000000
   248  O2    s     0.018154    0.649214    0.025445    0.000000
   249  O2    s     0.623195    0.955309    0.692386    0.000000
   250  O2    s     0.651421    0.606053    0.861477    0.000000
   251  O2    s     0.935078    0.316334    0.534145    0.000000
   252  O2    s     0.351480    0.021201    0.195896    0.000000
   253  O3    s     0.758777    0.285650    0.004487    0.000000
   254  O3    s     0.672922    0.458446    0.335525    0.000000
   255  O2    s     0.531866    0.214540    0.678756    0.000000
   256  O2    s     0.188761    0.659117    0.512121    0.000000
   257  O2    s     0.302947    0.515793    0.840772    0.000000
   258  O2    s     0.441356    0.767188    0.174556    0.000000
   259  O2    s     0.276814    0.753130    0.314145    0.000000
   260  O2    s     0.451252    0.680573    0.980187    0.000000
   261  O2    s     0.221311    0.523577    0.649714    0.000000
   262  O2    s     0.680388    0.201815    0.817573    0.000000
   263  O2    s     0.505086    0.287057    0.478386    0.000000
   264  O2    s     0.750523    0.457587    0.147956    0.000000
   265  O3    s     0.776348    0.544167    0.021059    0.000000
   266  O3    s     0.414441    0.220253    0.351090    0.000000
   267  O2    s     0.740353    0.201081    0.693800    0.000000
   268  O2    s     0.179441    0.446107    0.531468    0.000000
   269  O2    s     0.523504    0.725363    0.858435    0.000000
   270  O2    s     0.228839    0.774592    0.192846    0.000000
   271  O2    s     0.501154    0.768912    0.297956    0.000000
   272  O2    s     0.243179    0.457125    0.963994    0.000000
   273  O2    s     0.198466    0.723169    0.633277    0.000000
   274  O2    s     0.460988    0.189818    0.800392    0.000000
   275  O2    s     0.713944    0.507905    0.461610    0.000000
   276  O2    s     0.766446    0.250349    0.130240    0.000000
   277  O2    s     0.230517    0.320442    0.894338    0.000000
   278  O2    s     0.638621    0.890508    0.228253    0.000000
   279  O2    s     0.070165    0.737609    0.564773    0.000000
   280  O2    s     0.728333    0.639658    0.391317    0.000000
   281  O2    s     0.328630    0.077195    0.728438    0.000000
   282  O2    s     0.884988    0.231310    0.059490    0.000000
   283  O2    s     0.308083    0.215860    0.425144    0.000000
   284  O2    s     0.878869    0.651843    0.094573    0.000000
   285  O2    s     0.755544    0.079805    0.763425    0.000000
   286  O2    s     0.655654    0.744809    0.929907    0.000000
   287  O2    s     0.070942    0.316697    0.602266    0.000000
   288  O2    s     0.212281    0.890852    0.264333    0.000000
   289  O2    s     0.567173    0.551589    0.984876    0.000000
   290  O2    s     0.408695    0.997250    0.319517    0.000000
   291  O3    s     0.981489    0.401276    0.663434    0.000000
   292  O2    s     0.387424    0.414165    0.476103    0.000000
   293  O2    s     0.552864    0.955785    0.814971    0.000000
   294  O2    s     0.994958    0.569144    0.144602    0.000000
   295  O2    s     0.525155    0.550877    0.338568    0.000000
   296  O2    s     0.999017    0.430150    0.006324    0.000000
   297  O2    s     0.416057    0.967637    0.673694    0.000000
   298  O2    s     0.433864    0.399395    0.843577    0.000000
   299  O2    s     0.945105    0.535568    0.515184    0.000000
   300  O2    s     0.560837    0.013579    0.177971    0.000000
   301  O2    s     0.544848    0.134672    0.250005    0.000000
   302  O3    s     0.808662    0.392321    0.580994    0.000000
   303  O2    s     0.570924    0.414618    0.915316    0.000000
   304  O2    s     0.418660    0.830478    0.743025    0.000000
   305  O2    s     0.127769    0.562119    0.076125    0.000000
   306  O2    s     0.392938    0.549241    0.408590    0.000000
   307  F     s     0.418399    0.877741    0.245502    0.000000
   308  F     s     0.027187    0.509069    0.595085    0.000000
   309  F     s     0.436700    0.538608    0.911557    0.000000
   310  F     s     0.539813    0.073654    0.745216    0.000000
   311  F     s     0.834124    0.426235    0.067069    0.000000
   312  F     s     0.532920    0.395988    0.398303    0.000000
--------------------------------------------------------------------------------

  Final Cartesian lattice vectors (Angstroms) :

       11.909161    0.005480    0.001951
       -5.997941   10.431905    0.007549
        0.228904   -0.288106   29.439301


  Final cell parameters and derivatives :

--------------------------------------------------------------------------------
       a           11.909162 Angstrom     dE/de1(xx)     0.001892 eV/strain
       b           12.033287 Angstrom     dE/de2(yy)     0.001504 eV/strain
       c           29.441601 Angstrom     dE/de3(zz)     0.002479 eV/strain
       alpha       90.672177 Degrees      dE/de4(yz)    -0.000055 eV/strain
       beta        89.545402 Degrees      dE/de5(xz)    -0.000003 eV/strain
       gamma      119.870856 Degrees      dE/de6(xy)     0.000071 eV/strain
--------------------------------------------------------------------------------

  Primitive cell volume =          3658.390619 Angs**3

  Density of cell =      1.748882 g/cm**3

  Non-primitive cell volume =          3658.390619 Angs**3


  Final internal derivatives :

--------------------------------------------------------------------------------
   No.  Atomic          a             b             c           Radius
        Label          (eV)          (eV)          (eV)        (eV/Angs)
--------------------------------------------------------------------------------
      1 Ge    c       0.000000      0.000000      0.000000      0.000000
      2 Ge    c      -0.000007      0.000243      0.000652      0.000000
      3 Si    c       0.000039     -0.000257      0.001045      0.000000
      4 Si    c      -0.000065     -0.000168     -0.001407      0.000000
      5 Si    c       0.000063     -0.000047      0.000129      0.000000
      6 Si    c      -0.000057      0.000194      0.000209      0.000000
      7 Si    c      -0.000108      0.000196     -0.000308      0.000000
      8 Si    c      -0.000005     -0.000008      0.000064      0.000000
      9 Si    c      -0.000234      0.000035      0.001100      0.000000
     10 Si    c       0.000040      0.000002     -0.000159      0.000000
     11 Si    c      -0.000004      0.000124     -0.000459      0.000000
     12 Si    c      -0.000565     -0.000540      0.002599      0.000000
     13 Si    c      -0.001054      0.000580     -0.002503      0.000000
     14 Si    c       0.000059     -0.000154      0.000123      0.000000
     15 Ge    c       0.000347      0.000233      0.001071      0.000000
     16 Si    c      -0.000062     -0.000066      0.000224      0.000000
     17 Si    c      -0.000012     -0.000001     -0.000004      0.000000
     18 Si    c       0.000008      0.000075     -0.000177      0.000000
     19 Si    c      -0.000034      0.000020     -0.000058      0.000000
     20 Si    c       0.000172     -0.000012      0.000375      0.000000
     21 Si    c      -0.000032      0.000028      0.000012      0.000000
     22 Si    c      -0.000048      0.000068      0.000094      0.000000
     23 Si    c       0.000175     -0.000168     -0.002436      0.000000
     24 Si    c       0.000033     -0.000054     -0.000297      0.000000
     25 Si    c      -0.000042     -0.000009     -0.000123      0.000000
     26 Si    c       0.000011     -0.000011     -0.000153      0.000000
     27 Si    c      -0.000045     -0.000015     -0.001212      0.000000
     28 Si    c       0.000054      0.000121     -0.000009      0.000000
     29 Si    c      -0.000122     -0.000044     -0.000054      0.000000
     30 Si    c       0.000621     -0.000770     -0.000171      0.000000
     31 Si    c      -0.000276      0.000198      0.000121      0.000000
     32 Si    c      -0.000136      0.000199     -0.000638      0.000000
     33 Si    c       0.000099     -0.000067      0.000098      0.000000
     34 Si    c      -0.000005      0.000046     -0.000154      0.000000
     35 Si    c      -0.000026      0.000017      0.001371      0.000000
     36 Si    c      -0.000016     -0.000009      0.000092      0.000000
     37 Si    c      -0.000061      0.000032      0.000095      0.000000
     38 Si    c       0.000143     -0.000074      0.000056      0.000000
     39 Si    c       0.000090     -0.000134      0.000796      0.000000
     40 Si    c       0.000080     -0.000022      0.000003      0.000000
     41 Si    c      -0.000079     -0.000005     -0.000049      0.000000
     42 Si    c       0.000100     -0.000102      0.000055      0.000000
     43 Si    c      -0.000302      0.000113      0.000019      0.000000
     44 Si    c       0.000150     -0.000289     -0.000473      0.000000
     45 Si    c      -0.000020      0.000045      0.000142      0.000000
     46 Si    c      -0.000004      0.000047      0.000010      0.000000
     47 Si    c       0.000002     -0.000048     -0.000784      0.000000
     48 Si    c      -0.000085      0.000059     -0.000224      0.000000
     49 Si    c       0.000074      0.000177     -0.000177      0.000000
     50 Si    c       0.000026      0.000064      0.000490      0.000000
     51 Si    c       0.000183     -0.000130      0.001336      0.000000
     52 Si    c       0.000205     -0.000104      0.000646      0.000000
     53 Si    c      -0.000061      0.000104      0.000410      0.000000
     54 Si    c       0.000092     -0.000164     -0.000207      0.000000
     55 Si    c      -0.000022     -0.000136     -0.000183      0.000000
     56 Si    c      -0.000032      0.000138      0.000220      0.000000
     57 Si    c       0.000098      0.000086     -0.000311      0.000000
     58 Si    c      -0.000055     -0.000048     -0.000086      0.000000
     59 Si    c       0.000031      0.000192     -0.002092      0.000000
     60 Si    c       0.000054     -0.000002     -0.000136      0.000000
     61 O2    c       0.000084     -0.000325      0.000643      0.000000
     62 O2    c      -0.000059     -0.000012     -0.000335      0.000000
     63 O2    c      -0.000005      0.000016     -0.000055      0.000000
     64 O2    c      -0.000022     -0.000163     -0.000181      0.000000
     65 O2    c       0.000115     -0.000016     -0.000203      0.000000
     66 O2    c      -0.000075      0.000044     -0.000029      0.000000
     67 O2    c       0.000111     -0.000334      0.000642      0.000000
     68 O2    c       0.000239      0.000088      0.000243      0.000000
     69 O2    c      -0.000002      0.000022      0.000007      0.000000
     70 O2    c       0.000102     -0.000045     -0.000083      0.000000
     71 O2    c       0.000068      0.000173     -0.000240      0.000000
     72 O2    c       0.000185     -0.000226      0.000403      0.000000
     73 O3    c       0.000071     -0.001278      0.000590      0.000000
     74 O3    c       0.000245      0.000512     -0.001399      0.000000
     75 O3    c       0.000348     -0.000212     -0.000289      0.000000
     76 O2    c       0.000129      0.000021     -0.000057      0.000000
     77 O2    c       0.000025      0.000066      0.000259      0.000000
     78 O2    c      -0.000072      0.000102     -0.000197      0.000000
     79 O2    c      -0.000028     -0.000044      0.000101      0.000000
     80 O2    c      -0.000041      0.000032     -0.000048      0.000000
     81 O2    c      -0.000081      0.000173      0.000155      0.000000
     82 O2    c      -0.000113     -0.000008      0.000082      0.000000
     83 O2    c       0.000184     -0.000175      0.000053      0.000000
     84 O2    c      -0.000036      0.000131      0.000023      0.000000
     85 O2    c       0.000008      0.000234      0.000023      0.000000
     86 O2    c       0.000488     -0.000246      0.000165      0.000000
     87 O2    c      -0.000017     -0.000028     -0.000101      0.000000
     88 O2    c       0.000039      0.000044     -0.000002      0.000000
     89 O2    c      -0.000134      0.000150     -0.000110      0.000000
     90 O2    c      -0.000010      0.000011      0.000034      0.000000
     91 O2    c       0.000076      0.000013     -0.000380      0.000000
     92 O2    c      -0.000134     -0.000256      0.000943      0.000000
     93 O2    c      -0.000042     -0.000031     -0.000241      0.000000
     94 O2    c      -0.000082      0.000003     -0.000469      0.000000
     95 O2    c      -0.000073      0.000049      0.000446      0.000000
     96 O2    c      -0.000019      0.000011     -0.000618      0.000000
     97 O2    c      -0.000174      0.000168      0.000002      0.000000
     98 O2    c      -0.000013     -0.000109      0.000067      0.000000
     99 O2    c       0.000175     -0.000024      0.000014      0.000000
    100 O2    c      -0.000008      0.000017      0.000026      0.000000
    101 O2    c      -0.000009      0.000044     -0.000060      0.000000
    102 O2    c       0.000111     -0.000067     -0.000186      0.000000
    103 O2    c      -0.000028     -0.000018      0.000108      0.000000
    104 O2    c      -0.000175     -0.000020     -0.000297      0.000000
    105 O2    c      -0.000030      0.000065     -0.000242      0.000000
    106 O2    c      -0.000111      0.000119     -0.000061      0.000000
    107 O2    c       0.000072     -0.000043      0.000483      0.000000
    108 O2    c       0.000042     -0.000100     -0.000220      0.000000
    109 O2    c      -0.000003      0.000009     -0.000223      0.000000
    110 O2    c       0.000299      0.000076      0.000333      0.000000
    111 O2    c      -0.000015      0.000028     -0.000059      0.000000
    112 O2    c       0.000016      0.000021     -0.000064      0.000000
    113 O3    c      -0.000394      0.000447     -0.004886      0.000000
    114 O3    c       0.000013     -0.000010     -0.000075      0.000000
    115 O2    c       0.000069     -0.000046      0.000134      0.000000
    116 O2    c       0.000028      0.000006      0.000021      0.000000
    117 O3    c      -0.000012     -0.000106      0.000103      0.000000
    118 O2    c       0.000019      0.000039      0.000046      0.000000
    119 O2    c       0.000030     -0.000068      0.000057      0.000000
    120 O2    c       0.000028     -0.000042     -0.000021      0.000000
    121 O2    c       0.000003     -0.000003     -0.000014      0.000000
    122 O2    c      -0.000418      0.000442      0.000211      0.000000
    123 O2    c       0.000007     -0.000037     -0.000101      0.000000
    124 O2    c       0.000019     -0.000007     -0.000022      0.000000
    125 O2    c       0.000017     -0.000012     -0.000123      0.000000
    126 O2    c       0.000010      0.000052     -0.000012      0.000000
    127 O3    c      -0.000518     -0.000125     -0.001077      0.000000
    128 O3    c       0.000185     -0.000345     -0.000185      0.000000
    129 O2    c       0.000016      0.000091     -0.000059      0.000000
    130 O2    c       0.000174     -0.000026     -0.000059      0.000000
    131 O2    c      -0.000019      0.000023     -0.000009      0.000000
    132 O2    c      -0.000073     -0.000054      0.000087      0.000000
    133 O2    c       0.000034     -0.000065      0.000016      0.000000
    134 O2    c      -0.000070      0.000045     -0.000017      0.000000
    135 O2    c       0.000161      0.000315      0.000008      0.000000
    136 O2    c      -0.000018      0.000086      0.000068      0.000000
    137 O2    c       0.000177     -0.000157      0.000209      0.000000
    138 O2    c       0.000017      0.000031      0.000183      0.000000
    139 O3    c       0.000302      0.000064      0.001373      0.000000
    140 O3    c       0.000174     -0.000387     -0.001157      0.000000
    141 O2    c       0.000040      0.000068     -0.000050      0.000000
    142 O2    c       0.000067     -0.000074     -0.000170      0.000000
    143 O2    c      -0.000044      0.000035     -0.000015      0.000000
    144 O2    c       0.000192     -0.000215      0.000008      0.000000
    145 O2    c       0.000035     -0.000075      0.000083      0.000000
    146 O2    c      -0.000005      0.000030      0.000013      0.000000
    147 O2    c       0.000139     -0.000079      0.000054      0.000000
    148 O2    c      -0.000022      0.000087      0.000206      0.000000
    149 O2    c       0.000055     -0.000041      0.000060      0.000000
    150 O2    c       0.000387     -0.000396      0.000187      0.000000
    151 O2    c      -0.000017     -0.000002     -0.000045      0.000000
    152 O2    c       0.000101     -0.000038      0.000145      0.000000
    153 O2    c      -0.000258      0.000323      0.000072      0.000000
    154 O2    c       0.000027      0.000046      0.000089      0.000000
    155 O2    c      -0.000009      0.000006     -0.000138      0.000000
    156 O2    c      -0.000069      0.000030     -0.000384      0.000000
    157 O2    c      -0.000061     -0.000039     -0.000287      0.000000
    158 O2    c      -0.000155     -0.000206      0.002082      0.000000
    159 O2    c       0.000031     -0.000018     -0.000045      0.000000
    160 O2    c       0.000013      0.000035     -0.000094      0.000000
    161 O2    c       0.000283     -0.000431     -0.001574      0.000000
    162 O2    c      -0.000019      0.000023      0.000190      0.000000
    163 O2    c      -0.000031     -0.000038     -0.000335      0.000000
    164 O2    c      -0.000012      0.000066      0.000187      0.000000
    165 O3    c      -0.000281     -0.000004      0.000382      0.000000
    166 O2    c       0.000016     -0.000015      0.000021      0.000000
    167 O2    c      -0.000034     -0.000031      0.000068      0.000000
    168 O2    c       0.000146     -0.000074      0.000045      0.000000
    169 O2    c      -0.000205      0.000082     -0.000101      0.000000
    170 O2    c       0.000109     -0.000071     -0.000050      0.000000
    171 O2    c      -0.000022     -0.000006     -0.000042      0.000000
    172 O2    c       0.000001     -0.000013     -0.000097      0.000000
    173 O2    c      -0.000048     -0.000098     -0.000141      0.000000
    174 O2    c      -0.000092      0.000134     -0.000090      0.000000
    175 O2    c      -0.000030      0.000092     -0.000042      0.000000
    176 O3    c      -0.001091      0.000032      0.000827      0.000000
    177 O2    c       0.000004     -0.000031      0.000110      0.000000
    178 O2    c      -0.000004     -0.000025      0.000018      0.000000
    179 O2    c      -0.000014      0.000027      0.000046      0.000000
    180 O2    c      -0.000033      0.000043      0.000055      0.000000
    181 F     c       0.000025      0.000076      0.000085      0.000000
    182 F     c       0.000111      0.000009      0.000394      0.000000
    183 F     c      -0.000002      0.000008      0.000010      0.000000
    184 F     c      -0.000006     -0.000001      0.000031      0.000000
    185 F     c       0.000026      0.000008      0.000994      0.000000
    186 F     c       0.000065     -0.000001      0.000203      0.000000
    187 O2    s       0.000040      0.000090     -0.000056      0.000000
    188 O2    s       0.000002      0.000046      0.000159      0.000000
    189 O2    s      -0.000079     -0.000035      0.000373      0.000000
    190 O2    s      -0.000153      0.000106     -0.000429      0.000000
    191 O2    s      -0.000031     -0.000017      0.000173      0.000000
    192 O2    s       0.000009     -0.000033     -0.000073      0.000000
    193 O2    s      -0.000066      0.000044     -0.000058      0.000000
    194 O2    s       0.000127     -0.000079      0.000173      0.000000
    195 O2    s       0.000026     -0.000036     -0.000060      0.000000
    196 O2    s      -0.000053      0.000053      0.000084      0.000000
    197 O2    s      -0.000054     -0.000132      0.000316      0.000000
    198 O2    s      -0.000014     -0.000020     -0.000095      0.000000
    199 O3    s       0.000187      0.001038      0.000572      0.000000
    200 O3    s      -0.000273     -0.000096      0.000424      0.000000
    201 O3    s      -0.000117      0.000129      0.000040      0.000000
    202 O2    s       0.000088      0.000048     -0.000262      0.000000
    203 O2    s      -0.000001     -0.000071     -0.000129      0.000000
    204 O2    s      -0.000019     -0.000018      0.000016      0.000000
    205 O2    s       0.000118      0.000047     -0.000193      0.000000
    206 O2    s      -0.000000      0.000060      0.000234      0.000000
    207 O2    s      -0.000065     -0.000040      0.000488      0.000000
    208 O2    s      -0.000078      0.000081      0.000193      0.000000
    209 O2    s      -0.000009     -0.000049      0.000114      0.000000
    210 O2    s      -0.000018     -0.000020     -0.000020      0.000000
    211 O2    s      -0.000058      0.000023      0.000021      0.000000
    212 O2    s      -0.000172      0.000078     -0.000168      0.000000
    213 O2    s      -0.000059     -0.000008     -0.000209      0.000000
    214 O2    s       0.000008     -0.000100     -0.000123      0.000000
    215 O2    s      -0.000281      0.000080     -0.000215      0.000000
    216 O2    s       0.000010      0.000010     -0.000071      0.000000
    217 O2    s       0.000010     -0.000006      0.000050      0.000000
    218 O2    s      -0.000005      0.000095     -0.000117      0.000000
    219 O2    s       0.000089     -0.000073     -0.000089      0.000000
    220 O2    s       0.000019     -0.000036      0.000109      0.000000
    221 O2    s      -0.000079      0.000056      0.000220      0.000000
    222 O2    s      -0.000032      0.000029      0.000052      0.000000
    223 O2    s      -0.000083      0.000223      0.000260      0.000000
    224 O2    s       0.000071     -0.000007     -0.000118      0.000000
    225 O2    s       0.000085      0.000063      0.000035      0.000000
    226 O2    s       0.000060      0.000015     -0.000343      0.000000
    227 O2    s      -0.000008      0.000087      0.000191      0.000000
    228 O2    s       0.000020      0.000035     -0.000238      0.000000
    229 O2    s       0.000021     -0.000040     -0.000008      0.000000
    230 O2    s      -0.000023     -0.000134      0.000161      0.000000
    231 O2    s       0.000139     -0.000153      0.000774      0.000000
    232 O2    s      -0.000031     -0.000005     -0.000016      0.000000
    233 O2    s       0.000284     -0.000105     -0.000101      0.000000
    234 O2    s      -0.000041     -0.000001      0.000026      0.000000
    235 O2    s      -0.000025     -0.000175     -0.000010      0.000000
    236 O2    s      -0.000001     -0.000066      0.000105      0.000000
    237 O2    s      -0.000036      0.000003      0.000086      0.000000
    238 O2    s      -0.000053      0.000065      0.000288      0.000000
    239 O3    s       0.000265     -0.000007      0.002089      0.000000
    240 O3    s       0.000145     -0.000187     -0.000154      0.000000
    241 O2    s      -0.000069      0.000019     -0.000132      0.000000
    242 O2    s      -0.000002     -0.000010     -0.000036      0.000000
    243 O3    s      -0.000336      0.000163      0.000338      0.000000
    244 O2    s       0.000028      0.000014      0.000045      0.000000
    245 O2    s      -0.000026     -0.000024      0.000078      0.000000
    246 O2    s      -0.000038      0.000038      0.000000      0.000000
    247 O2    s       0.000022      0.000008      0.000038      0.000000
    248 O2    s       0.000310     -0.000232     -0.000367      0.000000
    249 O2    s      -0.000014     -0.000031     -0.000012      0.000000
    250 O2    s      -0.000014      0.000020     -0.000041      0.000000
    251 O2    s      -0.000052      0.000011      0.000295      0.000000
    252 O2    s      -0.000016      0.000051     -0.000106      0.000000
    253 O3    s       0.000351      0.000409      0.001150      0.000000
    254 O3    s       0.000004      0.000147     -0.000189      0.000000
    255 O2    s      -0.000068     -0.000060     -0.000204      0.000000
    256 O2    s      -0.000023      0.000059     -0.000448      0.000000
    257 O2    s       0.000004     -0.000012     -0.000049      0.000000
    258 O2    s       0.000118     -0.000088     -0.000554      0.000000
    259 O2    s      -0.000090      0.000055      0.000309      0.000000
    260 O2    s       0.000035     -0.000028      0.000161      0.000000
    261 O2    s       0.000212     -0.000089      0.000613      0.000000
    262 O2    s      -0.000010     -0.000000      0.000063      0.000000
    263 O2    s       0.000022      0.000021      0.000176      0.000000
    264 O2    s      -0.000070      0.000053     -0.000517      0.000000
    265 O3    s      -0.000391     -0.000562     -0.001420      0.000000
    266 O3    s      -0.000139      0.000387      0.001229      0.000000
    267 O2    s      -0.000031     -0.000190     -0.000187      0.000000
    268 O2    s      -0.000093     -0.000028     -0.000031      0.000000
    269 O2    s       0.000042     -0.000038     -0.000072      0.000000
    270 O2    s      -0.000211      0.000071     -0.000417      0.000000
    271 O2    s       0.000069      0.000135      0.000008      0.000000
    272 O2    s       0.000003     -0.000006      0.000022      0.000000
    273 O2    s      -0.000001      0.000107      0.000217      0.000000
    274 O2    s       0.000047     -0.000030     -0.000099      0.000000
    275 O2    s      -0.000050      0.000069      0.000085      0.000000
    276 O2    s      -0.000193      0.000288     -0.000334      0.000000
    277 O2    s       0.000039     -0.000022      0.000042      0.000000
    278 O2    s      -0.000049      0.000038      0.000199      0.000000
    279 O2    s      -0.000002     -0.000015      0.000038      0.000000
    280 O2    s       0.000022      0.000016     -0.000033      0.000000
    281 O2    s      -0.000037      0.000011      0.000010      0.000000
    282 O2    s      -0.000036      0.000140     -0.000163      0.000000
    283 O2    s      -0.000058      0.000030     -0.000425      0.000000
    284 O2    s       0.000149      0.000173     -0.000176      0.000000
    285 O2    s      -0.000005     -0.000017      0.000127      0.000000
    286 O2    s       0.000009     -0.000050      0.000113      0.000000
    287 O2    s       0.000060     -0.000062      0.000034      0.000000
    288 O2    s      -0.000024     -0.000005     -0.000047      0.000000
    289 O2    s       0.000199     -0.000237      0.000741      0.000000
    290 O2    s       0.000120     -0.000046     -0.000124      0.000000
    291 O3    s      -0.000360      0.000034      0.000892      0.000000
    292 O2    s      -0.000036      0.000079      0.000051      0.000000
    293 O2    s      -0.000019     -0.000007      0.000012      0.000000
    294 O2    s      -0.000140     -0.000020     -0.000167      0.000000
    295 O2    s      -0.000027      0.000001     -0.000068      0.000000
    296 O2    s      -0.000299     -0.000036     -0.000088      0.000000
    297 O2    s       0.000011      0.000007     -0.000034      0.000000
    298 O2    s       0.000004      0.000015      0.000119      0.000000
    299 O2    s      -0.000099     -0.000069     -0.000091      0.000000
    300 O2    s       0.000031      0.000068     -0.000001      0.000000
    301 O2    s      -0.000031     -0.000010      0.000102      0.000000
    302 O3    s       0.000802      0.000054      0.000116      0.000000
    303 O2    s       0.000026      0.000035     -0.000091      0.000000
    304 O2    s      -0.000003     -0.000023      0.000091      0.000000
    305 O2    s       0.000115     -0.000101      0.000170      0.000000
    306 O2    s      -0.000035      0.000007     -0.000224      0.000000
    307 F     s       0.000002     -0.000094     -0.000021      0.000000
    308 F     s      -0.000205      0.000033     -0.000852      0.000000
    309 F     s       0.000017     -0.000036     -0.000015      0.000000
    310 F     s      -0.000009      0.000005     -0.000020      0.000000
    311 F     s       0.000303     -0.000040     -0.000812      0.000000
    312 F     s      -0.000127     -0.000012     -0.000415      0.000000
--------------------------------------------------------------------------------
  Maximum abs         0.001091      0.001278      0.004886      0.000000
--------------------------------------------------------------------------------


  Time to end of optimisation =       9.4008 seconds


  Peak dynamic memory used =      19.13 MB 


  Timing analysis for GULP :

--------------------------------------------------------------------------------
  Task / Subroutine                                          Time (Seconds)
--------------------------------------------------------------------------------
  Calculation of reciprocal space energy and derivatives          0.3273
  Calculation of real space energy and derivatives                7.5941
  Calculation of three-body energy and derivatives                0.8425
  Calculation of matrix inversion                                 0.2585
--------------------------------------------------------------------------------
  Total CPU time                                                  9.4008
--------------------------------------------------------------------------------


  Dump file written as out.res                                                 
  CIF file written as out.cif                                                 


  Job Finished at 05:52.05  4th December   2016                               

