********************************************************************************
*                       GENERAL UTILITY LATTICE PROGRAM                        *
*                                 Julian Gale                                  *
*                      Nanochemistry Research Institute                        *
*                           Department of Chemistry                            *
*                    Curtin University, Western Australia                      *
********************************************************************************
* Version = 4.2.0 * Last modified =  20th January 2014                         *
********************************************************************************
*  optimise     - perform optimisation run                                     *
*  conp         - constant pressure calculation                                *
*  qok          - running with non charge neutral cell is OK                   *
********************************************************************************

  Job Started  at 01:46.35  4th December   2016                               

  Number of CPUs =     1


  Total number of configurations input =   1

********************************************************************************
*  Input for Configuration =   1                                               *
********************************************************************************

  Formula = Ge3Si57O120F6                                               

  Number of irreducible atoms/shells =     312


  Total number atoms/shells =     312

  Dimensionality = 3               :  Bulk   


  Charge on solid   =  -6.000000 =>neutralising background added


  Cartesian lattice vectors (Angstroms) :

       11.938014    0.000000    0.000000
       -6.125598   10.403668    0.000000
       -0.043816   -0.055940   29.493177

  Cell parameters (Angstroms/Degrees):

  a =      11.9380    alpha =  90.0505
  b =      12.0731    beta  =  90.0851
  c =      29.4933    gamma = 120.4892

  Initial cell volume =        3663.027068 Angs**3

  Temperature of configuration =  0.000     K 

  Pressure of configuration =         0.000 GPa 

  Fractional coordinates of asymmetric unit :

--------------------------------------------------------------------------------
   No.  Atomic       x           y          z         Charge      Occupancy
        Label      (Frac)      (Frac)     (Frac)        (e)         (Frac)  
--------------------------------------------------------------------------------
      1 Ge    c    0.699600    0.375700    0.033890     4.00000    1.000000    
      2 Si    c    0.619461 *  0.324475 *  0.364181 *   4.00000    1.000000    
      3 Si    c    0.681930 *  0.298703 *  0.699744 *   4.00000    1.000000    
      4 Ge    c    0.279861 *  0.612107 *  0.533748 *   4.00000    1.000000    
      5 Si    c    0.376145 *  0.677080 *  0.863994 *   4.00000    1.000000    
      6 Si    c    0.317758 *  0.703960 *  0.196974 *   4.00000    1.000000    
      7 Si    c    0.373097 *  0.698649 *  0.297463 *   4.00000    1.000000    
      8 Si    c    0.319663 *  0.621070 *  0.963964 *   4.00000    1.000000    
      9 Si    c    0.313575 *  0.678094 *  0.632254 *   4.00000    1.000000    
     10 Si    c    0.623314 *  0.301349 *  0.799663 *   4.00000    1.000000    
     11 Si    c    0.672032 *  0.381653 *  0.464277 *   4.00000    1.000000    
     12 Si    c    0.684317 *  0.317265 *  0.132498 *   4.00000    1.000000    
     13 Si    c    0.530577 *  0.419066 *  0.966079 *   4.00000    1.000000    
     14 Si    c    0.582692 *  0.110991 *  0.301698 *   4.00000    1.000000    
     15 Si    c    0.889001 *  0.464174 *  0.631519 *   4.00000    1.000000    
     16 Si    c    0.458792 *  0.583025 *  0.464931 *   4.00000    1.000000    
     17 Si    c    0.414100 *  0.889740 *  0.801340 *   4.00000    1.000000    
     18 Si    c    0.106260 *  0.532338 *  0.129884 *   4.00000    1.000000    
     19 Si    c    0.411749 *  0.526895 *  0.362203 *   4.00000    1.000000    
     20 Si    c    0.102540 *  0.581053 *  0.026541 *   4.00000    1.000000    
     21 Si    c    0.469772 *  0.887586 *  0.700250 *   4.00000    1.000000    
     22 Si    c    0.583028 *  0.473250 *  0.863948 *   4.00000    1.000000    
     23 Si    c    0.884986 *  0.416106 *  0.528388 *   4.00000    1.000000    
     24 Si    c    0.527410 *  0.110778 *  0.200549 *   4.00000    1.000000    
     25 Si    c    0.300948 *  0.402086 *  0.849168 *   4.00000    1.000000    
     26 Si    c    0.598935 *  0.905917 *  0.183473 *   4.00000    1.000000    
     27 Si    c    0.098376 *  0.704607 *  0.513067 *   4.00000    1.000000    
     28 Si    c    0.694427 *  0.599156 *  0.348226 *   4.00000    1.000000    
     29 Si    c    0.402892 *  0.096303 *  0.683790 *   4.00000    1.000000    
     30 Si    c    0.889517 *  0.293792 *  0.011626 *   4.00000    1.000000    
     31 Si    c    0.392485 *  0.303657 *  0.478385 *   4.00000    1.000000    
     32 Si    c    0.890672 *  0.602112 *  0.142575 *   4.00000    1.000000    
     33 Si    c    0.697596 *  0.099864 *  0.815955 *   4.00000    1.000000    
     34 Si    c    0.599151 *  0.698950 *  0.978946 *   4.00000    1.000000    
     35 Si    c    0.104986 *  0.394492 *  0.643133 *   4.00000    1.000000    
     36 Si    c    0.298902 *  0.899744 *  0.313761 *   4.00000    1.000000    
     37 Si    c    0.250198 *  0.343374 *  0.949266 *   4.00000    1.000000    
     38 Si    c    0.657212 *  0.910173 *  0.284014 *   4.00000    1.000000    
     39 Si    c    0.095646 *  0.745527 *  0.616457 *   4.00000    1.000000    
     40 Si    c    0.739494 *  0.657905 *  0.448623 *   4.00000    1.000000    
     41 Si    c    0.339323 *  0.090437 *  0.783734 *   4.00000    1.000000    
     42 Si    c    0.901630 *  0.250389 *  0.114513 *   4.00000    1.000000    
     43 Si    c    0.336637 *  0.250269 *  0.377625 *   4.00000    1.000000    
     44 Si    c    0.898211 *  0.660326 *  0.040066 *   4.00000    1.000000    
     45 Si    c    0.749763 *  0.090758 *  0.715680 *   4.00000    1.000000    
     46 Si    c    0.658337 *  0.750125 *  0.878338 *   4.00000    1.000000    
     47 Si    c    0.085954 *  0.331199 *  0.540482 *   4.00000    1.000000    
     48 Si    c    0.245865 *  0.909745 *  0.213502 *   4.00000    1.000000    
     49 Si    c    0.972127 *  0.122124 *  0.963986 *   4.00000    1.000000    
     50 Si    c    0.873685 *  0.846102 *  0.296765 *   4.00000    1.000000    
     51 Ge    c    0.151337 *  0.024593 *  0.631391 *   4.00000    1.000000    
     52 Si    c    0.019084 *  0.875822 *  0.461901 *   4.00000    1.000000    
     53 Si    c    0.122601 *  0.153922 *  0.798269 *   4.00000    1.000000    
     54 Si    c    0.846355 *  0.974585 *  0.131112 *   4.00000    1.000000    
     55 Si    c    0.118437 *  0.969193 *  0.361860 *   4.00000    1.000000    
     56 Si    c    0.848083 *  0.882805 *  0.029997 *   4.00000    1.000000    
     57 Si    c    0.028443 *  0.148820 *  0.697029 *   4.00000    1.000000    
     58 Si    c    0.878090 *  0.029281 *  0.863652 *   4.00000    1.000000    
     59 Si    c    0.142365 *  0.115261 *  0.527908 *   4.00000    1.000000    
     60 Si    c    0.965696 *  0.850680 *  0.195280 *   4.00000    1.000000    
     61 O2    c    0.928395 *  0.005403 *  0.998395 *   0.87073    1.000000    
     62 O2    c    0.001569 *  0.928718 *  0.326699 *   0.87073    1.000000    
     63 O3    c    0.057662 *  0.061106 *  0.665048 *   1.33043    1.000000    
     64 O2    c    0.067739 *  0.998808 *  0.493359 *   0.87073    1.000000    
     65 O2    c    0.997221 *  0.072556 *  0.829412 *   0.87073    1.000000    
     66 O2    c    0.930513 *  0.936477 *  0.163224 *   0.87073    1.000000    
     67 O2    c    0.335252 *  0.574905 *  0.329100 *   0.87073    1.000000    
     68 O2    c    0.423618 *  0.759625 *  0.670058 *   0.87073    1.000000    
     69 O2    c    0.231909 *  0.657452 *  0.995905 *   0.87073    1.000000    
     70 O2    c    0.660073 *  0.424017 *  0.831834 *   0.87073    1.000000    
     71 O2    c    0.576283 *  0.239383 *  0.170840 *   0.87073    1.000000    
     72 O2    c    0.756676 *  0.343207 *  0.497127 *   0.87073    1.000000    
     73 O3    c    0.567989 *  0.337959 *  0.997898 *   1.33043    1.000000    
     74 O2    c    0.768061 *  0.418617 *  0.665725 *   0.87073    1.000000    
     75 O2    c    0.659061 *  0.237125 *  0.333587 *   0.87073    1.000000    
     76 O3    c    0.412979 *  0.656694 *  0.496455 *   1.33043    1.000000    
     77 O2    c    0.231609 *  0.583691 *  0.162681 *   0.87073    1.000000    
     78 O2    c    0.336738 *  0.763482 *  0.832890 *   0.87073    1.000000    
     79 O2    c    0.126397 *  0.215232 *  0.969877 *   0.87073    1.000000    
     80 O2    c    0.783408 *  0.908973 *  0.303773 *   0.87073    1.000000    
     81 O3    c    0.091299 *  0.862399 *  0.639655 *   1.33043    1.000000    
     82 O2    c    0.864677 *  0.786879 *  0.468682 *   0.87073    1.000000    
     83 O2    c    0.213413 *  0.091126 *  0.803880 *   0.87073    1.000000    
     84 O2    c    0.906273 *  0.128366 *  0.135309 *   0.87073    1.000000    
     85 O2    c    0.210176 *  0.122980 *  0.357438 *   0.87073    1.000000    
     86 O2    c    0.916569 *  0.798089 *  0.024479 *   0.87073    1.000000    
     87 O2    c    0.873803 *  0.089353 *  0.694833 *   0.87073    1.000000    
     88 O2    c    0.785207 *  0.875918 *  0.857737 *   0.87073    1.000000    
     89 O2    c    0.067538 *  0.194829 *  0.523965 *   0.87073    1.000000    
     90 O2    c    0.121029 *  0.912073 *  0.192834 *   0.87073    1.000000    
     91 O2    c    0.918344 *  0.856256 *  0.245190 *   0.87073    1.000000    
     92 O3    c    0.129302 *  0.056614 *  0.576997 *   1.33043    1.000000    
     93 O2    c    0.935546 *  0.064598 *  0.913810 *   0.87073    1.000000    
     94 O2    c    0.075676 *  0.143070 *  0.747053 *   0.87073    1.000000    
     95 O2    c    0.857113 *  0.933373 *  0.080782 *   0.87073    1.000000    
     96 O2    c    0.056817 *  0.925801 *  0.411062 *   0.87073    1.000000    
     97 O2    c    0.901284 *  0.202386 *  0.974096 *   0.87073    1.000000    
     98 O2    c    0.793267 *  0.695801 *  0.309738 *   0.87073    1.000000    
     99 O3    c    0.314060 *  0.103509 *  0.644137 *   1.33043    1.000000    
    100 O2    c    0.086874 *  0.794656 *  0.475208 *   0.87073    1.000000    
    101 O2    c    0.203402 *  0.304640 *  0.810517 *   0.87073    1.000000    
    102 O2    c    0.694830 *  0.903986 *  0.144802 *   0.87073    1.000000    
    103 O2    c    0.201574 *  0.899888 *  0.352101 *   0.87073    1.000000    
    104 O2    c    0.695718 *  0.797930 *  0.017454 *   0.87073    1.000000    
    105 O2    c    0.103111 *  0.297722 *  0.681408 *   0.87073    1.000000    
    106 O2    c    0.795558 *  0.099740 *  0.854234 *   0.87073    1.000000    
    107 O2    c    0.295280 *  0.206390 *  0.517045 *   0.87073    1.000000    
    108 O2    c    0.895000 *  0.701356 *  0.180526 *   0.87073    1.000000    
    109 O2    c    0.316646 *  0.643886 *  0.246605 *   0.87073    1.000000    
    110 O3    c    0.376847 *  0.686161 *  0.584257 *   1.33043    1.000000    
    111 O2    c    0.317045 *  0.676447 *  0.913850 *   0.87073    1.000000    
    112 O2    c    0.682906 *  0.358354 *  0.749455 *   0.87073    1.000000    
    113 O3    c    0.612477 *  0.303216 *  0.085380 *   1.33043    1.000000    
    114 O2    c    0.677411 *  0.325964 *  0.414430 *   0.87073    1.000000    
    115 O2    c    0.372348 *  0.333556 *  0.966378 *   0.87073    1.000000    
    116 O2    c    0.669355 *  0.041645 *  0.303510 *   0.87073    1.000000    
    117 O2    c    0.963097 *  0.618631 *  0.632403 *   0.87073    1.000000    
    118 O2    c    0.617691 *  0.668556 *  0.465720 *   0.87073    1.000000    
    119 O2    c    0.327478 *  0.958971 *  0.802935 *   0.87073    1.000000    
    120 O2    c    0.034075 *  0.376957 *  0.131541 *   0.87073    1.000000    
    121 O2    c    0.326323 *  0.370788 *  0.358456 *   0.87073    1.000000    
    122 O2    c    0.031958 *  0.665113 *  0.024194 *   0.87073    1.000000    
    123 O2    c    0.626967 *  0.958911 *  0.697005 *   0.87073    1.000000    
    124 O2    c    0.668703 *  0.629079 *  0.859760 *   0.87073    1.000000    
    125 O2    c    0.953440 *  0.329879 *  0.525629 *   0.87073    1.000000    
    126 O2    c    0.370329 *  0.041605 *  0.195914 *   0.87073    1.000000    
    127 O3    c    0.754326 *  0.283703 *  0.002671 *   1.33043    1.000000    
    128 O2    c    0.694041 *  0.465666 *  0.340315 *   0.87073    1.000000    
    129 O2    c    0.539090 *  0.229650 *  0.676665 *   0.87073    1.000000    
    130 O3    c    0.230325 *  0.709043 *  0.503391 *   1.33043    1.000000    
    131 O2    c    0.302158 *  0.535475 *  0.840280 *   0.87073    1.000000    
    132 O2    c    0.462067 *  0.773604 *  0.174692 *   0.87073    1.000000    
    133 O2    c    0.297356 *  0.765558 *  0.319896 *   0.87073    1.000000    
    134 O2    c    0.464162 *  0.698706 *  0.986218 *   0.87073    1.000000    
    135 O2    c    0.238574 *  0.529095 *  0.650685 *   0.87073    1.000000    
    136 O2    c    0.697841 *  0.233408 *  0.822339 *   0.87073    1.000000    
    137 O2    c    0.527507 *  0.304281 *  0.486270 *   0.87073    1.000000    
    138 O2    c    0.758352 *  0.466644 *  0.150485 *   0.87073    1.000000    
    139 O3    c    0.771515 *  0.546260 *  0.018983 *   1.33043    1.000000    
    140 O2    c    0.462136 *  0.247725 *  0.358546 *   0.87073    1.000000    
    141 O2    c    0.757590 *  0.219333 *  0.696047 *   0.87073    1.000000    
    142 O3    c    0.211393 *  0.444708 *  0.518301 *   1.33043    1.000000    
    143 O2    c    0.533518 *  0.753260 *  0.858755 *   0.87073    1.000000    
    144 O2    c    0.241157 *  0.782786 *  0.193305 *   0.87073    1.000000    
    145 O2    c    0.530048 *  0.783023 *  0.302457 *   0.87073    1.000000    
    146 O2    c    0.246192 *  0.465961 *  0.969476 *   0.87073    1.000000    
    147 O2    c    0.220296 *  0.740586 *  0.634002 *   0.87073    1.000000    
    148 O2    c    0.466054 *  0.217709 *  0.802716 *   0.87073    1.000000    
    149 O2    c    0.745501 *  0.536973 *  0.469601 *   0.87073    1.000000    
    150 O2    c    0.778118 *  0.254721 *  0.133716 *   0.87073    1.000000    
    151 O2    c    0.226762 *  0.327474 *  0.894988 *   0.87073    1.000000    
    152 O2    c    0.674216 *  0.909819 *  0.229631 *   0.87073    1.000000    
    153 O2    c    0.097712 *  0.767416 *  0.562201 *   0.87073    1.000000    
    154 O2    c    0.765213 *  0.674201 *  0.394472 *   0.87073    1.000000    
    155 O2    c    0.321869 *  0.089669 *  0.729113 *   0.87073    1.000000    
    156 O2    c    0.898305 *  0.233927 *  0.060320 *   0.87073    1.000000    
    157 O2    c    0.317924 *  0.232643 *  0.431889 *   0.87073    1.000000    
    158 O2    c    0.893262 *  0.668727 *  0.095298 *   0.87073    1.000000    
    159 O2    c    0.767962 *  0.093163 *  0.769959 *   0.87073    1.000000    
    160 O2    c    0.675676 *  0.768717 *  0.932669 *   0.87073    1.000000    
    161 O2    c    0.099394 *  0.325930 *  0.595655 *   0.87073    1.000000    
    162 O2    c    0.227805 *  0.906455 *  0.267782 *   0.87073    1.000000    
    163 O2    c    0.582101 *  0.560344 *  0.988313 *   0.87073    1.000000    
    164 O2    c    0.440115 *  0.022914 *  0.323863 *   0.87073    1.000000    
    165 O2    c    0.981495 *  0.412694 *  0.649870 *   0.87073    1.000000    
    166 O2    c    0.408764 *  0.441881 *  0.487056 *   0.87073    1.000000    
    167 O2    c    0.555689 *  0.976703 *  0.824684 *   0.87073    1.000000    
    168 O2    c    0.013721 *  0.582646 *  0.149183 *   0.87073    1.000000    
    169 O2    c    0.554542 *  0.585547 *  0.339403 *   0.87073    1.000000    
    170 O2    c    0.012601 *  0.439142 *  0.005459 *   0.87073    1.000000    
    171 O2    c    0.411494 *  0.968203 *  0.675551 *   0.87073    1.000000    
    172 O2    c    0.440224 *  0.413765 *  0.841000 *   0.87073    1.000000    
    173 O2    c    0.974535 *  0.558968 *  0.508371 *   0.87073    1.000000    
    174 O2    c    0.587797 *  0.032353 *  0.175574 *   0.87073    1.000000    
    175 O2    c    0.581452 *  0.163004 *  0.251144 *   0.87073    1.000000    
    176 O2    c    0.839060 *  0.415083 *  0.580397 *   0.87073    1.000000    
    177 O2    c    0.585532 *  0.424663 *  0.914835 *   0.87073    1.000000    
    178 O2    c    0.415544 *  0.836841 *  0.750852 *   0.87073    1.000000    
    179 O2    c    0.149541 *  0.579046 *  0.078250 *   0.87073    1.000000    
    180 O2    c    0.408274 *  0.576892 *  0.412764 *   0.87073    1.000000    
    181 F     c    0.447815 *  0.902936 *  0.247406 *   0.56000    1.000000    
    182 F     c    0.134806 *  0.556545 *  0.570892 *   0.56000    1.000000    
    183 F     c    0.447203 *  0.552619 *  0.912698 *   0.56000    1.000000    
    184 F     c    0.548536 *  0.098181 *  0.748314 *   0.56000    1.000000    
    185 F     c    0.851560 *  0.435423 *  0.069738 *   0.56000    1.000000    
    186 F     c    0.547299 *  0.449042 *  0.412274 *   0.56000    1.000000    
    187 O2    s    0.924202 *  0.004721 *  0.998083 *  -2.87073    1.000000    
    188 O2    s    0.000180 *  0.923896 *  0.327255 *  -2.87073    1.000000    
    189 O3    s    0.062605 *  0.067312 *  0.665572 *  -3.33043    1.000000    
    190 O2    s    0.070688 *  0.997904 *  0.493683 *  -2.87073    1.000000    
    191 O2    s    0.997976 *  0.076845 *  0.829741 *  -2.87073    1.000000    
    192 O2    s    0.925161 *  0.931278 *  0.163217 *  -2.87073    1.000000    
    193 O2    s    0.346812 *  0.582885 *  0.329127 *  -2.87073    1.000000    
    194 O2    s    0.416990 *  0.764504 *  0.669265 *  -2.87073    1.000000    
    195 O2    s    0.227203 *  0.645713 *  0.995881 *  -2.87073    1.000000    
    196 O2    s    0.648489 *  0.416242 *  0.831715 *  -2.87073    1.000000    
    197 O2    s    0.582552 *  0.234019 *  0.169914 *  -2.87073    1.000000    
    198 O2    s    0.761803 *  0.354891 *  0.497132 *  -2.87073    1.000000    
    199 O3    s    0.573857 *  0.349368 *  0.997238 *  -3.33043    1.000000    
    200 O2    s    0.772213 *  0.411375 *  0.665540 *  -2.87073    1.000000    
    201 O2    s    0.647129 *  0.232761 *  0.333348 *  -2.87073    1.000000    
    202 O3    s    0.408820 *  0.645530 *  0.495594 *  -3.33043    1.000000    
    203 O2    s    0.226975 *  0.590247 *  0.162654 *  -2.87073    1.000000    
    204 O2    s    0.348776 *  0.767910 *  0.832747 *  -2.87073    1.000000    
    205 O2    s    0.122425 *  0.218381 *  0.967124 *  -2.87073    1.000000    
    206 O2    s    0.779821 *  0.902432 *  0.301002 *  -2.87073    1.000000    
    207 O3    s    0.096581 *  0.863596 *  0.636654 *  -3.33043    1.000000    
    208 O2    s    0.868626 *  0.783326 *  0.465920 *  -2.87073    1.000000    
    209 O2    s    0.216897 *  0.097689 *  0.801211 *  -2.87073    1.000000    
    210 O2    s    0.899546 *  0.124946 *  0.132746 *  -2.87073    1.000000    
    211 O2    s    0.213412 *  0.119667 *  0.359969 *  -2.87073    1.000000    
    212 O2    s    0.907354 *  0.793328 *  0.026621 *  -2.87073    1.000000    
    213 O2    s    0.877374 *  0.096008 *  0.697285 *  -2.87073    1.000000    
    214 O2    s    0.782057 *  0.879330 *  0.860457 *  -2.87073    1.000000    
    215 O2    s    0.077319 *  0.200534 *  0.526086 *  -2.87073    1.000000    
    216 O2    s    0.117281 *  0.905225 *  0.195212 *  -2.87073    1.000000    
    217 O2    s    0.918736 *  0.854465 *  0.245276 *  -2.87073    1.000000    
    218 O3    s    0.132676 *  0.060031 *  0.576601 *  -3.33043    1.000000    
    219 O2    s    0.933134 *  0.067054 *  0.913756 *  -2.87073    1.000000    
    220 O2    s    0.075649 *  0.144971 *  0.747201 *  -2.87073    1.000000    
    221 O2    s    0.854880 *  0.932475 *  0.080878 *  -2.87073    1.000000    
    222 O2    s    0.059582 *  0.925099 *  0.411202 *  -2.87073    1.000000    
    223 O2    s    0.907817 *  0.203151 *  0.976906 *  -2.87073    1.000000    
    224 O2    s    0.791855 *  0.702081 *  0.312239 *  -2.87073    1.000000    
    225 O3    s    0.309034 *  0.096270 *  0.646875 *  -3.33043    1.000000    
    226 O2    s    0.080616 *  0.793959 *  0.477780 *  -2.87073    1.000000    
    227 O2    s    0.204652 *  0.298362 *  0.813144 *  -2.87073    1.000000    
    228 O2    s    0.701183 *  0.911704 *  0.147288 *  -2.87073    1.000000    
    229 O2    s    0.202822 *  0.907140 *  0.349182 *  -2.87073    1.000000    
    230 O2    s    0.702073 *  0.796871 *  0.014866 *  -2.87073    1.000000    
    231 O2    s    0.095507 *  0.292238 *  0.679027 *  -2.87073    1.000000    
    232 O2    s    0.794136 *  0.092436 *  0.851299 *  -2.87073    1.000000    
    233 O2    s    0.289023 *  0.206641 *  0.514293 *  -2.87073    1.000000    
    234 O2    s    0.902028 *  0.706864 *  0.178134 *  -2.87073    1.000000    
    235 O2    s    0.322356 *  0.655441 *  0.246607 *  -2.87073    1.000000    
    236 O3    s    0.364100 *  0.680591 *  0.586021 *  -3.33043    1.000000    
    237 O2    s    0.323351 *  0.670783 *  0.913893 *  -2.87073    1.000000    
    238 O2    s    0.676873 *  0.346587 *  0.749385 *  -2.87073    1.000000    
    239 O3    s    0.625573 *  0.309486 *  0.086666 *  -3.33043    1.000000    
    240 O2    s    0.670942 *  0.331544 *  0.414389 *  -2.87073    1.000000    
    241 O2    s    0.374844 *  0.343383 *  0.964418 *  -2.87073    1.000000    
    242 O2    s    0.659252 *  0.035064 *  0.301296 *  -2.87073    1.000000    
    243 O2    s    0.969003 *  0.615247 *  0.630624 *  -2.87073    1.000000    
    244 O2    s    0.615298 *  0.658863 *  0.463742 *  -2.87073    1.000000    
    245 O2    s    0.337595 *  0.965543 *  0.800760 *  -2.87073    1.000000    
    246 O2    s    0.027886 *  0.380031 *  0.129608 *  -2.87073    1.000000    
    247 O2    s    0.336076 *  0.374147 *  0.360830 *  -2.87073    1.000000    
    248 O2    s    0.026133 *  0.655733 *  0.026018 *  -2.87073    1.000000    
    249 O2    s    0.623653 *  0.965540 *  0.699340 *  -2.87073    1.000000    
    250 O2    s    0.658856 *  0.625733 *  0.862122 *  -2.87073    1.000000    
    251 O2    s    0.959594 *  0.339058 *  0.527425 *  -2.87073    1.000000    
    252 O2    s    0.373272 *  0.034661 *  0.198276 *  -2.87073    1.000000    
    253 O3    s    0.765047 *  0.290820 *  0.005755 *  -3.33043    1.000000    
    254 O2    s    0.686484 *  0.465085 *  0.343580 *  -2.87073    1.000000    
    255 O2    s    0.539883 *  0.222931 *  0.679898 *  -2.87073    1.000000    
    256 O3    s    0.219497 *  0.702074 *  0.506531 *  -3.33043    1.000000    
    257 O2    s    0.309575 *  0.536066 *  0.843642 *  -2.87073    1.000000    
    258 O2    s    0.461353 *  0.780141 *  0.177934 *  -2.87073    1.000000    
    259 O2    s    0.305227 *  0.772752 *  0.316921 *  -2.87073    1.000000    
    260 O2    s    0.463200 *  0.690732 *  0.983140 *  -2.87073    1.000000    
    261 O2    s    0.231601 *  0.529151 *  0.648059 *  -2.87073    1.000000    
    262 O2    s    0.690223 *  0.226381 *  0.819328 *  -2.87073    1.000000    
    263 O2    s    0.528441 *  0.312179 *  0.483155 *  -2.87073    1.000000    
    264 O2    s    0.765226 *  0.466524 *  0.147840 *  -2.87073    1.000000    
    265 O3    s    0.781232 *  0.548499 *  0.022159 *  -3.33043    1.000000    
    266 O2    s    0.464979 *  0.256021 *  0.361139 *  -2.87073    1.000000    
    267 O2    s    0.748718 *  0.213891 *  0.698526 *  -2.87073    1.000000    
    268 O3    s    0.202072 *  0.443268 *  0.521679 *  -3.33043    1.000000    
    269 O2    s    0.530605 *  0.744947 *  0.861364 *  -2.87073    1.000000    
    270 O2    s    0.249676 *  0.788094 *  0.195815 *  -2.87073    1.000000    
    271 O2    s    0.527382 *  0.788092 *  0.299944 *  -2.87073    1.000000    
    272 O2    s    0.254314 *  0.469108 *  0.966789 *  -2.87073    1.000000    
    273 O2    s    0.215908 *  0.734729 *  0.631875 *  -2.87073    1.000000    
    274 O2    s    0.468899 *  0.212619 *  0.800342 *  -2.87073    1.000000    
    275 O2    s    0.737164 *  0.533551 *  0.466865 *  -2.87073    1.000000    
    276 O2    s    0.782459 *  0.260569 *  0.131464 *  -2.87073    1.000000    
    277 O2    s    0.236965 *  0.336981 *  0.895859 *  -2.87073    1.000000    
    278 O2    s    0.664464 *  0.909445 *  0.230506 *  -2.87073    1.000000    
    279 O2    s    0.097607 *  0.759041 *  0.562983 *  -2.87073    1.000000    
    280 O2    s    0.755063 *  0.664538 *  0.395245 *  -2.87073    1.000000    
    281 O2    s    0.331796 *  0.090356 *  0.730148 *  -2.87073    1.000000    
    282 O2    s    0.897757 *  0.241624 *  0.061338 *  -2.87073    1.000000    
    283 O2    s    0.327648 *  0.241882 *  0.430978 *  -2.87073    1.000000    
    284 O2    s    0.893380 *  0.660471 *  0.095017 *  -2.87073    1.000000    
    285 O2    s    0.758682 *  0.093600 *  0.768963 *  -2.87073    1.000000    
    286 O2    s    0.665911 *  0.759527 *  0.931719 *  -2.87073    1.000000    
    287 O2    s    0.098766 *  0.333862 *  0.595353 *  -2.87073    1.000000    
    288 O2    s    0.237083 *  0.906101 *  0.266749 *  -2.87073    1.000000    
    289 O2    s    0.578444 *  0.561176 *  0.984992 *  -2.87073    1.000000    
    290 O2    s    0.439875 *  0.018685 *  0.320428 *  -2.87073    1.000000    
    291 O2    s    0.984978 *  0.416379 *  0.647156 *  -2.87073    1.000000    
    292 O2    s    0.412270 *  0.440725 *  0.483831 *  -2.87073    1.000000    
    293 O2    s    0.556223 *  0.981123 *  0.821289 *  -2.87073    1.000000    
    294 O2    s    0.010393 *  0.579208 *  0.146401 *  -2.87073    1.000000    
    295 O2    s    0.554727 *  0.580745 *  0.342711 *  -2.87073    1.000000    
    296 O2    s    0.009501 *  0.439532 *  0.008349 *  -2.87073    1.000000    
    297 O2    s    0.416692 *  0.973543 *  0.678950 *  -2.87073    1.000000    
    298 O2    s    0.440210 *  0.418887 *  0.844272 *  -2.87073    1.000000    
    299 O2    s    0.977671 *  0.558395 *  0.511022 *  -2.87073    1.000000    
    300 O2    s    0.582636 *  0.026720 *  0.178969 *  -2.87073    1.000000    
    301 O2    s    0.575821 *  0.151925 *  0.251107 *  -2.87073    1.000000    
    302 O2    s    0.848986 *  0.420341 *  0.580481 *  -2.87073    1.000000    
    303 O2    s    0.579833 *  0.429310 *  0.914561 *  -2.87073    1.000000    
    304 O2    s    0.421147 *  0.847792 *  0.750779 *  -2.87073    1.000000    
    305 O2    s    0.140161 *  0.574286 *  0.078460 *  -2.87073    1.000000    
    306 O2    s    0.413587 *  0.572139 *  0.412536 *  -2.87073    1.000000    
    307 F     s    0.447552 *  0.902608 *  0.247239 *  -1.56000    1.000000    
    308 F     s    0.145266 *  0.560363 *  0.568310 *  -1.56000    1.000000    
    309 F     s    0.446594 *  0.553114 *  0.912532 *  -1.56000    1.000000    
    310 F     s    0.548718 *  0.098625 *  0.748110 *  -1.56000    1.000000    
    311 F     s    0.841457 *  0.431454 *  0.067502 *  -1.56000    1.000000    
    312 F     s    0.548035 *  0.448534 *  0.412149 *  -1.56000    1.000000    
--------------------------------------------------------------------------------



********************************************************************************
*  General input information                                                   *
********************************************************************************

  Species output for all configurations : 

--------------------------------------------------------------------------------
  Species    Type    Atomic    Atomic    Charge       Radii (Angs)     Library
                     Number     Mass       (e)     Cova   Ionic  VDW   Symbol
--------------------------------------------------------------------------------
    Si       Core       14      28.09   4.000000   1.200  0.000  2.100          
    O1       Core        8      16.00   1.733957   0.730  0.000  1.360          
    O1       Shell       8       0.00  -3.733957   0.730  0.000  1.360          
    O2       Core        8      16.00   0.870733   0.730  0.000  1.360          
    O2       Shell       8       0.00  -2.870733   0.730  0.000  1.360          
    O3       Core        8      16.00   1.330431   0.730  0.000  1.360          
    O3       Shell       8       0.00  -3.330431   0.730  0.000  1.360          
    F        Core        9      19.00   0.560000   0.710  0.000  1.300          
    F        Shell       9       0.00  -1.560000   0.710  0.000  1.300          
    Ge       Core       32      72.61   4.000000   1.170  0.000  1.750          
--------------------------------------------------------------------------------


  Lattice summation method               =    Ewald          (3-D)
                                         =    Parry          (2-D)
                                         =    Saunders et al (1-D)
  Accuracy factor for lattice sums       =   12.000


  Time limit = Infinity

  Maximum range for interatomic potentials =        16.000000 Angstroms

  Taper potentials to zero over   1.0000 Angstroms using polynomial

  General interatomic potentials :

--------------------------------------------------------------------------------
Atom  Types   Potential         A         B         C         D     Cutoffs(Ang)
  1     2                                                            Min    Max 
--------------------------------------------------------------------------------
Si   c O1   s Buckingham    0.132E+04 0.318      10.1      0.00     0.000 16.000
Si   c O2   s Buckingham    0.132E+04 0.318      10.1      0.00     0.000 16.000
Si   c O3   s Buckingham    0.132E+04 0.318      10.1      0.00     0.000 16.000
Ge   c O1   s Buckingham    0.150E+04 0.326      16.8      0.00     0.000 16.000
Ge   c O2   s Buckingham    0.150E+04 0.326      16.8      0.00     0.000 16.000
Ge   c O3   s Buckingham    0.150E+04 0.326      16.8      0.00     0.000 16.000
O1   s O1   s Buckingham    0.228E+05 0.149      10.9      0.00     0.000 16.000
O1   s O2   s Buckingham    0.228E+05 0.149      10.9      0.00     0.000 16.000
O1   s O3   s Buckingham    0.228E+05 0.149      10.9      0.00     0.000 16.000
O2   s O2   s Buckingham    0.228E+05 0.149      10.9      0.00     0.000 16.000
O2   s O3   s Buckingham    0.228E+05 0.149      10.9      0.00     0.000 16.000
O3   s O3   s Buckingham    0.228E+05 0.149      10.9      0.00     0.000 16.000
Si   c F    s Buckingham     977.     0.282      0.00      0.00     0.000 16.000
Ge   c F    s Buckingham     681.     0.320      0.00      0.00     0.000 16.000
F    s F    s Buckingham     540.     0.262      0.00      0.00     0.000 16.000
O1   s F    s Buckingham    0.168E+04 0.268      0.00      0.00     0.000 16.000
O2   s F    s Buckingham    0.168E+04 0.268      0.00      0.00     0.000 16.000
O3   s F    s Buckingham    0.168E+04 0.268      0.00      0.00     0.000 16.000
O2   c O2   s Spring (c-s)   76.0      0.00      0.00      0.00     0.000  0.800
O3   c O3   s Spring (c-s)   128.      0.00      0.00      0.00     0.000  0.800
O1   c O1   s Spring (c-s)   180.      0.00      0.00      0.00     0.000  0.800
F    c F    s Spring (c-s)   33.5      0.00      0.00      0.00     0.000  0.800
--------------------------------------------------------------------------------

  General Three-body potentials :

  Harmonic form:

--------------------------------------------------------------------------------
Atom    Atom    Atom           Force Constants            Theta     Cutoffs  
  1       2       3     (eVrad**-2/eVrad**-3/eVrad**-4)   (deg)  1-2  1-3  2-3
--------------------------------------------------------------------------------
Si    c O1    s O1    s  1.261        0.0000    0.0000   109.470 0.00 0.00 0.00
                                                                 1.90 1.90 3.50
Si    c O1    s O2    s  1.261        0.0000    0.0000   109.470 0.00 0.00 0.00
                                                                 1.90 1.90 3.50
Si    c O2    s O2    s  1.261        0.0000    0.0000   109.470 0.00 0.00 0.00
                                                                 1.90 1.90 3.50
--------------------------------------------------------------------------------

********************************************************************************
*  Output for configuration   1                                                *
********************************************************************************


  Components of energy : 

--------------------------------------------------------------------------------
  Interatomic potentials     =        2063.01641508 eV
  Three-body potentials      =           0.45618662 eV
  Monopole - monopole (real) =       -6614.34046935 eV
  Monopole - monopole (recip)=       -3169.55592996 eV
  Monopole - monopole (total)=       -9783.89639931 eV
  Neutralising energy        =          -6.45637235 eV
--------------------------------------------------------------------------------
  Total lattice energy       =       -7726.88016997 eV
--------------------------------------------------------------------------------
  Total lattice energy       =         -745525.8202 kJ/(mole unit cells)
--------------------------------------------------------------------------------


  Number of variables =      939

  Maximum number of calculations  =          1000
  Maximum Hessian update interval =            10
  Maximum step size               =   1.000000000
  Maximum parameter tolerance     =   0.000010000
  Maximum function  tolerance     =   0.000010000
  Maximum gradient  tolerance     =   0.001000000
  Maximum gradient  component     =   0.010000000

  Symmetry not applied to optimisation

  Cell parameters to be optimised using strains

  Newton-Raphson optimiser to be used

  BFGS hessian update to be used

  Dumpfile to be written after every cycle

  Start of bulk optimisation :

  Cycle:      0 Energy:     -7726.880170  Gnorm:      0.006504  CPU:    1.060
  ** Hessian calculated **
  Cycle:      1 Energy:     -7727.001326  Gnorm:      0.005873  CPU:    3.299
  Cycle:      2 Energy:     -7727.010766  Gnorm:      0.002328  CPU:    4.682
  Cycle:      3 Energy:     -7727.010899  Gnorm:      0.000336  CPU:    6.066
  Cycle:      4 Energy:     -7727.010913  Gnorm:      0.000151  CPU:    7.450
  Cycle:      5 Energy:     -7727.010913  Gnorm:      0.000026  CPU:    8.834


  **** Optimisation achieved ****


  Final energy =   -7727.01091311 eV
  Final Gnorm  =       0.00000336

  Components of energy : 

--------------------------------------------------------------------------------
  Interatomic potentials     =        2063.40589384 eV
  Three-body potentials      =           0.45671917 eV
  Monopole - monopole (real) =       -6615.49013042 eV
  Monopole - monopole (recip)=       -3168.92829805 eV
  Monopole - monopole (total)=       -9784.41842847 eV
  Neutralising energy        =          -6.45509765 eV
--------------------------------------------------------------------------------
  Total lattice energy       =       -7727.01091311 eV
--------------------------------------------------------------------------------
  Total lattice energy       =         -745538.4349 kJ/(mole unit cells)
--------------------------------------------------------------------------------

  Final fractional coordinates of atoms :

--------------------------------------------------------------------------------
   No.  Atomic        x           y          z          Radius
        Label       (Frac)      (Frac)     (Frac)       (Angs) 
--------------------------------------------------------------------------------
     1  Ge    c     0.699600    0.375700    0.033890    0.000000
     2  Si    c     0.590596    0.303315    0.363950    0.000000
     3  Si    c     0.663549    0.285487    0.699325    0.000000
     4  Ge    c     0.255951    0.596759    0.533170    0.000000
     5  Si    c     0.362263    0.666385    0.864009    0.000000
     6  Si    c     0.294247    0.688067    0.197549    0.000000
     7  Si    c     0.345205    0.679083    0.298038    0.000000
     8  Si    c     0.307636    0.610100    0.964242    0.000000
     9  Si    c     0.295404    0.666514    0.631469    0.000000
    10  Si    c     0.607275    0.289913    0.799338    0.000000
    11  Si    c     0.645024    0.360745    0.464033    0.000000
    12  Si    c     0.663418    0.302501    0.131856    0.000000
    13  Si    c     0.522892    0.410956    0.966102    0.000000
    14  Si    c     0.554109    0.091042    0.301316    0.000000
    15  Si    c     0.869889    0.450774    0.631083    0.000000
    16  Si    c     0.429687    0.559847    0.464676    0.000000
    17  Si    c     0.398702    0.878285    0.800990    0.000000
    18  Si    c     0.085851    0.516881    0.130726    0.000000
    19  Si    c     0.381524    0.504190    0.362022    0.000000
    20  Si    c     0.091886    0.572355    0.027546    0.000000
    21  Si    c     0.453183    0.875715    0.699594    0.000000
    22  Si    c     0.571298    0.464691    0.863410    0.000000
    23  Si    c     0.861102    0.400026    0.528042    0.000000
    24  Si    c     0.502089    0.093854    0.199723    0.000000
    25  Si    c     0.288912    0.392512    0.848996    0.000000
    26  Si    c     0.574560    0.889231    0.183282    0.000000
    27  Si    c     0.074228    0.688497    0.512435    0.000000
    28  Si    c     0.664402    0.577217    0.347620    0.000000
    29  Si    c     0.385061    0.083750    0.683012    0.000000
    30  Si    c     0.880482    0.285190    0.011286    0.000000
    31  Si    c     0.364758    0.281170    0.477759    0.000000
    32  Si    c     0.870360    0.586841    0.143129    0.000000
    33  Si    c     0.681933    0.088564    0.815677    0.000000
    34  Si    c     0.587859    0.689569    0.978279    0.000000
    35  Si    c     0.087214    0.382454    0.642218    0.000000
    36  Si    c     0.270414    0.879709    0.313829    0.000000
    37  Si    c     0.241356    0.333877    0.949354    0.000000
    38  Si    c     0.628933    0.890487    0.284169    0.000000
    39  Si    c     0.075878    0.731926    0.615917    0.000000
    40  Si    c     0.711042    0.636430    0.448007    0.000000
    41  Si    c     0.323746    0.078867    0.783280    0.000000
    42  Si    c     0.881898    0.236136    0.114573    0.000000
    43  Si    c     0.307558    0.228272    0.377066    0.000000
    44  Si    c     0.891582    0.657312    0.040895    0.000000
    45  Si    c     0.733037    0.079037    0.715224    0.000000
    46  Si    c     0.645115    0.740624    0.877544    0.000000
    47  Si    c     0.063058    0.315738    0.539669    0.000000
    48  Si    c     0.220663    0.892112    0.213283    0.000000
    49  Si    c     0.962489    0.113576    0.963569    0.000000
    50  Si    c     0.844244    0.824976    0.296728    0.000000
    51  Ge    c     0.131652    0.010591    0.631408    0.000000
    52  Si    c     0.989803    0.856824    0.462046    0.000000
    53  Si    c     0.109013    0.145009    0.798148    0.000000
    54  Si    c     0.823665    0.959946    0.131382    0.000000
    55  Si    c     0.089223    0.948346    0.361805    0.000000
    56  Si    c     0.835570    0.875228    0.030141    0.000000
    57  Si    c     0.012511    0.138220    0.697006    0.000000
    58  Si    c     0.864103    0.019921    0.863513    0.000000
    59  Si    c     0.114191    0.095773    0.527788    0.000000
    60  Si    c     0.940350    0.832935    0.195600    0.000000
    61  O2    c     0.917030    0.998156    0.998783    0.000000
    62  O2    c     0.971239    0.905658    0.327087    0.000000
    63  O3    c     0.041230    0.048204    0.666254    0.000000
    64  O2    c     0.034484    0.977488    0.494347    0.000000
    65  O2    c     0.983800    0.064672    0.829472    0.000000
    66  O2    c     0.905341    0.918813    0.163470    0.000000
    67  O2    c     0.305872    0.554231    0.329327    0.000000
    68  O2    c     0.406056    0.748234    0.669108    0.000000
    69  O2    c     0.221572    0.646948    0.996954    0.000000
    70  O2    c     0.646072    0.413395    0.831093    0.000000
    71  O2    c     0.552632    0.222178    0.169411    0.000000
    72  O2    c     0.732018    0.325617    0.497146    0.000000
    73  O3    c     0.565727    0.334670    0.997588    0.000000
    74  O2    c     0.749628    0.405930    0.665492    0.000000
    75  O2    c     0.630379    0.216464    0.333278    0.000000
    76  O3    c     0.387818    0.637084    0.495938    0.000000
    77  O2    c     0.209610    0.566651    0.163906    0.000000
    78  O2    c     0.321960    0.752335    0.832850    0.000000
    79  O2    c     0.117014    0.204395    0.969342    0.000000
    80  O2    c     0.754591    0.888341    0.304012    0.000000
    81  O3    c     0.072066    0.848544    0.639323    0.000000
    82  O2    c     0.835506    0.765380    0.468093    0.000000
    83  O2    c     0.198006    0.080101    0.803376    0.000000
    84  O2    c     0.883994    0.113385    0.135978    0.000000
    85  O2    c     0.181286    0.101707    0.356629    0.000000
    86  O2    c     0.909439    0.794948    0.026092    0.000000
    87  O2    c     0.857839    0.078553    0.694631    0.000000
    88  O2    c     0.771900    0.866979    0.857109    0.000000
    89  O2    c     0.043040    0.178751    0.523479    0.000000
    90  O2    c     0.095684    0.894898    0.192945    0.000000
    91  O2    c     0.891020    0.837507    0.245293    0.000000
    92  O3    c     0.102794    0.040333    0.577433    0.000000
    93  O2    c     0.922058    0.054661    0.913726    0.000000
    94  O2    c     0.061032    0.136006    0.747172    0.000000
    95  O2    c     0.837603    0.922997    0.080793    0.000000
    96  O2    c     0.028764    0.908711    0.411380    0.000000
    97  O2    c     0.894358    0.196356    0.973571    0.000000
    98  O2    c     0.762538    0.674222    0.308951    0.000000
    99  O3    c     0.294992    0.089241    0.643317    0.000000
   100  O2    c     0.060230    0.777872    0.474901    0.000000
   101  O2    c     0.191321    0.295207    0.810496    0.000000
   102  O2    c     0.671678    0.889152    0.144642    0.000000
   103  O2    c     0.172261    0.878882    0.352127    0.000000
   104  O2    c     0.684839    0.788718    0.016493    0.000000
   105  O2    c     0.086976    0.286130    0.680438    0.000000
   106  O2    c     0.780371    0.089198    0.854059    0.000000
   107  O2    c     0.267106    0.182755    0.516189    0.000000
   108  O2    c     0.871114    0.683811    0.181152    0.000000
   109  O2    c     0.290825    0.626039    0.247030    0.000000
   110  O3    c     0.355878    0.673231    0.583044    0.000000
   111  O2    c     0.303213    0.665035    0.914060    0.000000
   112  O2    c     0.665413    0.345866    0.748865    0.000000
   113  O3    c     0.601644    0.296727    0.083753    0.000000
   114  O2    c     0.649565    0.304883    0.414143    0.000000
   115  O2    c     0.364153    0.325237    0.966573    0.000000
   116  O2    c     0.640794    0.021792    0.303305    0.000000
   117  O2    c     0.944084    0.604938    0.632119    0.000000
   118  O2    c     0.588466    0.645389    0.465034    0.000000
   119  O2    c     0.311910    0.947386    0.802521    0.000000
   120  O2    c     0.013198    0.361800    0.132363    0.000000
   121  O2    c     0.296376    0.348428    0.357942    0.000000
   122  O2    c     0.025005    0.660225    0.025810    0.000000
   123  O2    c     0.610520    0.947236    0.696463    0.000000
   124  O2    c     0.656401    0.620402    0.858793    0.000000
   125  O2    c     0.929587    0.313903    0.525671    0.000000
   126  O2    c     0.344872    0.024097    0.195339    0.000000
   127  O3    c     0.747632    0.279202    0.002267    0.000000
   128  O2    c     0.664605    0.444221    0.339823    0.000000
   129  O2    c     0.521091    0.217041    0.675903    0.000000
   130  O3    c     0.206144    0.693260    0.502371    0.000000
   131  O2    c     0.288558    0.525158    0.840331    0.000000
   132  O2    c     0.437990    0.757180    0.174669    0.000000
   133  O2    c     0.268980    0.745732    0.320219    0.000000
   134  O2    c     0.452576    0.688522    0.985983    0.000000
   135  O2    c     0.220412    0.517238    0.649759    0.000000
   136  O2    c     0.681733    0.221684    0.821952    0.000000
   137  O2    c     0.500177    0.282446    0.485924    0.000000
   138  O2    c     0.738042    0.451328    0.150447    0.000000
   139  O3    c     0.767696    0.543665    0.018257    0.000000
   140  O2    c     0.433277    0.225932    0.358084    0.000000
   141  O2    c     0.740192    0.207090    0.695360    0.000000
   142  O3    c     0.186621    0.429526    0.516930    0.000000
   143  O2    c     0.519647    0.743238    0.858251    0.000000
   144  O2    c     0.216247    0.765630    0.193008    0.000000
   145  O2    c     0.502047    0.763748    0.303061    0.000000
   146  O2    c     0.235292    0.455103    0.969755    0.000000
   147  O2    c     0.201645    0.728397    0.633164    0.000000
   148  O2    c     0.450031    0.205897    0.802445    0.000000
   149  O2    c     0.717439    0.515704    0.468911    0.000000
   150  O2    c     0.757069    0.239632    0.132758    0.000000
   151  O2    c     0.216818    0.317789    0.895119    0.000000
   152  O2    c     0.647598    0.891218    0.229793    0.000000
   153  O2    c     0.075665    0.752111    0.561572    0.000000
   154  O2    c     0.735643    0.652204    0.393759    0.000000
   155  O2    c     0.305345    0.077750    0.728638    0.000000
   156  O2    c     0.884251    0.223053    0.060271    0.000000
   157  O2    c     0.289368    0.210100    0.431412    0.000000
   158  O2    c     0.876960    0.657021    0.096022    0.000000
   159  O2    c     0.751637    0.081620    0.769543    0.000000
   160  O2    c     0.663385    0.759590    0.931838    0.000000
   161  O2    c     0.081157    0.313630    0.594812    0.000000
   162  O2    c     0.200875    0.887417    0.267569    0.000000
   163  O2    c     0.572647    0.552230    0.987892    0.000000
   164  O2    c     0.411601    0.002771    0.323599    0.000000
   165  O2    c     0.963062    0.399546    0.649058    0.000000
   166  O2    c     0.380070    0.418729    0.486830    0.000000
   167  O2    c     0.540123    0.965346    0.824337    0.000000
   168  O2    c     0.993135    0.567157    0.149862    0.000000
   169  O2    c     0.524149    0.562951    0.339032    0.000000
   170  O2    c     0.001861    0.431774    0.005916    0.000000
   171  O2    c     0.394705    0.956345    0.675011    0.000000
   172  O2    c     0.428566    0.405538    0.840512    0.000000
   173  O2    c     0.950679    0.542772    0.507896    0.000000
   174  O2    c     0.562830    0.015266    0.175395    0.000000
   175  O2    c     0.553755    0.143987    0.250663    0.000000
   176  O2    c     0.817457    0.401193    0.580214    0.000000
   177  O2    c     0.575500    0.417302    0.914303    0.000000
   178  O2    c     0.399873    0.825454    0.750440    0.000000
   179  O2    c     0.134064    0.565917    0.079520    0.000000
   180  O2    c     0.377454    0.552612    0.412702    0.000000
   181  F     c     0.420125    0.883079    0.247194    0.000000
   182  F     c     0.113070    0.542193    0.570518    0.000000
   183  F     c     0.435378    0.543830    0.912415    0.000000
   184  F     c     0.532353    0.086814    0.747728    0.000000
   185  F     c     0.843753    0.429410    0.070469    0.000000
   186  F     c     0.517341    0.425561    0.411746    0.000000
   187  O2    s     0.912858    0.997223    0.998364    0.000000
   188  O2    s     0.970125    0.901312    0.327555    0.000000
   189  O3    s     0.045975    0.054556    0.666531    0.000000
   190  O2    s     0.038431    0.977051    0.494433    0.000000
   191  O2    s     0.984441    0.068686    0.829775    0.000000
   192  O2    s     0.900186    0.913944    0.163459    0.000000
   193  O2    s     0.317531    0.562139    0.329353    0.000000
   194  O2    s     0.399511    0.752996    0.668367    0.000000
   195  O2    s     0.216567    0.635344    0.996875    0.000000
   196  O2    s     0.634520    0.405736    0.831033    0.000000
   197  O2    s     0.558936    0.217146    0.168643    0.000000
   198  O2    s     0.736891    0.337051    0.497065    0.000000
   199  O3    s     0.570470    0.345981    0.996698    0.000000
   200  O2    s     0.753753    0.398526    0.665254    0.000000
   201  O2    s     0.618436    0.212108    0.333031    0.000000
   202  O3    s     0.383156    0.625788    0.495137    0.000000
   203  O2    s     0.204883    0.573526    0.163749    0.000000
   204  O2    s     0.333989    0.756795    0.832675    0.000000
   205  O2    s     0.112918    0.207764    0.966692    0.000000
   206  O2    s     0.751010    0.881859    0.301202    0.000000
   207  O3    s     0.077257    0.849770    0.636322    0.000000
   208  O2    s     0.839544    0.762105    0.465399    0.000000
   209  O2    s     0.201645    0.086828    0.800756    0.000000
   210  O2    s     0.877485    0.110055    0.133310    0.000000
   211  O2    s     0.184462    0.098360    0.359261    0.000000
   212  O2    s     0.899789    0.789394    0.028024    0.000000
   213  O2    s     0.861293    0.085107    0.697074    0.000000
   214  O2    s     0.768714    0.870320    0.859860    0.000000
   215  O2    s     0.052615    0.184159    0.525602    0.000000
   216  O2    s     0.091948    0.887948    0.195312    0.000000
   217  O2    s     0.891424    0.835578    0.245391    0.000000
   218  O3    s     0.106604    0.043625    0.576933    0.000000
   219  O2    s     0.920079    0.057370    0.913673    0.000000
   220  O2    s     0.060973    0.137287    0.747286    0.000000
   221  O2    s     0.835787    0.921889    0.080918    0.000000
   222  O2    s     0.031256    0.907355    0.411468    0.000000
   223  O2    s     0.900359    0.196760    0.976482    0.000000
   224  O2    s     0.761333    0.680491    0.311554    0.000000
   225  O3    s     0.290066    0.082238    0.646099    0.000000
   226  O2    s     0.053956    0.776976    0.477506    0.000000
   227  O2    s     0.192431    0.288973    0.813106    0.000000
   228  O2    s     0.677941    0.896676    0.147165    0.000000
   229  O2    s     0.173595    0.886242    0.349224    0.000000
   230  O2    s     0.691227    0.787928    0.014056    0.000000
   231  O2    s     0.079175    0.280643    0.678158    0.000000
   232  O2    s     0.779067    0.081949    0.851142    0.000000
   233  O2    s     0.260899    0.183556    0.513538    0.000000
   234  O2    s     0.878387    0.689539    0.178718    0.000000
   235  O2    s     0.296670    0.637775    0.247099    0.000000
   236  O3    s     0.343308    0.667728    0.584967    0.000000
   237  O2    s     0.309663    0.659530    0.914090    0.000000
   238  O2    s     0.659386    0.334048    0.748843    0.000000
   239  O3    s     0.614352    0.302354    0.085636    0.000000
   240  O2    s     0.643122    0.310455    0.414135    0.000000
   241  O2    s     0.366333    0.334766    0.964591    0.000000
   242  O2    s     0.630720    0.015195    0.301102    0.000000
   243  O2    s     0.949961    0.601640    0.630286    0.000000
   244  O2    s     0.586290    0.635849    0.463082    0.000000
   245  O2    s     0.322013    0.953970    0.800354    0.000000
   246  O2    s     0.007133    0.364928    0.130339    0.000000
   247  O2    s     0.306210    0.351845    0.360340    0.000000
   248  O2    s     0.018750    0.650802    0.027495    0.000000
   249  O2    s     0.607115    0.953739    0.698776    0.000000
   250  O2    s     0.646572    0.617006    0.861204    0.000000
   251  O2    s     0.935770    0.323128    0.527335    0.000000
   252  O2    s     0.347977    0.017354    0.197687    0.000000
   253  O3    s     0.758806    0.286195    0.005382    0.000000
   254  O2    s     0.657062    0.443655    0.343106    0.000000
   255  O2    s     0.521741    0.210195    0.679153    0.000000
   256  O3    s     0.195327    0.686356    0.505553    0.000000
   257  O2    s     0.296108    0.525806    0.843666    0.000000
   258  O2    s     0.437467    0.763876    0.177955    0.000000
   259  O2    s     0.276896    0.752943    0.317254    0.000000
   260  O2    s     0.451589    0.680543    0.982908    0.000000
   261  O2    s     0.213490    0.517283    0.647163    0.000000
   262  O2    s     0.674169    0.214705    0.818960    0.000000
   263  O2    s     0.501127    0.290341    0.482805    0.000000
   264  O2    s     0.745015    0.451501    0.147845    0.000000
   265  O3    s     0.777096    0.545519    0.021663    0.000000
   266  O2    s     0.436055    0.234259    0.360690    0.000000
   267  O2    s     0.731297    0.201547    0.697890    0.000000
   268  O3    s     0.177357    0.427687    0.520398    0.000000
   269  O2    s     0.516868    0.734952    0.860877    0.000000
   270  O2    s     0.224829    0.771110    0.195606    0.000000
   271  O2    s     0.499339    0.768720    0.300504    0.000000
   272  O2    s     0.243478    0.458400    0.967063    0.000000
   273  O2    s     0.197222    0.722433    0.631082    0.000000
   274  O2    s     0.452952    0.200911    0.800056    0.000000
   275  O2    s     0.709159    0.512291    0.466220    0.000000
   276  O2    s     0.761654    0.245572    0.130655    0.000000
   277  O2    s     0.226947    0.327359    0.895943    0.000000
   278  O2    s     0.637899    0.890936    0.230604    0.000000
   279  O2    s     0.075593    0.743837    0.562384    0.000000
   280  O2    s     0.725591    0.642634    0.394566    0.000000
   281  O2    s     0.315250    0.078410    0.729624    0.000000
   282  O2    s     0.883624    0.230587    0.061265    0.000000
   283  O2    s     0.299116    0.219392    0.430471    0.000000
   284  O2    s     0.877650    0.649339    0.095649    0.000000
   285  O2    s     0.742359    0.082054    0.768578    0.000000
   286  O2    s     0.653588    0.750298    0.930913    0.000000
   287  O2    s     0.080125    0.321265    0.594526    0.000000
   288  O2    s     0.210211    0.887121    0.266591    0.000000
   289  O2    s     0.569032    0.553208    0.984594    0.000000
   290  O2    s     0.411331    0.998560    0.320190    0.000000
   291  O2    s     0.966552    0.403311    0.646373    0.000000
   292  O2    s     0.383655    0.417715    0.483565    0.000000
   293  O2    s     0.540685    0.969775    0.820952    0.000000
   294  O2    s     0.989771    0.563770    0.147081    0.000000
   295  O2    s     0.524414    0.558223    0.342338    0.000000
   296  O2    s     0.999059    0.432042    0.008794    0.000000
   297  O2    s     0.399821    0.961585    0.678379    0.000000
   298  O2    s     0.428443    0.410473    0.843815    0.000000
   299  O2    s     0.953726    0.542168    0.510536    0.000000
   300  O2    s     0.557676    0.009765    0.178740    0.000000
   301  O2    s     0.548301    0.133105    0.250565    0.000000
   302  O2    s     0.827408    0.406263    0.580228    0.000000
   303  O2    s     0.569861    0.421794    0.913980    0.000000
   304  O2    s     0.405383    0.836284    0.750331    0.000000
   305  O2    s     0.124625    0.561392    0.079595    0.000000
   306  O2    s     0.383042    0.548125    0.412443    0.000000
   307  F     s     0.419724    0.882535    0.247001    0.000000
   308  F     s     0.123883    0.546172    0.567786    0.000000
   309  F     s     0.434747    0.544399    0.912243    0.000000
   310  F     s     0.532585    0.087333    0.747509    0.000000
   311  F     s     0.832774    0.425446    0.067756    0.000000
   312  F     s     0.517977    0.424919    0.411600    0.000000
--------------------------------------------------------------------------------

  Final Cartesian lattice vectors (Angstroms) :

       11.936054   -0.000664   -0.001852
       -6.125172   10.420047    0.019264
       -0.048382   -0.004106   29.470068


  Final cell parameters and derivatives :

--------------------------------------------------------------------------------
       a           11.936055 Angstrom     dE/de1(xx)     0.000084 eV/strain
       b           12.086996 Angstrom     dE/de2(yy)     0.000089 eV/strain
       c           29.470108 Angstrom     dE/de3(zz)     0.000120 eV/strain
       alpha       89.867895 Degrees      dE/de4(yz)     0.000047 eV/strain
       beta        90.102954 Degrees      dE/de5(xz)     0.000054 eV/strain
       gamma      120.451271 Degrees      dE/de6(xy)     0.000050 eV/strain
--------------------------------------------------------------------------------

  Primitive cell volume =          3665.197528 Angs**3

  Density of cell =      1.745634 g/cm**3

  Non-primitive cell volume =          3665.197528 Angs**3


  Final internal derivatives :

--------------------------------------------------------------------------------
   No.  Atomic          a             b             c           Radius
        Label          (eV)          (eV)          (eV)        (eV/Angs)
--------------------------------------------------------------------------------
      1 Ge    c       0.000000      0.000000      0.000000      0.000000
      2 Si    c       0.000056     -0.000019      0.000035      0.000000
      3 Si    c      -0.000023      0.000042      0.000098      0.000000
      4 Ge    c      -0.000098     -0.000075     -0.000467      0.000000
      5 Si    c       0.000017     -0.000045      0.000026      0.000000
      6 Si    c       0.000020      0.000084     -0.000518      0.000000
      7 Si    c       0.000021      0.000103      0.000140      0.000000
      8 Si    c      -0.000044      0.000028      0.000058      0.000000
      9 Si    c      -0.000059      0.000048      0.000825      0.000000
     10 Si    c      -0.000004     -0.000052     -0.000128      0.000000
     11 Si    c      -0.000042      0.000014     -0.000165      0.000000
     12 Si    c      -0.000164      0.000082     -0.000887      0.000000
     13 Si    c      -0.000107     -0.000091     -0.000068      0.000000
     14 Si    c       0.000000     -0.000040      0.000149      0.000000
     15 Si    c       0.000017      0.000044      0.000307      0.000000
     16 Si    c      -0.000048     -0.000011      0.000093      0.000000
     17 Si    c       0.000005     -0.000009     -0.000032      0.000000
     18 Si    c       0.000120     -0.000015      0.000025      0.000000
     19 Si    c       0.000010     -0.000032      0.000090      0.000000
     20 Si    c       0.000008     -0.000032      0.000069      0.000000
     21 Si    c       0.000001     -0.000010      0.000049      0.000000
     22 Si    c      -0.000123      0.000100      0.000049      0.000000
     23 Si    c       0.000072     -0.000012     -0.000347      0.000000
     24 Si    c      -0.000155     -0.000055     -0.000316      0.000000
     25 Si    c       0.000022      0.000023      0.000021      0.000000
     26 Si    c      -0.000153      0.000037     -0.000120      0.000000
     27 Si    c       0.000065     -0.000128     -0.000111      0.000000
     28 Si    c       0.000000     -0.000017     -0.000006      0.000000
     29 Si    c       0.000031     -0.000018     -0.000003      0.000000
     30 Si    c       0.000183     -0.000164     -0.000021      0.000000
     31 Si    c      -0.000054      0.000054     -0.000009      0.000000
     32 Si    c      -0.000096     -0.000091     -0.000428      0.000000
     33 Si    c      -0.000001      0.000006     -0.000067      0.000000
     34 Si    c      -0.000099      0.000120     -0.000164      0.000000
     35 Si    c       0.000009      0.000090      0.000201      0.000000
     36 Si    c       0.000080     -0.000014      0.000127      0.000000
     37 Si    c       0.000015      0.000014     -0.000133      0.000000
     38 Si    c      -0.000036      0.000005      0.000224      0.000000
     39 Si    c       0.000001     -0.000051      0.000255      0.000000
     40 Si    c       0.000033     -0.000055      0.000078      0.000000
     41 Si    c      -0.000013      0.000015      0.000028      0.000000
     42 Si    c      -0.000071      0.000120      0.000049      0.000000
     43 Si    c      -0.000034      0.000031      0.000032      0.000000
     44 Si    c       0.000153     -0.000027     -0.000199      0.000000
     45 Si    c      -0.000014      0.000005      0.000072      0.000000
     46 Si    c      -0.000035     -0.000004     -0.000081      0.000000
     47 Si    c      -0.000036      0.000087     -0.000351      0.000000
     48 Si    c       0.000078     -0.000012     -0.000242      0.000000
     49 Si    c      -0.000006      0.000060     -0.000214      0.000000
     50 Si    c      -0.000001      0.000053      0.000266      0.000000
     51 Ge    c       0.000023     -0.000025      0.000076      0.000000
     52 Si    c       0.000049      0.000103      0.000209      0.000000
     53 Si    c      -0.000015     -0.000017      0.000045      0.000000
     54 Si    c       0.000051     -0.000022     -0.000005      0.000000
     55 Si    c       0.000006      0.000008     -0.000071      0.000000
     56 Si    c       0.000072     -0.000035      0.000406      0.000000
     57 Si    c       0.000070     -0.000079     -0.000157      0.000000
     58 Si    c       0.000044     -0.000043     -0.000067      0.000000
     59 Si    c      -0.000016      0.000061     -0.000047      0.000000
     60 Si    c       0.000069      0.000014     -0.000224      0.000000
     61 O2    c       0.000008     -0.000003      0.000058      0.000000
     62 O2    c      -0.000014     -0.000017     -0.000063      0.000000
     63 O3    c      -0.000143      0.000171      0.000187      0.000000
     64 O2    c       0.000040     -0.000142     -0.000308      0.000000
     65 O2    c      -0.000001      0.000002      0.000037      0.000000
     66 O2    c       0.000023     -0.000002      0.000015      0.000000
     67 O2    c       0.000037     -0.000106      0.000193      0.000000
     68 O2    c       0.000037     -0.000019     -0.000036      0.000000
     69 O2    c       0.000067     -0.000051     -0.000136      0.000000
     70 O2    c       0.000078     -0.000053     -0.000101      0.000000
     71 O2    c      -0.000068      0.000116     -0.000193      0.000000
     72 O2    c       0.000058     -0.000061      0.000157      0.000000
     73 O3    c      -0.000134     -0.000060      0.000241      0.000000
     74 O2    c      -0.000001      0.000020     -0.000076      0.000000
     75 O2    c      -0.000006      0.000022      0.000050      0.000000
     76 O3    c       0.000068     -0.000018     -0.000029      0.000000
     77 O2    c      -0.000040      0.000024     -0.000077      0.000000
     78 O2    c      -0.000001      0.000004     -0.000034      0.000000
     79 O2    c      -0.000018     -0.000036      0.000032      0.000000
     80 O2    c       0.000015     -0.000009      0.000001      0.000000
     81 O3    c      -0.000030      0.000106      0.000073      0.000000
     82 O2    c      -0.000049     -0.000018      0.000045      0.000000
     83 O2    c       0.000055     -0.000042      0.000007      0.000000
     84 O2    c       0.000035     -0.000045      0.000046      0.000000
     85 O2    c       0.000011      0.000000      0.000019      0.000000
     86 O2    c      -0.000113      0.000169     -0.000008      0.000000
     87 O2    c       0.000021     -0.000015     -0.000053      0.000000
     88 O2    c       0.000013      0.000033     -0.000025      0.000000
     89 O2    c       0.000139     -0.000195     -0.000005      0.000000
     90 O2    c      -0.000022      0.000020     -0.000061      0.000000
     91 O2    c      -0.000025      0.000031      0.000088      0.000000
     92 O3    c      -0.000159      0.000012     -0.000087      0.000000
     93 O2    c       0.000023      0.000027      0.000132      0.000000
     94 O2    c      -0.000027      0.000003     -0.000122      0.000000
     95 O2    c       0.000064     -0.000051     -0.000561      0.000000
     96 O2    c      -0.000008     -0.000005      0.000135      0.000000
     97 O2    c       0.000011      0.000007      0.000053      0.000000
     98 O2    c      -0.000018     -0.000059      0.000022      0.000000
     99 O3    c      -0.000030     -0.000008     -0.000142      0.000000
    100 O2    c      -0.000056      0.000070     -0.000138      0.000000
    101 O2    c       0.000009      0.000063      0.000038      0.000000
    102 O2    c       0.000034     -0.000020     -0.000061      0.000000
    103 O2    c      -0.000015      0.000002      0.000040      0.000000
    104 O2    c       0.000069      0.000031      0.000061      0.000000
    105 O2    c       0.000012     -0.000068      0.000077      0.000000
    106 O2    c      -0.000034      0.000041     -0.000009      0.000000
    107 O2    c      -0.000151      0.000034     -0.000002      0.000000
    108 O2    c       0.000003      0.000038      0.000103      0.000000
    109 O2    c       0.000018     -0.000094      0.000257      0.000000
    110 O3    c       0.000314      0.000016     -0.000400      0.000000
    111 O2    c       0.000011     -0.000011     -0.000044      0.000000
    112 O2    c       0.000003     -0.000007     -0.000035      0.000000
    113 O3    c       0.000089     -0.000130      0.000260      0.000000
    114 O2    c       0.000002      0.000008      0.000006      0.000000
    115 O2    c       0.000063     -0.000037      0.000011      0.000000
    116 O2    c       0.000010     -0.000020     -0.000018      0.000000
    117 O2    c       0.000007     -0.000007     -0.000023      0.000000
    118 O2    c      -0.000030      0.000010      0.000054      0.000000
    119 O2    c       0.000004     -0.000009      0.000020      0.000000
    120 O2    c      -0.000005     -0.000009     -0.000049      0.000000
    121 O2    c       0.000013      0.000002      0.000019      0.000000
    122 O2    c      -0.000036      0.000080      0.000043      0.000000
    123 O2    c       0.000013     -0.000007     -0.000041      0.000000
    124 O2    c      -0.000014      0.000017      0.000001      0.000000
    125 O2    c      -0.000014      0.000020      0.000043      0.000000
    126 O2    c       0.000001     -0.000027     -0.000004      0.000000
    127 O3    c       0.000066     -0.000163     -0.000387      0.000000
    128 O2    c       0.000001     -0.000006      0.000003      0.000000
    129 O2    c       0.000003      0.000013     -0.000046      0.000000
    130 O3    c       0.000058     -0.000042     -0.000013      0.000000
    131 O2    c       0.000024     -0.000036      0.000029      0.000000
    132 O2    c      -0.000047      0.000029      0.000092      0.000000
    133 O2    c       0.000007     -0.000001     -0.000002      0.000000
    134 O2    c       0.000011     -0.000007     -0.000033      0.000000
    135 O2    c      -0.000016     -0.000001     -0.000023      0.000000
    136 O2    c       0.000006     -0.000008      0.000013      0.000000
    137 O2    c       0.000029     -0.000014      0.000054      0.000000
    138 O2    c       0.000025      0.000048     -0.000112      0.000000
    139 O3    c       0.000200     -0.000054      0.000351      0.000000
    140 O2    c      -0.000024     -0.000014     -0.000053      0.000000
    141 O2    c       0.000043     -0.000032     -0.000044      0.000000
    142 O3    c      -0.000054      0.000097      0.000256      0.000000
    143 O2    c       0.000025     -0.000015      0.000012      0.000000
    144 O2    c       0.000036     -0.000022     -0.000037      0.000000
    145 O2    c       0.000010      0.000006     -0.000026      0.000000
    146 O2    c      -0.000003      0.000007     -0.000027      0.000000
    147 O2    c       0.000058     -0.000020      0.000032      0.000000
    148 O2    c      -0.000012      0.000025      0.000069      0.000000
    149 O2    c      -0.000004      0.000044     -0.000016      0.000000
    150 O2    c       0.000127     -0.000086     -0.000051      0.000000
    151 O2    c      -0.000015     -0.000006      0.000058      0.000000
    152 O2    c       0.000082     -0.000025      0.000055      0.000000
    153 O2    c      -0.000006      0.000070     -0.000170      0.000000
    154 O2    c       0.000016     -0.000002     -0.000093      0.000000
    155 O2    c      -0.000021      0.000009      0.000051      0.000000
    156 O2    c      -0.000045     -0.000016      0.000035      0.000000
    157 O2    c      -0.000003     -0.000000     -0.000061      0.000000
    158 O2    c       0.000094     -0.000014      0.000928      0.000000
    159 O2    c      -0.000003     -0.000001      0.000004      0.000000
    160 O2    c      -0.000009     -0.000002      0.000068      0.000000
    161 O2    c       0.000081     -0.000054      0.000371      0.000000
    162 O2    c      -0.000048      0.000012      0.000069      0.000000
    163 O2    c      -0.000038      0.000026     -0.000020      0.000000
    164 O2    c      -0.000023     -0.000017     -0.000014      0.000000
    165 O2    c       0.000015     -0.000010      0.000004      0.000000
    166 O2    c       0.000015     -0.000020     -0.000088      0.000000
    167 O2    c      -0.000021     -0.000006      0.000008      0.000000
    168 O2    c      -0.000006      0.000019      0.000051      0.000000
    169 O2    c      -0.000001      0.000005      0.000013      0.000000
    170 O2    c       0.000033      0.000008      0.000012      0.000000
    171 O2    c      -0.000008     -0.000001     -0.000047      0.000000
    172 O2    c      -0.000011     -0.000008     -0.000002      0.000000
    173 O2    c       0.000014     -0.000001      0.000020      0.000000
    174 O2    c       0.000003     -0.000018     -0.000040      0.000000
    175 O2    c       0.000041      0.000065      0.000412      0.000000
    176 O2    c      -0.000082     -0.000000      0.000041      0.000000
    177 O2    c      -0.000006     -0.000034      0.000022      0.000000
    178 O2    c      -0.000002      0.000006     -0.000009      0.000000
    179 O2    c      -0.000010      0.000017      0.000096      0.000000
    180 O2    c      -0.000002     -0.000010     -0.000088      0.000000
    181 F     c      -0.000001      0.000034     -0.000161      0.000000
    182 F     c      -0.000024     -0.000031     -0.000071      0.000000
    183 F     c       0.000000     -0.000015     -0.000016      0.000000
    184 F     c      -0.000012      0.000016     -0.000020      0.000000
    185 F     c       0.000048     -0.000012      0.000295      0.000000
    186 F     c       0.000018     -0.000010      0.000032      0.000000
    187 O2    s       0.000002     -0.000070      0.000014      0.000000
    188 O2    s      -0.000000      0.000027      0.000084      0.000000
    189 O3    s       0.000122     -0.000055      0.000044      0.000000
    190 O2    s      -0.000056      0.000111      0.000016      0.000000
    191 O2    s      -0.000011     -0.000009      0.000013      0.000000
    192 O2    s      -0.000024     -0.000027     -0.000024      0.000000
    193 O2    s      -0.000008      0.000010     -0.000012      0.000000
    194 O2    s       0.000008      0.000009      0.000067      0.000000
    195 O2    s      -0.000012     -0.000027     -0.000003      0.000000
    196 O2    s      -0.000045      0.000035     -0.000002      0.000000
    197 O2    s       0.000138     -0.000066      0.000119      0.000000
    198 O2    s      -0.000021      0.000007     -0.000062      0.000000
    199 O3    s       0.000204      0.000100     -0.000363      0.000000
    200 O2    s      -0.000006     -0.000004      0.000042      0.000000
    201 O2    s      -0.000001     -0.000005     -0.000053      0.000000
    202 O3    s      -0.000019     -0.000022     -0.000011      0.000000
    203 O2    s      -0.000041      0.000002      0.000040      0.000000
    204 O2    s       0.000007     -0.000009      0.000026      0.000000
    205 O2    s      -0.000016      0.000016     -0.000062      0.000000
    206 O2    s      -0.000008      0.000026      0.000040      0.000000
    207 O3    s      -0.000027      0.000002     -0.000061      0.000000
    208 O2    s       0.000043      0.000041     -0.000104      0.000000
    209 O2    s      -0.000002     -0.000029     -0.000027      0.000000
    210 O2    s      -0.000047      0.000053     -0.000069      0.000000
    211 O2    s      -0.000014      0.000015     -0.000010      0.000000
    212 O2    s      -0.000182     -0.000049      0.000122      0.000000
    213 O2    s       0.000027     -0.000012      0.000067      0.000000
    214 O2    s      -0.000023     -0.000006      0.000114      0.000000
    215 O2    s       0.000036     -0.000101     -0.000100      0.000000
    216 O2    s       0.000002     -0.000004      0.000107      0.000000
    217 O2    s       0.000017     -0.000013     -0.000059      0.000000
    218 O3    s       0.000195      0.000025     -0.000216      0.000000
    219 O2    s      -0.000021     -0.000016     -0.000006      0.000000
    220 O2    s      -0.000024      0.000019     -0.000157      0.000000
    221 O2    s      -0.000055     -0.000056      0.000001      0.000000
    222 O2    s      -0.000006     -0.000028      0.000074      0.000000
    223 O2    s      -0.000022      0.000030      0.000074      0.000000
    224 O2    s       0.000005      0.000002      0.000005      0.000000
    225 O3    s      -0.000058      0.000068      0.000059      0.000000
    226 O2    s      -0.000033      0.000048     -0.000092      0.000000
    227 O2    s      -0.000020      0.000020     -0.000003      0.000000
    228 O2    s       0.000004      0.000013     -0.000160      0.000000
    229 O2    s      -0.000004     -0.000011      0.000012      0.000000
    230 O2    s       0.000135     -0.000075      0.000203      0.000000
    231 O2    s       0.000019     -0.000042      0.000096      0.000000
    232 O2    s       0.000003     -0.000027      0.000011      0.000000
    233 O2    s      -0.000015     -0.000045      0.000303      0.000000
    234 O2    s      -0.000031     -0.000063     -0.000184      0.000000
    235 O2    s      -0.000029      0.000072     -0.000272      0.000000
    236 O3    s      -0.000220     -0.000049      0.000092      0.000000
    237 O2    s       0.000012      0.000004      0.000093      0.000000
    238 O2    s       0.000012     -0.000005     -0.000017      0.000000
    239 O3    s      -0.000004      0.000096     -0.000100      0.000000
    240 O2    s      -0.000007     -0.000023     -0.000067      0.000000
    241 O2    s       0.000002      0.000049      0.000083      0.000000
    242 O2    s      -0.000000      0.000003     -0.000027      0.000000
    243 O2    s      -0.000011      0.000002      0.000012      0.000000
    244 O2    s       0.000019     -0.000006     -0.000093      0.000000
    245 O2    s      -0.000003     -0.000005     -0.000021      0.000000
    246 O2    s      -0.000023      0.000045     -0.000094      0.000000
    247 O2    s      -0.000004      0.000006     -0.000018      0.000000
    248 O2    s      -0.000037     -0.000094     -0.000149      0.000000
    249 O2    s      -0.000013      0.000003      0.000066      0.000000
    250 O2    s       0.000021      0.000010      0.000038      0.000000
    251 O2    s      -0.000013     -0.000029     -0.000048      0.000000
    252 O2    s      -0.000007      0.000057      0.000112      0.000000
    253 O3    s      -0.000003      0.000131      0.000224      0.000000
    254 O2    s      -0.000011      0.000009      0.000004      0.000000
    255 O2    s      -0.000015     -0.000010      0.000040      0.000000
    256 O3    s       0.000005      0.000032     -0.000066      0.000000
    257 O2    s      -0.000023      0.000025     -0.000055      0.000000
    258 O2    s       0.000068     -0.000101     -0.000091      0.000000
    259 O2    s      -0.000022      0.000008     -0.000011      0.000000
    260 O2    s      -0.000016      0.000001      0.000005      0.000000
    261 O2    s       0.000021     -0.000001     -0.000014      0.000000
    262 O2    s       0.000007      0.000007     -0.000001      0.000000
    263 O2    s      -0.000026     -0.000002     -0.000045      0.000000
    264 O2    s       0.000042      0.000046      0.000012      0.000000
    265 O3    s      -0.000275      0.000011     -0.000125      0.000000
    266 O2    s       0.000020      0.000021      0.000066      0.000000
    267 O2    s      -0.000038      0.000004      0.000086      0.000000
    268 O3    s       0.000127     -0.000088     -0.000515      0.000000
    269 O2    s      -0.000003      0.000006      0.000030      0.000000
    270 O2    s      -0.000031     -0.000057      0.000040      0.000000
    271 O2    s       0.000023      0.000025     -0.000033      0.000000
    272 O2    s      -0.000017      0.000040      0.000072      0.000000
    273 O2    s      -0.000013     -0.000007      0.000001      0.000000
    274 O2    s       0.000036     -0.000027     -0.000093      0.000000
    275 O2    s      -0.000029      0.000030     -0.000007      0.000000
    276 O2    s      -0.000021      0.000015      0.000104      0.000000
    277 O2    s       0.000003     -0.000005     -0.000056      0.000000
    278 O2    s      -0.000047     -0.000003      0.000057      0.000000
    279 O2    s      -0.000058     -0.000018      0.000155      0.000000
    280 O2    s      -0.000034      0.000015      0.000085      0.000000
    281 O2    s       0.000020     -0.000004     -0.000033      0.000000
    282 O2    s      -0.000018      0.000063     -0.000201      0.000000
    283 O2    s       0.000012     -0.000003      0.000026      0.000000
    284 O2    s      -0.000031      0.000066     -0.000463      0.000000
    285 O2    s      -0.000007      0.000005     -0.000019      0.000000
    286 O2    s       0.000021     -0.000008     -0.000041      0.000000
    287 O2    s      -0.000059      0.000048     -0.000021      0.000000
    288 O2    s       0.000027      0.000009     -0.000083      0.000000
    289 O2    s       0.000088     -0.000047      0.000142      0.000000
    290 O2    s       0.000013      0.000014     -0.000007      0.000000
    291 O2    s      -0.000007      0.000000     -0.000000      0.000000
    292 O2    s      -0.000005     -0.000001      0.000118      0.000000
    293 O2    s       0.000016     -0.000013     -0.000004      0.000000
    294 O2    s      -0.000034     -0.000044     -0.000242      0.000000
    295 O2    s       0.000003     -0.000013      0.000009      0.000000
    296 O2    s      -0.000081     -0.000017      0.000024      0.000000
    297 O2    s       0.000006      0.000014      0.000081      0.000000
    298 O2    s      -0.000005      0.000020      0.000034      0.000000
    299 O2    s      -0.000041      0.000019      0.000000      0.000000
    300 O2    s       0.000019      0.000060      0.000069      0.000000
    301 O2    s      -0.000031     -0.000048     -0.000141      0.000000
    302 O2    s       0.000003      0.000020      0.000016      0.000000
    303 O2    s       0.000030      0.000039      0.000198      0.000000
    304 O2    s       0.000005     -0.000002      0.000027      0.000000
    305 O2    s      -0.000055     -0.000034      0.000044      0.000000
    306 O2    s       0.000015      0.000005     -0.000029      0.000000
    307 F     s      -0.000002     -0.000062      0.000270      0.000000
    308 F     s       0.000031      0.000063      0.000143      0.000000
    309 F     s       0.000003      0.000041      0.000057      0.000000
    310 F     s       0.000027     -0.000035      0.000012      0.000000
    311 F     s       0.000110      0.000028      0.000082      0.000000
    312 F     s      -0.000027      0.000022     -0.000070      0.000000
--------------------------------------------------------------------------------
  Maximum abs         0.000314      0.000195      0.000928      0.000000
--------------------------------------------------------------------------------


  Time to end of optimisation =      10.2188 seconds


  Peak dynamic memory used =      19.13 MB 


  Timing analysis for GULP :

--------------------------------------------------------------------------------
  Task / Subroutine                                          Time (Seconds)
--------------------------------------------------------------------------------
  Calculation of reciprocal space energy and derivatives          0.3473
  Calculation of real space energy and derivatives                8.6723
  Calculation of three-body energy and derivatives                0.9674
  Calculation of matrix inversion                                 0.1920
--------------------------------------------------------------------------------
  Total CPU time                                                 10.2189
--------------------------------------------------------------------------------


  Dump file written as out.res                                                 
  CIF file written as out.cif                                                 


  Job Finished at 01:46.45  4th December   2016                               

