********************************************************************************
*                       GENERAL UTILITY LATTICE PROGRAM                        *
*                                 Julian Gale                                  *
*                      Nanochemistry Research Institute                        *
*                           Department of Chemistry                            *
*                    Curtin University, Western Australia                      *
********************************************************************************
* Version = 4.2.0 * Last modified =  20th January 2014                         *
********************************************************************************
*  optimise     - perform optimisation run                                     *
*  conp         - constant pressure calculation                                *
*  qok          - running with non charge neutral cell is OK                   *
********************************************************************************

  Job Started  at 01:07.55  4th December   2016                               

  Number of CPUs =     1


  Total number of configurations input =   1

********************************************************************************
*  Input for Configuration =   1                                               *
********************************************************************************

  Formula = Ge3Si57O120F6                                               

  Number of irreducible atoms/shells =     312


  Total number atoms/shells =     312

  Dimensionality = 3               :  Bulk   


  Charge on solid   =  -6.000000 =>neutralising background added


  Cartesian lattice vectors (Angstroms) :

       11.961509    0.000000    0.000000
       -5.999628   10.365868    0.000000
       -0.377299   -0.232733   29.507353

  Cell parameters (Angstroms/Degrees):

  a =      11.9615    alpha =  90.0241
  b =      11.9769    beta  =  90.7326
  c =      29.5107    gamma = 120.0617

  Initial cell volume =        3658.658760 Angs**3

  Temperature of configuration =  0.000     K 

  Pressure of configuration =         0.000 GPa 

  Fractional coordinates of asymmetric unit :

--------------------------------------------------------------------------------
   No.  Atomic       x           y          z         Charge      Occupancy
        Label      (Frac)      (Frac)     (Frac)        (e)         (Frac)  
--------------------------------------------------------------------------------
      1 Ge    c    0.699600    0.375700    0.033890     4.00000    1.000000    
      2 Si    c    0.623791 *  0.316317 *  0.366117 *   4.00000    1.000000    
      3 Si    c    0.678153 *  0.296015 *  0.698910 *   4.00000    1.000000    
      4 Si    c    0.297066 *  0.619913 *  0.532033 *   4.00000    1.000000    
      5 Ge    c    0.388058 *  0.668750 *  0.867809 *   4.00000    1.000000    
      6 Si    c    0.319416 *  0.702917 *  0.200474 *   4.00000    1.000000    
      7 Si    c    0.376408 *  0.696756 *  0.302331 *   4.00000    1.000000    
      8 Si    c    0.317311 *  0.629085 *  0.965375 *   4.00000    1.000000    
      9 Si    c    0.297934 *  0.673973 *  0.632653 *   4.00000    1.000000    
     10 Si    c    0.622841 *  0.293009 *  0.798859 *   4.00000    1.000000    
     11 Si    c    0.675352 *  0.377433 *  0.467604 *   4.00000    1.000000    
     12 Si    c    0.683970 *  0.317369 *  0.132082 *   4.00000    1.000000    
     13 Si    c    0.529900 *  0.418228 *  0.964940 *   4.00000    1.000000    
     14 Ge    c    0.567639 *  0.093287 *  0.300837 *   4.00000    1.000000    
     15 Si    c    0.887462 *  0.468374 *  0.634300 *   4.00000    1.000000    
     16 Si    c    0.467301 *  0.580818 *  0.466679 *   4.00000    1.000000    
     17 Si    c    0.417942 *  0.878754 *  0.800478 *   4.00000    1.000000    
     18 Si    c    0.105145 *  0.530726 *  0.133597 *   4.00000    1.000000    
     19 Si    c    0.419189 *  0.523765 *  0.365528 *   4.00000    1.000000    
     20 Si    c    0.104809 *  0.582159 *  0.030652 *   4.00000    1.000000    
     21 Si    c    0.470377 *  0.884031 *  0.698233 *   4.00000    1.000000    
     22 Si    c    0.584623 *  0.469341 *  0.862221 *   4.00000    1.000000    
     23 Si    c    0.887171 *  0.416797 *  0.532723 *   4.00000    1.000000    
     24 Si    c    0.528433 *  0.121642 *  0.202415 *   4.00000    1.000000    
     25 Si    c    0.297048 *  0.396350 *  0.845127 *   4.00000    1.000000    
     26 Si    c    0.601663 *  0.909098 *  0.186652 *   4.00000    1.000000    
     27 Si    c    0.094961 *  0.696899 *  0.517729 *   4.00000    1.000000    
     28 Si    c    0.698694 *  0.595599 *  0.352145 *   4.00000    1.000000    
     29 Si    c    0.399948 *  0.094010 *  0.683831 *   4.00000    1.000000    
     30 Si    c    0.892856 *  0.295856 *  0.013834 *   4.00000    1.000000    
     31 Si    c    0.396701 *  0.300375 *  0.481070 *   4.00000    1.000000    
     32 Si    c    0.890725 *  0.601472 *  0.145035 *   4.00000    1.000000    
     33 Si    c    0.700545 *  0.092912 *  0.813568 *   4.00000    1.000000    
     34 Si    c    0.601200 *  0.704615 *  0.977874 *   4.00000    1.000000    
     35 Si    c    0.097229 *  0.396167 *  0.648173 *   4.00000    1.000000    
     36 Si    c    0.294098 *  0.897013 *  0.321264 *   4.00000    1.000000    
     37 Si    c    0.248523 *  0.344765 *  0.947561 *   4.00000    1.000000    
     38 Si    c    0.663794 *  0.910891 *  0.288524 *   4.00000    1.000000    
     39 Si    c    0.088978 *  0.746823 *  0.618338 *   4.00000    1.000000    
     40 Si    c    0.745874 *  0.657760 *  0.452532 *   4.00000    1.000000    
     41 Si    c    0.342535 *  0.082592 *  0.783911 *   4.00000    1.000000    
     42 Si    c    0.900712 *  0.249188 *  0.116648 *   4.00000    1.000000    
     43 Si    c    0.341728 *  0.245916 *  0.380099 *   4.00000    1.000000    
     44 Si    c    0.899086 *  0.660484 *  0.042784 *   4.00000    1.000000    
     45 Si    c    0.749865 *  0.087033 *  0.713094 *   4.00000    1.000000    
     46 Si    c    0.669478 *  0.754850 *  0.876013 *   4.00000    1.000000    
     47 Si    c    0.088560 *  0.339464 *  0.547451 *   4.00000    1.000000    
     48 Si    c    0.247599 *  0.915190 *  0.218651 *   4.00000    1.000000    
     49 Si    c    0.974416 *  0.123635 *  0.965268 *   4.00000    1.000000    
     50 Si    c    0.876790 *  0.839732 *  0.300851 *   4.00000    1.000000    
     51 Si    c    0.151322 *  0.027052 *  0.632578 *   4.00000    1.000000    
     52 Si    c    0.024951 *  0.876754 *  0.467837 *   4.00000    1.000000    
     53 Si    c    0.123691 *  0.141550 *  0.797031 *   4.00000    1.000000    
     54 Si    c    0.844465 *  0.972128 *  0.133626 *   4.00000    1.000000    
     55 Si    c    0.116010 *  0.965331 *  0.367570 *   4.00000    1.000000    
     56 Si    c    0.849144 *  0.884688 *  0.031563 *   4.00000    1.000000    
     57 Si    c    0.027904 *  0.146233 *  0.697078 *   4.00000    1.000000    
     58 Si    c    0.887099 *  0.029154 *  0.863902 *   4.00000    1.000000    
     59 Si    c    0.150386 *  0.121836 *  0.532152 *   4.00000    1.000000    
     60 Si    c    0.965985 *  0.849103 *  0.199030 *   4.00000    1.000000    
     61 O2    c    0.932454 *  0.008671 *  0.000938 *   0.87073    1.000000    
     62 O2    c    0.999665 *  0.927714 *  0.332263 *   0.87073    1.000000    
     63 O2    c    0.069441 *  0.068988 *  0.663511 *   0.87073    1.000000    
     64 O2    c    0.067683 *  0.999190 *  0.499976 *   0.87073    1.000000    
     65 O2    c    0.008413 *  0.073167 *  0.832115 *   0.87073    1.000000    
     66 O2    c    0.927353 *  0.933388 *  0.166720 *   0.87073    1.000000    
     67 O2    c    0.340768 *  0.571473 *  0.332249 *   0.87073    1.000000    
     68 O2    c    0.422011 *  0.758868 *  0.665431 *   0.87073    1.000000    
     69 O2    c    0.235520 *  0.659275 *  0.002313 *   0.87073    1.000000    
     70 O2    c    0.659885 *  0.416918 *  0.831615 *   0.87073    1.000000    
     71 O2    c    0.569085 *  0.238000 *  0.166974 *   0.87073    1.000000    
     72 O2    c    0.759878 *  0.339137 *  0.500602 *   0.87073    1.000000    
     73 O3    c    0.568409 *  0.338436 *  0.997428 *   1.33043    1.000000    
     74 O2    c    0.763000 *  0.419491 *  0.666612 *   0.87073    1.000000    
     75 O3    c    0.658900 *  0.230684 *  0.336032 *   1.33043    1.000000    
     76 O2    c    0.418093 *  0.657269 *  0.498824 *   0.87073    1.000000    
     77 O2    c    0.231032 *  0.582513 *  0.166678 *   0.87073    1.000000    
     78 O3    c    0.343753 *  0.759489 *  0.832193 *   1.33043    1.000000    
     79 O2    c    0.128332 *  0.218490 *  0.969860 *   0.87073    1.000000    
     80 O2    c    0.783621 *  0.898184 *  0.306938 *   0.87073    1.000000    
     81 O2    c    0.088187 *  0.872988 *  0.638027 *   0.87073    1.000000    
     82 O2    c    0.871283 *  0.784856 *  0.473366 *   0.87073    1.000000    
     83 O2    c    0.213434 *  0.077722 *  0.803393 *   0.87073    1.000000    
     84 O2    c    0.905290 *  0.126701 *  0.137839 *   0.87073    1.000000    
     85 O2    c    0.214904 *  0.117313 *  0.360359 *   0.87073    1.000000    
     86 O2    c    0.917439 *  0.798954 *  0.027121 *   0.87073    1.000000    
     87 O2    c    0.873764 *  0.085363 *  0.691986 *   0.87073    1.000000    
     88 O2    c    0.806026 *  0.874338 *  0.859556 *   0.87073    1.000000    
     89 O2    c    0.087499 *  0.213014 *  0.527116 *   0.87073    1.000000    
     90 O2    c    0.120665 *  0.910667 *  0.196411 *   0.87073    1.000000    
     91 O2    c    0.923812 *  0.854059 *  0.249439 *   0.87073    1.000000    
     92 O2    c    0.140454 *  0.068404 *  0.582129 *   0.87073    1.000000    
     93 O2    c    0.936597 *  0.066916 *  0.915286 *   0.87073    1.000000    
     94 O2    c    0.064768 *  0.123692 *  0.747084 *   0.87073    1.000000    
     95 O2    c    0.852564 *  0.930545 *  0.083029 *   0.87073    1.000000    
     96 O2    c    0.060661 *  0.932058 *  0.417498 *   0.87073    1.000000    
     97 O2    c    0.904102 *  0.204540 *  0.976153 *   0.87073    1.000000    
     98 O2    c    0.799448 *  0.689241 *  0.313699 *   0.87073    1.000000    
     99 O2    c    0.302828 *  0.096637 *  0.645389 *   0.87073    1.000000    
    100 O2    c    0.096018 *  0.795509 *  0.479438 *   0.87073    1.000000    
    101 O2    c    0.208113 *  0.293601 *  0.806688 *   0.87073    1.000000    
    102 O2    c    0.694110 *  0.905111 *  0.147546 *   0.87073    1.000000    
    103 O2    c    0.185334 *  0.881850 *  0.357053 *   0.87073    1.000000    
    104 O2    c    0.698643 *  0.800934 *  0.017086 *   0.87073    1.000000    
    105 O2    c    0.098645 *  0.298961 *  0.686467 *   0.87073    1.000000    
    106 O2    c    0.800332 *  0.093685 *  0.851934 *   0.87073    1.000000    
    107 O2    c    0.300958 *  0.203022 *  0.519166 *   0.87073    1.000000    
    108 O2    c    0.894718 *  0.699618 *  0.183529 *   0.87073    1.000000    
    109 O2    c    0.324037 *  0.649886 *  0.250363 *   0.87073    1.000000    
    110 O2    c    0.355388 *  0.676308 *  0.582477 *   0.87073    1.000000    
    111 O3    c    0.310745 *  0.686580 *  0.917958 *   1.33043    1.000000    
    112 O2    c    0.679568 *  0.354021 *  0.749210 *   0.87073    1.000000    
    113 O3    c    0.613857 *  0.304691 *  0.084383 *   1.33043    1.000000    
    114 O2    c    0.675881 *  0.320620 *  0.417890 *   0.87073    1.000000    
    115 O2    c    0.373268 *  0.338228 *  0.964128 *   0.87073    1.000000    
    116 O3    c    0.682926 *  0.041080 *  0.308840 *   1.33043    1.000000    
    117 O2    c    0.957106 *  0.624918 *  0.636815 *   0.87073    1.000000    
    118 O2    c    0.623882 *  0.668783 *  0.470216 *   0.87073    1.000000    
    119 O2    c    0.332790 *  0.951176 *  0.801567 *   0.87073    1.000000    
    120 O2    c    0.032270 *  0.374939 *  0.134970 *   0.87073    1.000000    
    121 O2    c    0.329964 *  0.367732 *  0.361408 *   0.87073    1.000000    
    122 O2    c    0.032386 *  0.665274 *  0.027621 *   0.87073    1.000000    
    123 O2    c    0.626670 *  0.954619 *  0.694801 *   0.87073    1.000000    
    124 O2    c    0.671474 *  0.625278 *  0.860592 *   0.87073    1.000000    
    125 O2    c    0.955547 *  0.329211 *  0.529011 *   0.87073    1.000000    
    126 O2    c    0.369898 *  0.046154 *  0.200857 *   0.87073    1.000000    
    127 O3    c    0.758636 *  0.287058 *  0.003393 *   1.33043    1.000000    
    128 O2    c    0.698249 *  0.462089 *  0.345204 *   0.87073    1.000000    
    129 O2    c    0.534376 *  0.227527 *  0.675956 *   0.87073    1.000000    
    130 O2    c    0.228062 *  0.695211 *  0.509977 *   0.87073    1.000000    
    131 O3    c    0.293147 *  0.523553 *  0.835446 *   1.33043    1.000000    
    132 O2    c    0.463533 *  0.777081 *  0.180132 *   0.87073    1.000000    
    133 O2    c    0.299253 *  0.763656 *  0.322995 *   0.87073    1.000000    
    134 O2    c    0.466550 *  0.703194 *  0.985212 *   0.87073    1.000000    
    135 O2    c    0.231346 *  0.531071 *  0.655076 *   0.87073    1.000000    
    136 O2    c    0.700828 *  0.227523 *  0.821572 *   0.87073    1.000000    
    137 O2    c    0.532180 *  0.303868 *  0.489389 *   0.87073    1.000000    
    138 O2    c    0.758850 *  0.466035 *  0.151520 *   0.87073    1.000000    
    139 O3    c    0.772159 *  0.547505 *  0.020962 *   1.33043    1.000000    
    140 O2    c    0.466552 *  0.246907 *  0.360328 *   0.87073    1.000000    
    141 O2    c    0.752831 *  0.214727 *  0.694008 *   0.87073    1.000000    
    142 O2    c    0.214756 *  0.463767 *  0.527749 *   0.87073    1.000000    
    143 O3    c    0.556385 *  0.767828 *  0.853809 *   1.33043    1.000000    
    144 O2    c    0.253598 *  0.791524 *  0.199912 *   0.87073    1.000000    
    145 O2    c    0.530970 *  0.786710 *  0.305423 *   0.87073    1.000000    
    146 O2    c    0.250843 *  0.471896 *  0.966890 *   0.87073    1.000000    
    147 O2    c    0.216173 *  0.748188 *  0.637817 *   0.87073    1.000000    
    148 O2    c    0.466687 *  0.211258 *  0.804259 *   0.87073    1.000000    
    149 O2    c    0.747688 *  0.533482 *  0.472366 *   0.87073    1.000000    
    150 O2    c    0.776176 *  0.252322 *  0.134890 *   0.87073    1.000000    
    151 O2    c    0.229752 *  0.330221 *  0.893325 *   0.87073    1.000000    
    152 O2    c    0.672857 *  0.910461 *  0.233328 *   0.87073    1.000000    
    153 O2    c    0.090935 *  0.766764 *  0.564096 *   0.87073    1.000000    
    154 O2    c    0.768038 *  0.674674 *  0.398352 *   0.87073    1.000000    
    155 O2    c    0.325281 *  0.089335 *  0.729733 *   0.87073    1.000000    
    156 O2    c    0.899247 *  0.233608 *  0.062507 *   0.87073    1.000000    
    157 O2    c    0.324387 *  0.228472 *  0.434281 *   0.87073    1.000000    
    158 O2    c    0.895046 *  0.670081 *  0.097964 *   0.87073    1.000000    
    159 O2    c    0.770738 *  0.089051 *  0.767409 *   0.87073    1.000000    
    160 O2    c    0.672826 *  0.769769 *  0.931335 *   0.87073    1.000000    
    161 O2    c    0.091278 *  0.321563 *  0.601634 *   0.87073    1.000000    
    162 O2    c    0.233123 *  0.910560 *  0.272688 *   0.87073    1.000000    
    163 O2    c    0.578670 *  0.561952 *  0.984681 *   0.87073    1.000000    
    164 O3    c    0.425793 *  0.020429 *  0.334989 *   1.33043    1.000000    
    165 O2    c    0.972951 *  0.411727 *  0.656968 *   0.87073    1.000000    
    166 O2    c    0.409002 *  0.439309 *  0.489247 *   0.87073    1.000000    
    167 O2    c    0.561643 *  0.969724 *  0.822575 *   0.87073    1.000000    
    168 O2    c    0.014420 *  0.582930 *  0.152917 *   0.87073    1.000000    
    169 O2    c    0.559888 *  0.584472 *  0.341810 *   0.87073    1.000000    
    170 O2    c    0.017373 *  0.440042 *  0.008887 *   0.87073    1.000000    
    171 O2    c    0.412262 *  0.967763 *  0.675196 *   0.87073    1.000000    
    172 O2    c    0.442007 *  0.417705 *  0.841162 *   0.87073    1.000000    
    173 O2    c    0.968915 *  0.557231 *  0.509044 *   0.87073    1.000000    
    174 O2    c    0.582978 *  0.031987 *  0.180559 *   0.87073    1.000000    
    175 O3    c    0.586388 *  0.184991 *  0.250194 *   1.33043    1.000000    
    176 O2    c    0.834108 *  0.415748 *  0.583270 *   0.87073    1.000000    
    177 O2    c    0.581266 *  0.422897 *  0.914008 *   0.87073    1.000000    
    178 O2    c    0.420511 *  0.831489 *  0.748677 *   0.87073    1.000000    
    179 O2    c    0.150075 *  0.579182 *  0.082699 *   0.87073    1.000000    
    180 O2    c    0.415332 *  0.580823 *  0.415259 *   0.87073    1.000000    
    181 F     c    0.473407 *  0.946420 *  0.261751 *   0.56000    1.000000    
    182 F     c    0.095750 *  0.546461 *  0.582446 *   0.56000    1.000000    
    183 F     c    0.439948 *  0.576445 *  0.905125 *   0.56000    1.000000    
    184 F     c    0.552670 *  0.099203 *  0.748491 *   0.56000    1.000000    
    185 F     c    0.853218 *  0.435536 *  0.071725 *   0.56000    1.000000    
    186 F     c    0.544700 *  0.454232 *  0.415541 *   0.56000    1.000000    
    187 O2    s    0.927735 *  0.007449 *  0.000468 *  -2.87073    1.000000    
    188 O2    s    0.998692 *  0.921863 *  0.332638 *  -2.87073    1.000000    
    189 O2    s    0.073927 *  0.072965 *  0.663818 *  -2.87073    1.000000    
    190 O2    s    0.072144 *  0.999078 *  0.499940 *  -2.87073    1.000000    
    191 O2    s    0.007487 *  0.075849 *  0.831807 *  -2.87073    1.000000    
    192 O2    s    0.922491 *  0.928519 *  0.166592 *  -2.87073    1.000000    
    193 O2    s    0.352264 *  0.580374 *  0.332240 *  -2.87073    1.000000    
    194 O2    s    0.414096 *  0.762898 *  0.665378 *  -2.87073    1.000000    
    195 O2    s    0.229581 *  0.647893 *  0.001679 *  -2.87073    1.000000    
    196 O2    s    0.648227 *  0.410059 *  0.831577 *  -2.87073    1.000000    
    197 O2    s    0.577202 *  0.234317 *  0.166923 *  -2.87073    1.000000    
    198 O2    s    0.764256 *  0.351164 *  0.500487 *  -2.87073    1.000000    
    199 O3    s    0.574061 *  0.349743 *  0.996677 *  -3.33043    1.000000    
    200 O2    s    0.767237 *  0.412022 *  0.666565 *  -2.87073    1.000000    
    201 O3    s    0.648712 *  0.230422 *  0.336849 *  -3.33043    1.000000    
    202 O2    s    0.410786 *  0.645620 *  0.498920 *  -2.87073    1.000000    
    203 O2    s    0.227107 *  0.589545 *  0.166735 *  -2.87073    1.000000    
    204 O3    s    0.354988 *  0.766061 *  0.831271 *  -3.33043    1.000000    
    205 O2    s    0.124222 *  0.221351 *  0.967100 *  -2.87073    1.000000    
    206 O2    s    0.780850 *  0.892915 *  0.304234 *  -2.87073    1.000000    
    207 O2    s    0.094974 *  0.876292 *  0.635431 *  -2.87073    1.000000    
    208 O2    s    0.874774 *  0.781542 *  0.470634 *  -2.87073    1.000000    
    209 O2    s    0.216843 *  0.085117 *  0.800760 *  -2.87073    1.000000    
    210 O2    s    0.898431 *  0.123253 *  0.135208 *  -2.87073    1.000000    
    211 O2    s    0.217326 *  0.114274 *  0.363115 *  -2.87073    1.000000    
    212 O2    s    0.908168 *  0.794217 *  0.029174 *  -2.87073    1.000000    
    213 O2    s    0.877513 *  0.092064 *  0.694675 *  -2.87073    1.000000    
    214 O2    s    0.800630 *  0.878597 *  0.861716 *  -2.87073    1.000000    
    215 O2    s    0.094322 *  0.216341 *  0.529733 *  -2.87073    1.000000    
    216 O2    s    0.117409 *  0.904594 *  0.198967 *  -2.87073    1.000000    
    217 O2    s    0.923495 *  0.851862 *  0.249248 *  -2.87073    1.000000    
    218 O2    s    0.142817 *  0.069823 *  0.582126 *  -2.87073    1.000000    
    219 O2    s    0.935526 *  0.069328 *  0.915399 *  -2.87073    1.000000    
    220 O2    s    0.067298 *  0.128226 *  0.747142 *  -2.87073    1.000000    
    221 O2    s    0.851277 *  0.930317 *  0.083202 *  -2.87073    1.000000    
    222 O2    s    0.063034 *  0.929703 *  0.417358 *  -2.87073    1.000000    
    223 O2    s    0.910639 *  0.205374 *  0.978974 *  -2.87073    1.000000    
    224 O2    s    0.797882 *  0.696255 *  0.316081 *  -2.87073    1.000000    
    225 O2    s    0.296473 *  0.088880 *  0.647942 *  -2.87073    1.000000    
    226 O2    s    0.088395 *  0.794171 *  0.482049 *  -2.87073    1.000000    
    227 O2    s    0.208378 *  0.287860 *  0.809762 *  -2.87073    1.000000    
    228 O2    s    0.700345 *  0.912506 *  0.150078 *  -2.87073    1.000000    
    229 O2    s    0.189190 *  0.891989 *  0.354496 *  -2.87073    1.000000    
    230 O2    s    0.704777 *  0.800100 *  0.014644 *  -2.87073    1.000000    
    231 O2    s    0.091107 *  0.292779 *  0.683715 *  -2.87073    1.000000    
    232 O2    s    0.799670 *  0.086736 *  0.849382 *  -2.87073    1.000000    
    233 O2    s    0.294782 *  0.204425 *  0.516613 *  -2.87073    1.000000    
    234 O2    s    0.901863 *  0.705227 *  0.181116 *  -2.87073    1.000000    
    235 O2    s    0.328703 *  0.660119 *  0.250189 *  -2.87073    1.000000    
    236 O2    s    0.343619 *  0.670285 *  0.582378 *  -2.87073    1.000000    
    237 O3    s    0.316288 *  0.679339 *  0.919830 *  -3.33043    1.000000    
    238 O2    s    0.673684 *  0.341989 *  0.749157 *  -2.87073    1.000000    
    239 O3    s    0.627048 *  0.311030 *  0.085552 *  -3.33043    1.000000    
    240 O2    s    0.670556 *  0.326203 *  0.417934 *  -2.87073    1.000000    
    241 O2    s    0.375757 *  0.347274 *  0.962383 *  -2.87073    1.000000    
    242 O3    s    0.672947 *  0.030628 *  0.306067 *  -3.33043    1.000000    
    243 O2    s    0.963724 *  0.621582 *  0.634620 *  -2.87073    1.000000    
    244 O2    s    0.620516 *  0.658577 *  0.467980 *  -2.87073    1.000000    
    245 O2    s    0.342356 *  0.958432 *  0.799516 *  -2.87073    1.000000    
    246 O2    s    0.026440 *  0.378428 *  0.132939 *  -2.87073    1.000000    
    247 O2    s    0.340309 *  0.371349 *  0.363744 *  -2.87073    1.000000    
    248 O2    s    0.026671 *  0.655938 *  0.029464 *  -2.87073    1.000000    
    249 O2    s    0.623628 *  0.961396 *  0.697098 *  -2.87073    1.000000    
    250 O2    s    0.662214 *  0.622226 *  0.862346 *  -2.87073    1.000000    
    251 O2    s    0.962500 *  0.339320 *  0.531342 *  -2.87073    1.000000    
    252 O2    s    0.372208 *  0.039417 *  0.202932 *  -2.87073    1.000000    
    253 O3    s    0.768664 *  0.294022 *  0.006627 *  -3.33043    1.000000    
    254 O2    s    0.690892 *  0.462124 *  0.348060 *  -2.87073    1.000000    
    255 O2    s    0.535106 *  0.220605 *  0.679168 *  -2.87073    1.000000    
    256 O2    s    0.221162 *  0.687678 *  0.513064 *  -2.87073    1.000000    
    257 O3    s    0.299947 *  0.519600 *  0.838721 *  -3.33043    1.000000    
    258 O2    s    0.462508 *  0.782784 *  0.182932 *  -2.87073    1.000000    
    259 O2    s    0.306800 *  0.770186 *  0.320618 *  -2.87073    1.000000    
    260 O2    s    0.466185 *  0.696208 *  0.982514 *  -2.87073    1.000000    
    261 O2    s    0.223976 *  0.531401 *  0.652020 *  -2.87073    1.000000    
    262 O2    s    0.692886 *  0.220433 *  0.818421 *  -2.87073    1.000000    
    263 O2    s    0.532511 *  0.311092 *  0.486222 *  -2.87073    1.000000    
    264 O2    s    0.765636 *  0.465977 *  0.148860 *  -2.87073    1.000000    
    265 O3    s    0.781558 *  0.549186 *  0.024078 *  -3.33043    1.000000    
    266 O2    s    0.468324 *  0.253824 *  0.363037 *  -2.87073    1.000000    
    267 O2    s    0.744647 *  0.209325 *  0.696552 *  -2.87073    1.000000    
    268 O2    s    0.209641 *  0.466695 *  0.530300 *  -2.87073    1.000000    
    269 O3    s    0.557509 *  0.759709 *  0.857095 *  -3.33043    1.000000    
    270 O2    s    0.260135 *  0.794994 *  0.201932 *  -2.87073    1.000000    
    271 O2    s    0.527867 *  0.789949 *  0.303337 *  -2.87073    1.000000    
    272 O2    s    0.257253 *  0.473919 *  0.964679 *  -2.87073    1.000000    
    273 O2    s    0.210724 *  0.740216 *  0.635186 *  -2.87073    1.000000    
    274 O2    s    0.469675 *  0.206050 *  0.801598 *  -2.87073    1.000000    
    275 O2    s    0.739828 *  0.530778 *  0.469724 *  -2.87073    1.000000    
    276 O2    s    0.780706 *  0.258510 *  0.132607 *  -2.87073    1.000000    
    277 O2    s    0.238286 *  0.338238 *  0.894434 *  -2.87073    1.000000    
    278 O2    s    0.664186 *  0.910366 *  0.233740 *  -2.87073    1.000000    
    279 O2    s    0.091132 *  0.757280 *  0.564923 *  -2.87073    1.000000    
    280 O2    s    0.758486 *  0.664684 *  0.399192 *  -2.87073    1.000000    
    281 O2    s    0.334961 *  0.089158 *  0.730614 *  -2.87073    1.000000    
    282 O2    s    0.898712 *  0.241426 *  0.063584 *  -2.87073    1.000000    
    283 O2    s    0.333810 *  0.237881 *  0.433449 *  -2.87073    1.000000    
    284 O2    s    0.894863 *  0.661453 *  0.097682 *  -2.87073    1.000000    
    285 O2    s    0.761302 *  0.089261 *  0.766476 *  -2.87073    1.000000    
    286 O2    s    0.664725 *  0.761298 *  0.930937 *  -2.87073    1.000000    
    287 O2    s    0.091611 *  0.331264 *  0.600770 *  -2.87073    1.000000    
    288 O2    s    0.240639 *  0.909820 *  0.271441 *  -2.87073    1.000000    
    289 O2    s    0.575918 *  0.562686 *  0.981884 *  -2.87073    1.000000    
    290 O3    s    0.421335 *  0.011895 *  0.331166 *  -3.33043    1.000000    
    291 O2    s    0.977611 *  0.416158 *  0.653647 *  -2.87073    1.000000    
    292 O2    s    0.413938 *  0.439171 *  0.485986 *  -2.87073    1.000000    
    293 O2    s    0.562612 *  0.974527 *  0.819336 *  -2.87073    1.000000    
    294 O2    s    0.011095 *  0.579158 *  0.149993 *  -2.87073    1.000000    
    295 O2    s    0.559978 *  0.579287 *  0.345306 *  -2.87073    1.000000    
    296 O2    s    0.013806 *  0.440522 *  0.011737 *  -2.87073    1.000000    
    297 O2    s    0.417141 *  0.972899 *  0.678517 *  -2.87073    1.000000    
    298 O2    s    0.442548 *  0.421284 *  0.843869 *  -2.87073    1.000000    
    299 O2    s    0.974226 *  0.557778 *  0.512420 *  -2.87073    1.000000    
    300 O2    s    0.579622 *  0.027061 *  0.183351 *  -2.87073    1.000000    
    301 O3    s    0.578883 *  0.172040 *  0.248458 *  -3.33043    1.000000    
    302 O2    s    0.845174 *  0.421337 *  0.583330 *  -2.87073    1.000000    
    303 O2    s    0.576338 *  0.427289 *  0.913908 *  -2.87073    1.000000    
    304 O2    s    0.425590 *  0.841824 *  0.748510 *  -2.87073    1.000000    
    305 O2    s    0.140550 *  0.574200 *  0.082918 *  -2.87073    1.000000    
    306 O2    s    0.421017 *  0.574963 *  0.415381 *  -2.87073    1.000000    
    307 F     s    0.479023 *  0.955523 *  0.264025 *  -1.56000    1.000000    
    308 F     s    0.096122 *  0.546630 *  0.582398 *  -1.56000    1.000000    
    309 F     s    0.436207 *  0.583194 *  0.902599 *  -1.56000    1.000000    
    310 F     s    0.553234 *  0.100426 *  0.748458 *  -1.56000    1.000000    
    311 F     s    0.844223 *  0.431975 *  0.069687 *  -1.56000    1.000000    
    312 F     s    0.544479 *  0.454712 *  0.415431 *  -1.56000    1.000000    
--------------------------------------------------------------------------------



********************************************************************************
*  General input information                                                   *
********************************************************************************

  Species output for all configurations : 

--------------------------------------------------------------------------------
  Species    Type    Atomic    Atomic    Charge       Radii (Angs)     Library
                     Number     Mass       (e)     Cova   Ionic  VDW   Symbol
--------------------------------------------------------------------------------
    Si       Core       14      28.09   4.000000   1.200  0.000  2.100          
    O1       Core        8      16.00   1.733957   0.730  0.000  1.360          
    O1       Shell       8       0.00  -3.733957   0.730  0.000  1.360          
    O2       Core        8      16.00   0.870733   0.730  0.000  1.360          
    O2       Shell       8       0.00  -2.870733   0.730  0.000  1.360          
    O3       Core        8      16.00   1.330431   0.730  0.000  1.360          
    O3       Shell       8       0.00  -3.330431   0.730  0.000  1.360          
    F        Core        9      19.00   0.560000   0.710  0.000  1.300          
    F        Shell       9       0.00  -1.560000   0.710  0.000  1.300          
    Ge       Core       32      72.61   4.000000   1.170  0.000  1.750          
--------------------------------------------------------------------------------


  Lattice summation method               =    Ewald          (3-D)
                                         =    Parry          (2-D)
                                         =    Saunders et al (1-D)
  Accuracy factor for lattice sums       =   12.000


  Time limit = Infinity

  Maximum range for interatomic potentials =        16.000000 Angstroms

  Taper potentials to zero over   1.0000 Angstroms using polynomial

  General interatomic potentials :

--------------------------------------------------------------------------------
Atom  Types   Potential         A         B         C         D     Cutoffs(Ang)
  1     2                                                            Min    Max 
--------------------------------------------------------------------------------
Si   c O1   s Buckingham    0.132E+04 0.318      10.1      0.00     0.000 16.000
Si   c O2   s Buckingham    0.132E+04 0.318      10.1      0.00     0.000 16.000
Si   c O3   s Buckingham    0.132E+04 0.318      10.1      0.00     0.000 16.000
Ge   c O1   s Buckingham    0.150E+04 0.326      16.8      0.00     0.000 16.000
Ge   c O2   s Buckingham    0.150E+04 0.326      16.8      0.00     0.000 16.000
Ge   c O3   s Buckingham    0.150E+04 0.326      16.8      0.00     0.000 16.000
O1   s O1   s Buckingham    0.228E+05 0.149      10.9      0.00     0.000 16.000
O1   s O2   s Buckingham    0.228E+05 0.149      10.9      0.00     0.000 16.000
O1   s O3   s Buckingham    0.228E+05 0.149      10.9      0.00     0.000 16.000
O2   s O2   s Buckingham    0.228E+05 0.149      10.9      0.00     0.000 16.000
O2   s O3   s Buckingham    0.228E+05 0.149      10.9      0.00     0.000 16.000
O3   s O3   s Buckingham    0.228E+05 0.149      10.9      0.00     0.000 16.000
Si   c F    s Buckingham     977.     0.282      0.00      0.00     0.000 16.000
Ge   c F    s Buckingham     681.     0.320      0.00      0.00     0.000 16.000
F    s F    s Buckingham     540.     0.262      0.00      0.00     0.000 16.000
O1   s F    s Buckingham    0.168E+04 0.268      0.00      0.00     0.000 16.000
O2   s F    s Buckingham    0.168E+04 0.268      0.00      0.00     0.000 16.000
O3   s F    s Buckingham    0.168E+04 0.268      0.00      0.00     0.000 16.000
O2   c O2   s Spring (c-s)   76.0      0.00      0.00      0.00     0.000  0.800
O3   c O3   s Spring (c-s)   128.      0.00      0.00      0.00     0.000  0.800
O1   c O1   s Spring (c-s)   180.      0.00      0.00      0.00     0.000  0.800
F    c F    s Spring (c-s)   33.5      0.00      0.00      0.00     0.000  0.800
--------------------------------------------------------------------------------

  General Three-body potentials :

  Harmonic form:

--------------------------------------------------------------------------------
Atom    Atom    Atom           Force Constants            Theta     Cutoffs  
  1       2       3     (eVrad**-2/eVrad**-3/eVrad**-4)   (deg)  1-2  1-3  2-3
--------------------------------------------------------------------------------
Si    c O1    s O1    s  1.261        0.0000    0.0000   109.470 0.00 0.00 0.00
                                                                 1.90 1.90 3.50
Si    c O1    s O2    s  1.261        0.0000    0.0000   109.470 0.00 0.00 0.00
                                                                 1.90 1.90 3.50
Si    c O2    s O2    s  1.261        0.0000    0.0000   109.470 0.00 0.00 0.00
                                                                 1.90 1.90 3.50
--------------------------------------------------------------------------------

********************************************************************************
*  Output for configuration   1                                                *
********************************************************************************


  Components of energy : 

--------------------------------------------------------------------------------
  Interatomic potentials     =        2066.09958189 eV
  Three-body potentials      =           0.47086627 eV
  Monopole - monopole (real) =       -6616.78831911 eV
  Monopole - monopole (recip)=       -3170.80190744 eV
  Monopole - monopole (total)=       -9787.59022655 eV
  Neutralising energy        =          -6.45894089 eV
--------------------------------------------------------------------------------
  Total lattice energy       =       -7727.47871928 eV
--------------------------------------------------------------------------------
  Total lattice energy       =         -745583.5711 kJ/(mole unit cells)
--------------------------------------------------------------------------------


  Number of variables =      939

  Maximum number of calculations  =          1000
  Maximum Hessian update interval =            10
  Maximum step size               =   1.000000000
  Maximum parameter tolerance     =   0.000010000
  Maximum function  tolerance     =   0.000010000
  Maximum gradient  tolerance     =   0.001000000
  Maximum gradient  component     =   0.010000000

  Symmetry not applied to optimisation

  Cell parameters to be optimised using strains

  Newton-Raphson optimiser to be used

  BFGS hessian update to be used

  Dumpfile to be written after every cycle

  Start of bulk optimisation :

  Cycle:      0 Energy:     -7727.478719  Gnorm:      0.012052  CPU:    1.048
  ** Hessian calculated **
  Cycle:      1 Energy:     -7727.479076  Gnorm:      0.003355  CPU:    2.624
  Cycle:      2 Energy:     -7727.479277  Gnorm:      0.006138  CPU:    4.006
  Cycle:      3 Energy:     -7727.480225  Gnorm:      0.010974  CPU:    6.050
  Cycle:      4 Energy:     -7727.482071  Gnorm:      0.009524  CPU:    8.094
  Cycle:      5 Energy:     -7727.484701  Gnorm:      0.008287  CPU:   10.139
  Cycle:      6 Energy:     -7727.487918  Gnorm:      0.009842  CPU:   12.183
  Cycle:      7 Energy:     -7727.490985  Gnorm:      0.010379  CPU:   13.895
  Cycle:      8 Energy:     -7727.494435  Gnorm:      0.013206  CPU:   15.608
  Cycle:      9 Energy:     -7727.498142  Gnorm:      0.016892  CPU:   17.321
  Cycle:     10 Energy:     -7727.502062  Gnorm:      0.014710  CPU:   18.858
  ** Hessian calculated **
  Cycle:     11 Energy:     -7727.503670  Gnorm:      0.009285  CPU:   21.103
  Cycle:     12 Energy:     -7727.505401  Gnorm:      0.012825  CPU:   22.484
  Cycle:     13 Energy:     -7727.507852  Gnorm:      0.012488  CPU:   23.999
  Cycle:     14 Energy:     -7727.509766  Gnorm:      0.012735  CPU:   25.380
  Cycle:     15 Energy:     -7727.511290  Gnorm:      0.009438  CPU:   26.761
  Cycle:     16 Energy:     -7727.512249  Gnorm:      0.009006  CPU:   28.143
  Cycle:     17 Energy:     -7727.512969  Gnorm:      0.007684  CPU:   29.659
  Cycle:     18 Energy:     -7727.513709  Gnorm:      0.008514  CPU:   31.040
  Cycle:     19 Energy:     -7727.514597  Gnorm:      0.009548  CPU:   32.422
  Cycle:     20 Energy:     -7727.515510  Gnorm:      0.008703  CPU:   33.803
  ** Hessian calculated **
  Cycle:     21 Energy:     -7727.520132  Gnorm:      0.008583  CPU:   37.359
  Cycle:     22 Energy:     -7727.527354  Gnorm:      0.008392  CPU:   39.734
  Cycle:     23 Energy:     -7727.536299  Gnorm:      0.008149  CPU:   41.778
  Cycle:     24 Energy:     -7727.551010  Gnorm:      0.007728  CPU:   44.153
  Cycle:     25 Energy:     -7727.568922  Gnorm:      0.007179  CPU:   46.197
  Cycle:     26 Energy:     -7727.596780  Gnorm:      0.006221  CPU:   48.572
  Cycle:     27 Energy:     -7727.627057  Gnorm:      0.004987  CPU:   50.617
  Cycle:     28 Energy:     -7727.658501  Gnorm:      0.003364  CPU:   52.661
  Cycle:     29 Energy:     -7727.677620  Gnorm:      0.001977  CPU:   54.375
  Cycle:     30 Energy:     -7727.680368  Gnorm:      0.000548  CPU:   55.758
  ** Hessian calculated **
  Cycle:     31 Energy:     -7727.680371  Gnorm:      0.000327  CPU:   57.989
  Cycle:     32 Energy:     -7727.680371  Gnorm:      0.000173  CPU:   59.547
  Cycle:     33 Energy:     -7727.680372  Gnorm:      0.000178  CPU:   60.929
  Cycle:     34 Energy:     -7727.680372  Gnorm:      0.000150  CPU:   62.311
  Cycle:     35 Energy:     -7727.680372  Gnorm:      0.000129  CPU:   63.694
  Cycle:     36 Energy:     -7727.680372  Gnorm:      0.000113  CPU:   65.077
  Cycle:     37 Energy:     -7727.680373  Gnorm:      0.000114  CPU:   66.459
  Cycle:     38 Energy:     -7727.680373  Gnorm:      0.000114  CPU:   67.842
  Cycle:     39 Energy:     -7727.680373  Gnorm:      0.000095  CPU:   69.224
  Cycle:     40 Energy:     -7727.680373  Gnorm:      0.000107  CPU:   70.971
  ** Hessian calculated **
  Cycle:     41 Energy:     -7727.680373  Gnorm:      0.000106  CPU:   73.218
  Cycle:     42 Energy:     -7727.680373  Gnorm:      0.000104  CPU:   74.600
  Cycle:     43 Energy:     -7727.680374  Gnorm:      0.000100  CPU:   76.104
  Cycle:     44 Energy:     -7727.680374  Gnorm:      0.000094  CPU:   77.486
  Cycle:     45 Energy:     -7727.680375  Gnorm:      0.000084  CPU:   78.873
  Cycle:     46 Energy:     -7727.680376  Gnorm:      0.000068  CPU:   80.255
  Cycle:     47 Energy:     -7727.680377  Gnorm:      0.000045  CPU:   81.788


  **** Optimisation achieved ****


  Final energy =   -7727.68037724 eV
  Final Gnorm  =       0.00001033

  Components of energy : 

--------------------------------------------------------------------------------
  Interatomic potentials     =        2067.00306896 eV
  Three-body potentials      =           0.47064651 eV
  Monopole - monopole (real) =       -6618.61495271 eV
  Monopole - monopole (recip)=       -3170.08165993 eV
  Monopole - monopole (total)=       -9788.69661264 eV
  Neutralising energy        =          -6.45748008 eV
--------------------------------------------------------------------------------
  Total lattice energy       =       -7727.68037724 eV
--------------------------------------------------------------------------------
  Total lattice energy       =         -745603.0280 kJ/(mole unit cells)
--------------------------------------------------------------------------------

  Final fractional coordinates of atoms :

--------------------------------------------------------------------------------
   No.  Atomic        x           y          z          Radius
        Label       (Frac)      (Frac)     (Frac)       (Angs) 
--------------------------------------------------------------------------------
     1  Ge    c     0.699600    0.375700    0.033890    0.000000
     2  Si    c     0.587547    0.287421    0.366634    0.000000
     3  Si    c     0.654318    0.272777    0.699226    0.000000
     4  Si    c     0.265218    0.591655    0.532665    0.000000
     5  Ge    c     0.369203    0.650452    0.868000    0.000000
     6  Si    c     0.292494    0.684136    0.201135    0.000000
     7  Si    c     0.346196    0.673395    0.303251    0.000000
     8  Si    c     0.301397    0.613984    0.966041    0.000000
     9  Si    c     0.273102    0.649875    0.633449    0.000000
    10  Si    c     0.604054    0.275367    0.799391    0.000000
    11  Si    c     0.641657    0.348610    0.468326    0.000000
    12  Si    c     0.658732    0.299374    0.131166    0.000000
    13  Si    c     0.519875    0.408487    0.965516    0.000000
    14  Ge    c     0.536345    0.068185    0.300637    0.000000
    15  Si    c     0.862692    0.444094    0.635013    0.000000
    16  Si    c     0.433150    0.551177    0.467114    0.000000
    17  Si    c     0.401126    0.861727    0.801279    0.000000
    18  Si    c     0.080391    0.511706    0.134402    0.000000
    19  Si    c     0.383245    0.494679    0.365809    0.000000
    20  Si    c     0.090670    0.570477    0.031644    0.000000
    21  Si    c     0.448474    0.862197    0.698578    0.000000
    22  Si    c     0.568774    0.454982    0.861985    0.000000
    23  Si    c     0.856047    0.389129    0.533289    0.000000
    24  Si    c     0.500407    0.102379    0.201819    0.000000
    25  Si    c     0.280408    0.379431    0.845123    0.000000
    26  Si    c     0.573643    0.889527    0.186953    0.000000
    27  Si    c     0.063360    0.668614    0.518425    0.000000
    28  Si    c     0.662130    0.565999    0.352252    0.000000
    29  Si    c     0.376841    0.071516    0.684014    0.000000
    30  Si    c     0.880374    0.284106    0.012904    0.000000
    31  Si    c     0.363159    0.271577    0.481497    0.000000
    32  Si    c     0.866581    0.583209    0.145198    0.000000
    33  Si    c     0.683186    0.076108    0.814193    0.000000
    34  Si    c     0.586809    0.693467    0.977132    0.000000
    35  Si    c     0.072673    0.372283    0.648890    0.000000
    36  Si    c     0.264214    0.873480    0.322173    0.000000
    37  Si    c     0.237030    0.331572    0.948254    0.000000
    38  Si    c     0.633188    0.886820    0.289392    0.000000
    39  Si    c     0.063066    0.721791    0.619151    0.000000
    40  Si    c     0.711718    0.628687    0.452866    0.000000
    41  Si    c     0.324354    0.064310    0.784530    0.000000
    42  Si    c     0.876672    0.231534    0.116349    0.000000
    43  Si    c     0.305962    0.217497    0.380405    0.000000
    44  Si    c     0.890544    0.656647    0.043248    0.000000
    45  Si    c     0.727720    0.065569    0.713363    0.000000
    46  Si    c     0.651433    0.739444    0.874692    0.000000
    47  Si    c     0.057886    0.311819    0.548071    0.000000
    48  Si    c     0.219964    0.895691    0.219115    0.000000
    49  Si    c     0.962536    0.111775    0.965575    0.000000
    50  Si    c     0.842085    0.810150    0.301487    0.000000
    51  Si    c     0.125627    0.001686    0.633510    0.000000
    52  Si    c     0.991063    0.847606    0.468697    0.000000
    53  Si    c     0.105976    0.123414    0.797926    0.000000
    54  Si    c     0.817962    0.954359    0.134663    0.000000
    55  Si    c     0.082485    0.936711    0.368386    0.000000
    56  Si    c     0.833809    0.875480    0.032385    0.000000
    57  Si    c     0.005172    0.123269    0.698031    0.000000
    58  Si    c     0.870528    0.013066    0.864716    0.000000
    59  Si    c     0.117841    0.092999    0.532820    0.000000
    60  Si    c     0.937023    0.827741    0.199975    0.000000
    61  O2    c     0.919502    0.002308    0.003559    0.000000
    62  O2    c     0.964625    0.894866    0.333373    0.000000
    63  O2    c     0.045698    0.044179    0.665082    0.000000
    64  O2    c     0.033450    0.969505    0.501104    0.000000
    65  O2    c     0.993477    0.057679    0.833994    0.000000
    66  O2    c     0.898706    0.914186    0.168479    0.000000
    67  O2    c     0.307675    0.546219    0.332519    0.000000
    68  O2    c     0.397965    0.736131    0.665998    0.000000
    69  O2    c     0.221856    0.645005    0.003658    0.000000
    70  O2    c     0.642228    0.400185    0.831606    0.000000
    71  O2    c     0.542807    0.218104    0.165650    0.000000
    72  O2    c     0.727630    0.311634    0.501452    0.000000
    73  O3    c     0.564527    0.334374    0.997762    0.000000
    74  O2    c     0.738704    0.396377    0.667126    0.000000
    75  O3    c     0.624902    0.204211    0.336346    0.000000
    76  O2    c     0.385153    0.628301    0.499182    0.000000
    77  O2    c     0.204805    0.562402    0.168051    0.000000
    78  O3    c     0.325695    0.743017    0.833081    0.000000
    79  O2    c     0.116575    0.204105    0.969875    0.000000
    80  O2    c     0.751466    0.871300    0.307743    0.000000
    81  O2    c     0.063565    0.848065    0.639108    0.000000
    82  O2    c     0.837340    0.755607    0.473612    0.000000
    83  O2    c     0.195791    0.059705    0.804178    0.000000
    84  O2    c     0.879121    0.108692    0.138273    0.000000
    85  O2    c     0.178791    0.088823    0.360864    0.000000
    86  O2    c     0.908114    0.794972    0.028731    0.000000
    87  O2    c     0.851310    0.063098    0.692562    0.000000
    88  O2    c     0.788106    0.859116    0.858784    0.000000
    89  O2    c     0.055138    0.184439    0.527997    0.000000
    90  O2    c     0.091767    0.890843    0.197642    0.000000
    91  O2    c     0.890691    0.826192    0.250254    0.000000
    92  O2    c     0.110433    0.040867    0.583018    0.000000
    93  O2    c     0.919272    0.047851    0.916585    0.000000
    94  O2    c     0.042784    0.102380    0.748369    0.000000
    95  O2    c     0.828361    0.913833    0.084149    0.000000
    96  O2    c     0.027739    0.903476    0.418405    0.000000
    97  O2    c     0.895512    0.196563    0.974982    0.000000
    98  O2    c     0.761908    0.659448    0.313583    0.000000
    99  O2    c     0.277687    0.071814    0.645625    0.000000
   100  O2    c     0.062133    0.766358    0.480145    0.000000
   101  O2    c     0.191096    0.275484    0.806976    0.000000
   102  O2    c     0.667432    0.887671    0.148001    0.000000
   103  O2    c     0.154870    0.856406    0.357856    0.000000
   104  O2    c     0.685859    0.791719    0.015659    0.000000
   105  O2    c     0.076102    0.275540    0.687097    0.000000
   106  O2    c     0.785018    0.079049    0.852515    0.000000
   107  O2    c     0.267738    0.173567    0.519442    0.000000
   108  O2    c     0.867684    0.679587    0.183613    0.000000
   109  O2    c     0.297542    0.629958    0.250781    0.000000
   110  O2    c     0.326851    0.649622    0.582837    0.000000
   111  O3    c     0.291534    0.668153    0.918234    0.000000
   112  O2    c     0.657712    0.333317    0.749218    0.000000
   113  O3    c     0.600598    0.296450    0.082391    0.000000
   114  O2    c     0.640213    0.291242    0.418508    0.000000
   115  O2    c     0.362859    0.327465    0.965179    0.000000
   116  O3    c     0.653022    0.017376    0.309176    0.000000
   117  O2    c     0.931993    0.600214    0.637738    0.000000
   118  O2    c     0.589626    0.638991    0.470525    0.000000
   119  O2    c     0.315713    0.933685    0.802273    0.000000
   120  O2    c     0.007022    0.356393    0.135667    0.000000
   121  O2    c     0.293315    0.338883    0.361498    0.000000
   122  O2    c     0.023216    0.658736    0.029307    0.000000
   123  O2    c     0.604642    0.933238    0.694927    0.000000
   124  O2    c     0.655126    0.610600    0.859686    0.000000
   125  O2    c     0.924526    0.301673    0.529747    0.000000
   126  O2    c     0.341540    0.025906    0.200423    0.000000
   127  O3    c     0.749131    0.280327    0.002408    0.000000
   128  O2    c     0.661580    0.432754    0.345579    0.000000
   129  O2    c     0.510865    0.204514    0.675769    0.000000
   130  O2    c     0.196043    0.666736    0.510317    0.000000
   131  O3    c     0.274365    0.505501    0.835532    0.000000
   132  O2    c     0.435319    0.758677    0.179994    0.000000
   133  O2    c     0.267886    0.739433    0.323312    0.000000
   134  O2    c     0.451700    0.690623    0.984973    0.000000
   135  O2    c     0.206881    0.506974    0.655750    0.000000
   136  O2    c     0.683182    0.210428    0.821861    0.000000
   137  O2    c     0.498783    0.275265    0.490092    0.000000
   138  O2    c     0.735032    0.447941    0.151076    0.000000
   139  O3    c     0.767202    0.544238    0.019368    0.000000
   140  O2    c     0.430366    0.218056    0.360569    0.000000
   141  O2    c     0.730087    0.192599    0.693926    0.000000
   142  O2    c     0.183329    0.435717    0.528118    0.000000
   143  O3    c     0.536774    0.749180    0.852275    0.000000
   144  O2    c     0.225610    0.771881    0.200552    0.000000
   145  O2    c     0.500411    0.764098    0.306955    0.000000
   146  O2    c     0.237072    0.457208    0.967836    0.000000
   147  O2    c     0.190779    0.723266    0.638350    0.000000
   148  O2    c     0.448305    0.192874    0.804901    0.000000
   149  O2    c     0.713519    0.504341    0.472637    0.000000
   150  O2    c     0.751363    0.234468    0.133364    0.000000
   151  O2    c     0.216560    0.315619    0.893967    0.000000
   152  O2    c     0.641962    0.887167    0.234046    0.000000
   153  O2    c     0.061778    0.739878    0.564768    0.000000
   154  O2    c     0.731833    0.644859    0.398532    0.000000
   155  O2    c     0.304947    0.069568    0.730248    0.000000
   156  O2    c     0.880928    0.219705    0.062065    0.000000
   157  O2    c     0.289705    0.199925    0.434699    0.000000
   158  O2    c     0.874726    0.655132    0.098281    0.000000
   159  O2    c     0.750673    0.069651    0.767784    0.000000
   160  O2    c     0.654874    0.756926    0.930021    0.000000
   161  O2    c     0.063878    0.296250    0.602400    0.000000
   162  O2    c     0.206585    0.891694    0.273273    0.000000
   163  O2    c     0.566915    0.552517    0.984570    0.000000
   164  O3    c     0.396408    0.995024    0.335917    0.000000
   165  O2    c     0.948961    0.388258    0.657949    0.000000
   166  O2    c     0.375352    0.410103    0.489929    0.000000
   167  O2    c     0.544677    0.953307    0.823551    0.000000
   168  O2    c     0.989945    0.564397    0.153354    0.000000
   169  O2    c     0.523168    0.554365    0.341884    0.000000
   170  O2    c     0.002446    0.430027    0.009142    0.000000
   171  O2    c     0.389170    0.945281    0.675731    0.000000
   172  O2    c     0.425871    0.402769    0.840861    0.000000
   173  O2    c     0.937237    0.529353    0.509654    0.000000
   174  O2    c     0.555646    0.012714    0.180859    0.000000
   175  O3    c     0.556070    0.162746    0.250102    0.000000
   176  O2    c     0.806664    0.390051    0.584201    0.000000
   177  O2    c     0.567515    0.411629    0.914019    0.000000
   178  O2    c     0.402332    0.812568    0.749595    0.000000
   179  O2    c     0.130335    0.562226    0.084040    0.000000
   180  O2    c     0.379732    0.550844    0.415708    0.000000
   181  F     c     0.443751    0.924178    0.261854    0.000000
   182  F     c     0.067943    0.520564    0.582897    0.000000
   183  F     c     0.423729    0.561413    0.905233    0.000000
   184  F     c     0.532836    0.079790    0.748589    0.000000
   185  F     c     0.842181    0.427440    0.072080    0.000000
   186  F     c     0.507919    0.423877    0.415823    0.000000
   187  O2    s     0.914544    0.000038    0.002640    0.000000
   188  O2    s     0.963886    0.889843    0.333663    0.000000
   189  O2    s     0.050109    0.048307    0.665245    0.000000
   190  O2    s     0.038088    0.969545    0.500987    0.000000
   191  O2    s     0.992010    0.060009    0.833456    0.000000
   192  O2    s     0.894029    0.909277    0.168178    0.000000
   193  O2    s     0.319182    0.554898    0.332588    0.000000
   194  O2    s     0.390241    0.740051    0.665943    0.000000
   195  O2    s     0.215562    0.633833    0.002948    0.000000
   196  O2    s     0.630684    0.393418    0.831561    0.000000
   197  O2    s     0.550715    0.214755    0.165713    0.000000
   198  O2    s     0.731957    0.323446    0.501295    0.000000
   199  O3    s     0.569130    0.345612    0.996723    0.000000
   200  O2    s     0.743002    0.388735    0.667066    0.000000
   201  O3    s     0.614586    0.203678    0.337126    0.000000
   202  O2    s     0.377863    0.616621    0.499303    0.000000
   203  O2    s     0.200890    0.569762    0.167973    0.000000
   204  O3    s     0.337026    0.749270    0.832142    0.000000
   205  O2    s     0.112270    0.207159    0.967229    0.000000
   206  O2    s     0.748536    0.866079    0.305014    0.000000
   207  O2    s     0.070102    0.851313    0.636477    0.000000
   208  O2    s     0.840790    0.752323    0.470968    0.000000
   209  O2    s     0.199108    0.067076    0.801530    0.000000
   210  O2    s     0.872442    0.105256    0.135635    0.000000
   211  O2    s     0.181494    0.085769    0.363608    0.000000
   212  O2    s     0.898398    0.789255    0.030617    0.000000
   213  O2    s     0.855080    0.069807    0.695261    0.000000
   214  O2    s     0.782866    0.863320    0.861056    0.000000
   215  O2    s     0.062099    0.187818    0.530550    0.000000
   216  O2    s     0.088617    0.884653    0.200089    0.000000
   217  O2    s     0.890729    0.824615    0.250066    0.000000
   218  O2    s     0.113009    0.042394    0.583000    0.000000
   219  O2    s     0.918972    0.051470    0.916591    0.000000
   220  O2    s     0.045748    0.107114    0.748358    0.000000
   221  O2    s     0.827795    0.914284    0.084248    0.000000
   222  O2    s     0.029951    0.901069    0.418250    0.000000
   223  O2    s     0.901214    0.196788    0.978056    0.000000
   224  O2    s     0.760778    0.666526    0.316057    0.000000
   225  O2    s     0.271517    0.064273    0.648239    0.000000
   226  O2    s     0.054728    0.765136    0.482778    0.000000
   227  O2    s     0.191349    0.269922    0.810070    0.000000
   228  O2    s     0.673568    0.894790    0.150571    0.000000
   229  O2    s     0.158488    0.866447    0.355300    0.000000
   230  O2    s     0.691853    0.790819    0.013547    0.000000
   231  O2    s     0.068339    0.269356    0.684393    0.000000
   232  O2    s     0.784044    0.071738    0.850020    0.000000
   233  O2    s     0.261563    0.175083    0.516947    0.000000
   234  O2    s     0.875007    0.685274    0.181279    0.000000
   235  O2    s     0.301861    0.640111    0.250688    0.000000
   236  O2    s     0.315167    0.643762    0.582854    0.000000
   237  O3    s     0.297372    0.661253    0.920243    0.000000
   238  O2    s     0.651865    0.321244    0.749288    0.000000
   239  O3    s     0.613277    0.301946    0.084430    0.000000
   240  O2    s     0.635067    0.296938    0.418574    0.000000
   241  O2    s     0.364874    0.336146    0.963338    0.000000
   242  O3    s     0.643012    0.006705    0.306427    0.000000
   243  O2    s     0.938654    0.596957    0.635495    0.000000
   244  O2    s     0.586370    0.628895    0.468306    0.000000
   245  O2    s     0.325205    0.940979    0.800195    0.000000
   246  O2    s     0.001404    0.360004    0.133548    0.000000
   247  O2    s     0.303761    0.342540    0.363848    0.000000
   248  O2    s     0.016968    0.649353    0.030955    0.000000
   249  O2    s     0.601539    0.939860    0.697247    0.000000
   250  O2    s     0.645794    0.607484    0.861450    0.000000
   251  O2    s     0.931454    0.311731    0.532036    0.000000
   252  O2    s     0.343919    0.019445    0.202548    0.000000
   253  O3    s     0.759936    0.287130    0.005706    0.000000
   254  O2    s     0.654292    0.432919    0.348429    0.000000
   255  O2    s     0.511496    0.197558    0.679063    0.000000
   256  O2    s     0.189182    0.659281    0.513475    0.000000
   257  O3    s     0.281348    0.501653    0.838792    0.000000
   258  O2    s     0.434539    0.764286    0.182928    0.000000
   259  O2    s     0.275719    0.746079    0.321055    0.000000
   260  O2    s     0.451285    0.683559    0.982314    0.000000
   261  O2    s     0.199557    0.507416    0.652722    0.000000
   262  O2    s     0.675156    0.203278    0.818764    0.000000
   263  O2    s     0.499137    0.282442    0.486911    0.000000
   264  O2    s     0.741894    0.448262    0.148502    0.000000
   265  O3    s     0.776339    0.545631    0.022836    0.000000
   266  O2    s     0.432194    0.225023    0.363299    0.000000
   267  O2    s     0.721901    0.187062    0.696550    0.000000
   268  O2    s     0.178188    0.438564    0.530726    0.000000
   269  O3    s     0.538538    0.741630    0.855690    0.000000
   270  O2    s     0.232262    0.775493    0.202556    0.000000
   271  O2    s     0.497259    0.767019    0.304748    0.000000
   272  O2    s     0.243468    0.459335    0.965579    0.000000
   273  O2    s     0.185404    0.715348    0.635778    0.000000
   274  O2    s     0.451322    0.187791    0.802218    0.000000
   275  O2    s     0.705720    0.501658    0.470052    0.000000
   276  O2    s     0.756121    0.240590    0.131281    0.000000
   277  O2    s     0.224951    0.323569    0.895004    0.000000
   278  O2    s     0.633627    0.887404    0.234395    0.000000
   279  O2    s     0.062075    0.730466    0.565632    0.000000
   280  O2    s     0.722481    0.634995    0.399392    0.000000
   281  O2    s     0.314561    0.069262    0.731097    0.000000
   282  O2    s     0.880408    0.227264    0.063118    0.000000
   283  O2    s     0.299139    0.209326    0.433837    0.000000
   284  O2    s     0.875363    0.647343    0.097909    0.000000
   285  O2    s     0.741267    0.069907    0.766897    0.000000
   286  O2    s     0.647078    0.748328    0.929740    0.000000
   287  O2    s     0.064156    0.305848    0.601495    0.000000
   288  O2    s     0.213632    0.890450    0.272007    0.000000
   289  O2    s     0.564131    0.553374    0.981784    0.000000
   290  O3    s     0.391398    0.986453    0.332058    0.000000
   291  O2    s     0.953534    0.392530    0.654578    0.000000
   292  O2    s     0.380241    0.409925    0.486627    0.000000
   293  O2    s     0.545629    0.957997    0.820263    0.000000
   294  O2    s     0.986588    0.560628    0.150447    0.000000
   295  O2    s     0.523405    0.549363    0.345407    0.000000
   296  O2    s     0.999414    0.430394    0.011967    0.000000
   297  O2    s     0.394167    0.950406    0.678998    0.000000
   298  O2    s     0.426307    0.406177    0.843587    0.000000
   299  O2    s     0.942553    0.529799    0.513042    0.000000
   300  O2    s     0.552150    0.007801    0.183579    0.000000
   301  O3    s     0.548740    0.150077    0.248156    0.000000
   302  O2    s     0.817663    0.395565    0.584137    0.000000
   303  O2    s     0.562755    0.415923    0.913815    0.000000
   304  O2    s     0.407152    0.822765    0.749315    0.000000
   305  O2    s     0.120815    0.557601    0.084096    0.000000
   306  O2    s     0.385542    0.545088    0.415791    0.000000
   307  F     s     0.449788    0.933833    0.264328    0.000000
   308  F     s     0.068348    0.520778    0.582813    0.000000
   309  F     s     0.419624    0.568233    0.902588    0.000000
   310  F     s     0.533446    0.081071    0.748497    0.000000
   311  F     s     0.831671    0.423760    0.069331    0.000000
   312  F     s     0.507552    0.424268    0.415702    0.000000
--------------------------------------------------------------------------------

  Final Cartesian lattice vectors (Angstroms) :

       11.967607    0.003917   -0.026822
       -5.999292   10.386200    0.017754
       -0.443734   -0.221113   29.449899


  Final cell parameters and derivatives :

--------------------------------------------------------------------------------
       a           11.967638 Angstrom     dE/de1(xx)     0.000448 eV/strain
       b           11.994372 Angstrom     dE/de2(yy)     0.000338 eV/strain
       c           29.454072 Angstrom     dE/de3(zz)     0.000619 eV/strain
       alpha       89.855914 Degrees      dE/de4(yz)    -0.000082 eV/strain
       beta        90.991759 Degrees      dE/de5(xz)    -0.000069 eV/strain
       gamma      119.992996 Degrees      dE/de6(xy)    -0.000091 eV/strain
--------------------------------------------------------------------------------

  Primitive cell volume =          3661.142294 Angs**3

  Density of cell =      1.747567 g/cm**3

  Non-primitive cell volume =          3661.142294 Angs**3


  Final internal derivatives :

--------------------------------------------------------------------------------
   No.  Atomic          a             b             c           Radius
        Label          (eV)          (eV)          (eV)        (eV/Angs)
--------------------------------------------------------------------------------
      1 Ge    c       0.000000      0.000000      0.000000      0.000000
      2 Si    c      -0.000252      0.000190     -0.000054      0.000000
      3 Si    c      -0.000214      0.000247     -0.000117      0.000000
      4 Si    c       0.000114     -0.000218      0.000097      0.000000
      5 Ge    c       0.000075      0.000008      0.000299      0.000000
      6 Si    c      -0.000059     -0.000105     -0.000237      0.000000
      7 Si    c       0.000063     -0.000134     -0.000028      0.000000
      8 Si    c      -0.000109      0.000126      0.000196      0.000000
      9 Si    c       0.000106     -0.000127     -0.000117      0.000000
     10 Si    c      -0.000224      0.000115     -0.000212      0.000000
     11 Si    c      -0.000155      0.000169      0.000142      0.000000
     12 Si    c       0.000338      0.000498      0.000615      0.000000
     13 Si    c       0.000103     -0.000110      0.000505      0.000000
     14 Ge    c      -0.000314      0.000140      0.000336      0.000000
     15 Si    c      -0.000295      0.000254      0.000130      0.000000
     16 Si    c       0.000128     -0.000200     -0.000033      0.000000
     17 Si    c      -0.000047      0.000147     -0.000028      0.000000
     18 Si    c      -0.000134      0.000091     -0.001223      0.000000
     19 Si    c       0.000180     -0.000144     -0.000133      0.000000
     20 Si    c      -0.000267     -0.000118      0.000676      0.000000
     21 Si    c       0.000023     -0.000021      0.000075      0.000000
     22 Si    c      -0.000264     -0.000033      0.000109      0.000000
     23 Si    c      -0.000172      0.000243      0.000278      0.000000
     24 Si    c      -0.000381      0.000103      0.000567      0.000000
     25 Si    c       0.000357     -0.000409     -0.000202      0.000000
     26 Si    c       0.000010      0.000120     -0.000645      0.000000
     27 Si    c      -0.000144      0.000147     -0.000033      0.000000
     28 Si    c      -0.000066     -0.000174     -0.000296      0.000000
     29 Si    c      -0.000167      0.000080      0.000201      0.000000
     30 Si    c       0.000025     -0.000039      0.001110      0.000000
     31 Si    c       0.000108      0.000019      0.000195      0.000000
     32 Si    c      -0.000169     -0.000665     -0.002078      0.000000
     33 Si    c      -0.000054     -0.000037      0.000094      0.000000
     34 Si    c      -0.000149      0.000248      0.000428      0.000000
     35 Si    c       0.000092     -0.000204      0.000032      0.000000
     36 Si    c      -0.000220      0.000344     -0.000158      0.000000
     37 Si    c       0.000316     -0.000252      0.000264      0.000000
     38 Si    c       0.000093     -0.000195      0.000121      0.000000
     39 Si    c      -0.000092      0.000129     -0.000006      0.000000
     40 Si    c      -0.000117     -0.000009      0.000082      0.000000
     41 Si    c      -0.000149      0.000184      0.000064      0.000000
     42 Si    c       0.000244     -0.000243     -0.001290      0.000000
     43 Si    c       0.000120     -0.000050     -0.000140      0.000000
     44 Si    c       0.000382     -0.000568     -0.000376      0.000000
     45 Si    c      -0.000009     -0.000051     -0.000166      0.000000
     46 Si    c      -0.000155     -0.000191      0.000367      0.000000
     47 Si    c       0.000162     -0.000166      0.000047      0.000000
     48 Si    c      -0.000144      0.000082     -0.000441      0.000000
     49 Si    c       0.000046     -0.000345      0.000280      0.000000
     50 Si    c       0.000223     -0.000200      0.000238      0.000000
     51 Si    c      -0.000000      0.000100      0.000148      0.000000
     52 Si    c       0.000075     -0.000001     -0.000125      0.000000
     53 Si    c       0.000397     -0.000333      0.000402      0.000000
     54 Si    c       0.000091      0.000110     -0.001204      0.000000
     55 Si    c       0.000043     -0.000168     -0.000210      0.000000
     56 Si    c      -0.000102      0.000398     -0.000337      0.000000
     57 Si    c       0.000208     -0.000184      0.000029      0.000000
     58 Si    c       0.000404     -0.000161      0.000184      0.000000
     59 Si    c       0.000021     -0.000023     -0.000086      0.000000
     60 Si    c       0.000207      0.000015     -0.000124      0.000000
     61 O2    c      -0.000067      0.000221     -0.000716      0.000000
     62 O2    c       0.000244     -0.000106      0.000066      0.000000
     63 O2    c       0.000002     -0.000034     -0.000032      0.000000
     64 O2    c      -0.000039     -0.000078     -0.000090      0.000000
     65 O2    c       0.000117     -0.000329     -0.000384      0.000000
     66 O2    c       0.000260     -0.000309      0.000415      0.000000
     67 O2    c       0.000013      0.000022     -0.000205      0.000000
     68 O2    c       0.000066     -0.000029      0.000047      0.000000
     69 O2    c       0.000003      0.000082     -0.000130      0.000000
     70 O2    c      -0.000092      0.000136     -0.000230      0.000000
     71 O2    c      -0.000216     -0.000336      0.000432      0.000000
     72 O2    c      -0.000026      0.000116     -0.000030      0.000000
     73 O3    c      -0.000097     -0.000151     -0.000865      0.000000
     74 O2    c      -0.000090      0.000147     -0.000111      0.000000
     75 O3    c      -0.000198      0.000106     -0.000173      0.000000
     76 O2    c      -0.000021     -0.000109      0.000156      0.000000
     77 O2    c       0.000121     -0.000189     -0.000317      0.000000
     78 O3    c      -0.000096      0.000114     -0.000009      0.000000
     79 O2    c       0.000152      0.000074      0.000249      0.000000
     80 O2    c      -0.000162      0.000073     -0.000095      0.000000
     81 O2    c      -0.000004     -0.000012     -0.000081      0.000000
     82 O2    c      -0.000076      0.000000     -0.000010      0.000000
     83 O2    c      -0.000080      0.000215     -0.000246      0.000000
     84 O2    c       0.000026     -0.000164      0.000085      0.000000
     85 O2    c       0.000155     -0.000036      0.000135      0.000000
     86 O2    c      -0.000249     -0.000311      0.000062      0.000000
     87 O2    c       0.000172     -0.000108      0.000038      0.000000
     88 O2    c       0.000056     -0.000250      0.000029      0.000000
     89 O2    c       0.000064     -0.000092      0.000168      0.000000
     90 O2    c       0.000123     -0.000142     -0.000262      0.000000
     91 O2    c       0.000113     -0.000166      0.000830      0.000000
     92 O2    c       0.000059     -0.000090      0.000198      0.000000
     93 O2    c       0.000218     -0.000027      0.000053      0.000000
     94 O2    c       0.000212     -0.000096     -0.000598      0.000000
     95 O2    c      -0.000103      0.000260     -0.000604      0.000000
     96 O2    c       0.000056     -0.000109      0.000002      0.000000
     97 O2    c       0.000075     -0.000433      0.000115      0.000000
     98 O2    c       0.000095     -0.000127      0.000098      0.000000
     99 O2    c      -0.000141      0.000032      0.000347      0.000000
    100 O2    c      -0.000119     -0.000042      0.000308      0.000000
    101 O2    c       0.000393     -0.000254     -0.000111      0.000000
    102 O2    c       0.000147      0.000163      0.000130      0.000000
    103 O2    c      -0.000162      0.000181     -0.000242      0.000000
    104 O2    c       0.000041      0.000105      0.000191      0.000000
    105 O2    c       0.000134     -0.000127     -0.000465      0.000000
    106 O2    c      -0.000061     -0.000051     -0.000385      0.000000
    107 O2    c      -0.000021     -0.000040     -0.000129      0.000000
    108 O2    c       0.000159      0.000251      0.000882      0.000000
    109 O2    c      -0.000040     -0.000114     -0.000067      0.000000
    110 O2    c       0.000084     -0.000021      0.000173      0.000000
    111 O3    c       0.000196     -0.000164     -0.000495      0.000000
    112 O2    c      -0.000110      0.000117     -0.000398      0.000000
    113 O3    c       0.000537      0.000752      0.002342      0.000000
    114 O2    c      -0.000123      0.000158      0.000117      0.000000
    115 O2    c       0.000046      0.000103      0.000130      0.000000
    116 O3    c       0.000307     -0.000122      0.000101      0.000000
    117 O2    c      -0.000094      0.000192      0.000017      0.000000
    118 O2    c       0.000073     -0.000129      0.000027      0.000000
    119 O2    c      -0.000073      0.000144      0.000273      0.000000
    120 O2    c       0.000174     -0.000034     -0.000177      0.000000
    121 O2    c       0.000058     -0.000200     -0.000049      0.000000
    122 O2    c      -0.000366     -0.000015      0.000262      0.000000
    123 O2    c      -0.000003     -0.000033     -0.000087      0.000000
    124 O2    c      -0.000065      0.000340     -0.000019      0.000000
    125 O2    c       0.000020     -0.000062     -0.000230      0.000000
    126 O2    c       0.000057      0.000142      0.000033      0.000000
    127 O3    c      -0.000107      0.000120      0.001717      0.000000
    128 O2    c      -0.000058      0.000026     -0.000192      0.000000
    129 O2    c      -0.000064      0.000061     -0.000009      0.000000
    130 O2    c      -0.000037      0.000000     -0.000319      0.000000
    131 O3    c       0.000153     -0.000037     -0.000317      0.000000
    132 O2    c      -0.000192      0.000083     -0.000153      0.000000
    133 O2    c       0.000020      0.000011      0.000272      0.000000
    134 O2    c      -0.000088     -0.000133     -0.000009      0.000000
    135 O2    c       0.000056      0.000029      0.000061      0.000000
    136 O2    c       0.000033     -0.000036      0.000286      0.000000
    137 O2    c      -0.000007      0.000111     -0.000032      0.000000
    138 O2    c       0.000262     -0.000018     -0.000540      0.000000
    139 O3    c       0.000478     -0.000515      0.002236      0.000000
    140 O2    c      -0.000107      0.000017     -0.000178      0.000000
    141 O2    c       0.000038     -0.000095     -0.000139      0.000000
    142 O2    c       0.000031     -0.000088      0.000070      0.000000
    143 O3    c       0.000188     -0.000152      0.000281      0.000000
    144 O2    c      -0.000146      0.000252     -0.000430      0.000000
    145 O2    c       0.000098     -0.000025     -0.000023      0.000000
    146 O2    c       0.000215     -0.000170      0.000218      0.000000
    147 O2    c      -0.000047      0.000121      0.000299      0.000000
    148 O2    c      -0.000105      0.000094     -0.000036      0.000000
    149 O2    c      -0.000072      0.000080     -0.000015      0.000000
    150 O2    c      -0.000146      0.000175      0.000493      0.000000
    151 O2    c       0.000335     -0.000348     -0.000419      0.000000
    152 O2    c       0.000123     -0.000053      0.000148      0.000000
    153 O2    c      -0.000073      0.000055     -0.000186      0.000000
    154 O2    c       0.000051      0.000039     -0.000069      0.000000
    155 O2    c      -0.000011      0.000037     -0.000325      0.000000
    156 O2    c       0.000128      0.000008      0.000586      0.000000
    157 O2    c      -0.000010     -0.000093     -0.000027      0.000000
    158 O2    c       0.000766     -0.000255     -0.001244      0.000000
    159 O2    c      -0.000039      0.000046      0.000166      0.000000
    160 O2    c       0.000155     -0.000092      0.000668      0.000000
    161 O2    c       0.000089     -0.000083      0.000152      0.000000
    162 O2    c       0.000013     -0.000008      0.000863      0.000000
    163 O2    c      -0.000127     -0.000084      0.000292      0.000000
    164 O3    c      -0.000423      0.000371     -0.000607      0.000000
    165 O2    c       0.000005     -0.000037      0.000334      0.000000
    166 O2    c       0.000095     -0.000069      0.000011      0.000000
    167 O2    c      -0.000050      0.000075      0.000201      0.000000
    168 O2    c      -0.000139      0.000322      0.000202      0.000000
    169 O2    c       0.000000     -0.000234     -0.000138      0.000000
    170 O2    c      -0.000004     -0.000123      0.000750      0.000000
    171 O2    c      -0.000015      0.000042     -0.000249      0.000000
    172 O2    c       0.000080      0.000023     -0.000287      0.000000
    173 O2    c      -0.000163      0.000050      0.000010      0.000000
    174 O2    c       0.000153     -0.000422     -0.000322      0.000000
    175 O3    c      -0.000306      0.000468     -0.000071      0.000000
    176 O2    c      -0.000173      0.000135     -0.000357      0.000000
    177 O2    c      -0.000070      0.000060      0.000259      0.000000
    178 O2    c      -0.000052      0.000013     -0.000039      0.000000
    179 O2    c      -0.000237      0.000161     -0.000464      0.000000
    180 O2    c       0.000105     -0.000157     -0.000069      0.000000
    181 F     c      -0.000073     -0.000031     -0.000206      0.000000
    182 F     c      -0.000043      0.000010      0.000102      0.000000
    183 F     c      -0.000025     -0.000001     -0.000003      0.000000
    184 F     c      -0.000021     -0.000022      0.000038      0.000000
    185 F     c       0.000176     -0.000426     -0.000197      0.000000
    186 F     c       0.000017     -0.000011      0.000040      0.000000
    187 O2    s      -0.000003     -0.000296     -0.000054      0.000000
    188 O2    s      -0.000257      0.000237      0.000192      0.000000
    189 O2    s      -0.000037      0.000080     -0.000358      0.000000
    190 O2    s      -0.000049      0.000053     -0.000029      0.000000
    191 O2    s      -0.000649      0.000368     -0.000130      0.000000
    192 O2    s      -0.000486      0.000380      0.000055      0.000000
    193 O2    s      -0.000056      0.000093      0.000230      0.000000
    194 O2    s       0.000008     -0.000065     -0.000098      0.000000
    195 O2    s       0.000115     -0.000053     -0.000431      0.000000
    196 O2    s       0.000010     -0.000068      0.000144      0.000000
    197 O2    s       0.000103      0.000594      0.000278      0.000000
    198 O2    s       0.000118     -0.000238     -0.000051      0.000000
    199 O3    s      -0.000127      0.000001      0.001609      0.000000
    200 O2    s       0.000198     -0.000209      0.000003      0.000000
    201 O3    s       0.000221     -0.000528      0.000361      0.000000
    202 O2    s      -0.000135      0.000096     -0.000114      0.000000
    203 O2    s      -0.000070      0.000404      0.000274      0.000000
    204 O3    s       0.000248     -0.000176     -0.000320      0.000000
    205 O2    s      -0.000233      0.000189     -0.000366      0.000000
    206 O2    s      -0.000187      0.000007      0.000276      0.000000
    207 O2    s      -0.000008      0.000025      0.000131      0.000000
    208 O2    s       0.000013      0.000005      0.000211      0.000000
    209 O2    s       0.000204     -0.000065      0.000069      0.000000
    210 O2    s       0.000097      0.000115      0.001135      0.000000
    211 O2    s      -0.000272      0.000151     -0.000047      0.000000
    212 O2    s      -0.000691     -0.000089     -0.000405      0.000000
    213 O2    s      -0.000016      0.000104     -0.000272      0.000000
    214 O2    s      -0.000124      0.000364     -0.000676      0.000000
    215 O2    s      -0.000028      0.000048     -0.000228      0.000000
    216 O2    s      -0.000078      0.000136      0.000672      0.000000
    217 O2    s      -0.000314      0.000277      0.000376      0.000000
    218 O2    s       0.000141      0.000049     -0.000176      0.000000
    219 O2    s      -0.000162      0.000187     -0.001029      0.000000
    220 O2    s      -0.000284      0.000512     -0.000135      0.000000
    221 O2    s       0.000733     -0.000362     -0.000139      0.000000
    222 O2    s      -0.000103     -0.000017      0.000043      0.000000
    223 O2    s      -0.000288      0.000130     -0.000105      0.000000
    224 O2    s      -0.000152      0.000305      0.000060      0.000000
    225 O2    s       0.000092     -0.000071     -0.000645      0.000000
    226 O2    s       0.000112     -0.000094     -0.000244      0.000000
    227 O2    s      -0.000658      0.000393     -0.000153      0.000000
    228 O2    s       0.000182     -0.000473     -0.000273      0.000000
    229 O2    s       0.000107     -0.000319      0.000320      0.000000
    230 O2    s       0.000424     -0.000398      0.000818      0.000000
    231 O2    s      -0.000212      0.000056      0.000564      0.000000
    232 O2    s       0.000269     -0.000024      0.000002      0.000000
    233 O2    s      -0.000116      0.000034      0.000136      0.000000
    234 O2    s      -0.000061     -0.000101      0.000266      0.000000
    235 O2    s       0.000005      0.000016      0.000556      0.000000
    236 O2    s      -0.000048     -0.000011     -0.000102      0.000000
    237 O3    s      -0.000271      0.000351     -0.000614      0.000000
    238 O2    s       0.000204     -0.000108      0.000183      0.000000
    239 O3    s       0.000180     -0.001268     -0.001490      0.000000
    240 O2    s       0.000393     -0.000509     -0.000037      0.000000
    241 O2    s      -0.000082      0.000165     -0.000447      0.000000
    242 O3    s      -0.000243      0.000144      0.000334      0.000000
    243 O2    s      -0.000004     -0.000056      0.000217      0.000000
    244 O2    s      -0.000150      0.000300      0.000264      0.000000
    245 O2    s       0.000045     -0.000061     -0.000263      0.000000
    246 O2    s       0.000039      0.000039      0.000481      0.000000
    247 O2    s      -0.000272      0.000142      0.000045      0.000000
    248 O2    s      -0.000269     -0.000019     -0.000716      0.000000
    249 O2    s       0.000116     -0.000075     -0.000263      0.000000
    250 O2    s       0.000153     -0.000230     -0.000713      0.000000
    251 O2    s      -0.000059      0.000077     -0.000063      0.000000
    252 O2    s      -0.000004     -0.000183     -0.000041      0.000000
    253 O3    s       0.000511      0.000149     -0.001405      0.000000
    254 O2    s       0.000180     -0.000118      0.000175      0.000000
    255 O2    s       0.000162     -0.000036     -0.000303      0.000000
    256 O2    s       0.000049     -0.000102      0.000153      0.000000
    257 O3    s      -0.000409      0.000282     -0.000045      0.000000
    258 O2    s       0.000250     -0.000175      0.000373      0.000000
    259 O2    s       0.000008     -0.000049     -0.000047      0.000000
    260 O2    s       0.000105      0.000084     -0.000445      0.000000
    261 O2    s       0.000030      0.000029      0.000214      0.000000
    262 O2    s       0.000049     -0.000024     -0.000230      0.000000
    263 O2    s       0.000061     -0.000312      0.000357      0.000000
    264 O2    s       0.000418      0.000099      0.000604      0.000000
    265 O3    s      -0.000746      0.000436     -0.000524      0.000000
    266 O2    s       0.000034     -0.000081      0.000180      0.000000
    267 O2    s       0.000041      0.000065     -0.000020      0.000000
    268 O2    s      -0.000003      0.000088     -0.000329      0.000000
    269 O3    s      -0.000261      0.000275     -0.000684      0.000000
    270 O2    s       0.000182     -0.000331      0.000728      0.000000
    271 O2    s       0.000060     -0.000076      0.000100      0.000000
    272 O2    s      -0.000231      0.000175     -0.000846      0.000000
    273 O2    s       0.000034     -0.000104     -0.000146      0.000000
    274 O2    s       0.000101     -0.000017      0.000227      0.000000
    275 O2    s       0.000123     -0.000146      0.000088      0.000000
    276 O2    s       0.000025      0.000204      0.000459      0.000000
    277 O2    s      -0.000610      0.000614      0.000366      0.000000
    278 O2    s       0.000004     -0.000129      0.000372      0.000000
    279 O2    s      -0.000028     -0.000021      0.000208      0.000000
    280 O2    s      -0.000033     -0.000037     -0.000174      0.000000
    281 O2    s       0.000146     -0.000036      0.000012      0.000000
    282 O2    s      -0.000434      0.000271      0.000748      0.000000
    283 O2    s      -0.000108      0.000042     -0.000114      0.000000
    284 O2    s      -0.000298      0.000523      0.000271      0.000000
    285 O2    s       0.000118     -0.000166      0.000061      0.000000
    286 O2    s      -0.000180      0.000115      0.000027      0.000000
    287 O2    s      -0.000078      0.000099      0.000044      0.000000
    288 O2    s      -0.000065     -0.000104     -0.000243      0.000000
    289 O2    s       0.000249      0.000279     -0.000204      0.000000
    290 O3    s       0.000256     -0.000349      0.001217      0.000000
    291 O2    s       0.000001     -0.000039     -0.000185      0.000000
    292 O2    s      -0.000280      0.000134      0.000296      0.000000
    293 O2    s       0.000203     -0.000262      0.000087      0.000000
    294 O2    s       0.000184     -0.000548      0.000189      0.000000
    295 O2    s      -0.000045      0.000383     -0.000135      0.000000
    296 O2    s       0.000143      0.000090     -0.000986      0.000000
    297 O2    s       0.000124     -0.000021      0.000148      0.000000
    298 O2    s       0.000099     -0.000066      0.000116      0.000000
    299 O2    s       0.000140     -0.000125     -0.000367      0.000000
    300 O2    s      -0.000302      0.000308      0.000621      0.000000
    301 O3    s       0.000135     -0.000518      0.000507      0.000000
    302 O2    s       0.000114     -0.000234      0.000073      0.000000
    303 O2    s       0.000401     -0.000112     -0.000233      0.000000
    304 O2    s       0.000192     -0.000166     -0.000005      0.000000
    305 O2    s       0.000191     -0.000058     -0.000096      0.000000
    306 O2    s      -0.000470      0.000473     -0.000009      0.000000
    307 F     s       0.000051     -0.000115     -0.000326      0.000000
    308 F     s      -0.000002     -0.000022      0.000033      0.000000
    309 F     s       0.000000     -0.000034      0.000134      0.000000
    310 F     s       0.000040     -0.000069     -0.000011      0.000000
    311 F     s      -0.000325      0.000666      0.000522      0.000000
    312 F     s       0.000018      0.000008     -0.000038      0.000000
--------------------------------------------------------------------------------
  Maximum abs         0.000766      0.001268      0.002342      0.000000
--------------------------------------------------------------------------------


  Time to end of optimisation =      83.1719 seconds


  Peak dynamic memory used =      19.13 MB 


  Timing analysis for GULP :

--------------------------------------------------------------------------------
  Task / Subroutine                                          Time (Seconds)
--------------------------------------------------------------------------------
  Calculation of reciprocal space energy and derivatives          2.4559
  Calculation of real space energy and derivatives               70.8543
  Calculation of three-body energy and derivatives                7.9820
  Calculation of matrix inversion                                 0.9831
--------------------------------------------------------------------------------
  Total CPU time                                                 83.1719
--------------------------------------------------------------------------------


  Dump file written as out.res                                                 
  CIF file written as out.cif                                                 


  Job Finished at 01:09.18  4th December   2016                               

