********************************************************************************
*                       GENERAL UTILITY LATTICE PROGRAM                        *
*                                 Julian Gale                                  *
*                      Nanochemistry Research Institute                        *
*                           Department of Chemistry                            *
*                    Curtin University, Western Australia                      *
********************************************************************************
* Version = 4.2.0 * Last modified =  20th January 2014                         *
********************************************************************************
*  optimise     - perform optimisation run                                     *
*  conp         - constant pressure calculation                                *
*  qok          - running with non charge neutral cell is OK                   *
********************************************************************************

  Job Started  at 00:13.54  4th December   2016                               

  Number of CPUs =     1


  Total number of configurations input =   1

********************************************************************************
*  Input for Configuration =   1                                               *
********************************************************************************

  Formula = Ge3Si57O120F6                                               

  Number of irreducible atoms/shells =     312


  Total number atoms/shells =     312

  Dimensionality = 3               :  Bulk   


  Charge on solid   =  -6.000000 =>neutralising background added


  Cartesian lattice vectors (Angstroms) :

       11.957964    0.000000    0.000000
       -6.000147   10.392851    0.000000
       -0.284259    0.088506   29.417910

  Cell parameters (Angstroms/Degrees):

  a =      11.9580    alpha =  89.5739
  b =      12.0005    beta  =  90.5536
  c =      29.4194    gamma = 119.9993

  Initial cell volume =        3655.979380 Angs**3

  Temperature of configuration =  0.000     K 

  Pressure of configuration =         0.000 GPa 

  Fractional coordinates of asymmetric unit :

--------------------------------------------------------------------------------
   No.  Atomic       x           y          z         Charge      Occupancy
        Label      (Frac)      (Frac)     (Frac)        (e)         (Frac)  
--------------------------------------------------------------------------------
      1 Ge    c    0.699600    0.375700    0.033890     4.00000    1.000000    
      2 Si    c    0.616262 *  0.316517 *  0.365352 *   4.00000    1.000000    
      3 Si    c    0.677964 *  0.295572 *  0.696312 *   4.00000    1.000000    
      4 Si    c    0.301754 *  0.630426 *  0.530964 *   4.00000    1.000000    
      5 Ge    c    0.388182 *  0.667662 *  0.865507 *   4.00000    1.000000    
      6 Si    c    0.315007 *  0.699640 *  0.197568 *   4.00000    1.000000    
      7 Si    c    0.372721 *  0.696525 *  0.298223 *   4.00000    1.000000    
      8 Si    c    0.315313 *  0.628633 *  0.963399 *   4.00000    1.000000    
      9 Si    c    0.299469 *  0.678106 *  0.631933 *   4.00000    1.000000    
     10 Si    c    0.623681 *  0.294631 *  0.796799 *   4.00000    1.000000    
     11 Si    c    0.682180 *  0.374843 *  0.467541 *   4.00000    1.000000    
     12 Si    c    0.680127 *  0.314377 *  0.132566 *   4.00000    1.000000    
     13 Si    c    0.531267 *  0.420147 *  0.964162 *   4.00000    1.000000    
     14 Si    c    0.577235 *  0.105872 *  0.301241 *   4.00000    1.000000    
     15 Si    c    0.889180 *  0.468317 *  0.631421 *   4.00000    1.000000    
     16 Si    c    0.467493 *  0.587551 *  0.467726 *   4.00000    1.000000    
     17 Si    c    0.419466 *  0.880716 *  0.799152 *   4.00000    1.000000    
     18 Si    c    0.101018 *  0.527043 *  0.132018 *   4.00000    1.000000    
     19 Si    c    0.408196 *  0.523557 *  0.364791 *   4.00000    1.000000    
     20 Si    c    0.100417 *  0.579909 *  0.028569 *   4.00000    1.000000    
     21 Si    c    0.472641 *  0.887185 *  0.696718 *   4.00000    1.000000    
     22 Si    c    0.586256 *  0.470417 *  0.860708 *   4.00000    1.000000    
     23 Si    c    0.899894 *  0.422055 *  0.530251 *   4.00000    1.000000    
     24 Si    c    0.521376 *  0.106531 *  0.199961 *   4.00000    1.000000    
     25 Si    c    0.298475 *  0.396512 *  0.843015 *   4.00000    1.000000    
     26 Si    c    0.593960 *  0.900801 *  0.182911 *   4.00000    1.000000    
     27 Si    c    0.098380 *  0.703511 *  0.515709 *   4.00000    1.000000    
     28 Si    c    0.693548 *  0.596647 *  0.349516 *   4.00000    1.000000    
     29 Si    c    0.399756 *  0.094898 *  0.681055 *   4.00000    1.000000    
     30 Si    c    0.889682 *  0.293735 *  0.011864 *   4.00000    1.000000    
     31 Ge    c    0.411184 *  0.314781 *  0.474204 *   4.00000    1.000000    
     32 Si    c    0.886231 *  0.597817 *  0.143730 *   4.00000    1.000000    
     33 Si    c    0.701153 *  0.094241 *  0.811646 *   4.00000    1.000000    
     34 Si    c    0.599469 *  0.705417 *  0.975687 *   4.00000    1.000000    
     35 Si    c    0.101007 *  0.398406 *  0.645619 *   4.00000    1.000000    
     36 Si    c    0.295782 *  0.896894 *  0.314168 *   4.00000    1.000000    
     37 Si    c    0.249769 *  0.346244 *  0.946058 *   4.00000    1.000000    
     38 Si    c    0.653597 *  0.905650 *  0.283747 *   4.00000    1.000000    
     39 Si    c    0.088217 *  0.748267 *  0.616641 *   4.00000    1.000000    
     40 Si    c    0.748638 *  0.659354 *  0.451321 *   4.00000    1.000000    
     41 Si    c    0.344136 *  0.083926 *  0.781832 *   4.00000    1.000000    
     42 Si    c    0.897008 *  0.246927 *  0.115296 *   4.00000    1.000000    
     43 Si    c    0.328229 *  0.240854 *  0.378151 *   4.00000    1.000000    
     44 Si    c    0.895746 *  0.659800 *  0.041008 *   4.00000    1.000000    
     45 Si    c    0.751712 *  0.088439 *  0.710912 *   4.00000    1.000000    
     46 Si    c    0.669796 *  0.755282 *  0.873334 *   4.00000    1.000000    
     47 Si    c    0.101462 *  0.345672 *  0.544538 *   4.00000    1.000000    
     48 Si    c    0.241912 *  0.906522 *  0.213354 *   4.00000    1.000000    
     49 Si    c    0.974957 *  0.125177 *  0.962850 *   4.00000    1.000000    
     50 Si    c    0.870523 *  0.842276 *  0.297176 *   4.00000    1.000000    
     51 Si    c    0.151545 *  0.027876 *  0.629025 *   4.00000    1.000000    
     52 Si    c    0.028802 *  0.882231 *  0.464388 *   4.00000    1.000000    
     53 Si    c    0.125767 *  0.142967 *  0.794686 *   4.00000    1.000000    
     54 Si    c    0.840032 *  0.969726 *  0.130709 *   4.00000    1.000000    
     55 Si    c    0.115725 *  0.964855 *  0.362294 *   4.00000    1.000000    
     56 Si    c    0.847226 *  0.884793 *  0.028796 *   4.00000    1.000000    
     57 Si    c    0.030162 *  0.147315 *  0.694410 *   4.00000    1.000000    
     58 Si    c    0.887717 *  0.030170 *  0.861663 *   4.00000    1.000000    
     59 Si    c    0.162320 *  0.126709 *  0.527703 *   4.00000    1.000000    
     60 Si    c    0.961839 *  0.846461 *  0.195670 *   4.00000    1.000000    
     61 O2    c    0.932709 *  0.008316 *  0.997945 *   0.87073    1.000000    
     62 O2    c    0.994602 *  0.919507 *  0.328622 *   0.87073    1.000000    
     63 O2    c    0.070478 *  0.071206 *  0.660019 *   0.87073    1.000000    
     64 O2    c    0.070517 *  0.005515 *  0.495125 *   0.87073    1.000000    
     65 O2    c    0.008491 *  0.073860 *  0.829309 *   0.87073    1.000000    
     66 O2    c    0.924042 *  0.930129 *  0.162886 *   0.87073    1.000000    
     67 O2    c    0.334764 *  0.573608 *  0.330854 *   0.87073    1.000000    
     68 O2    c    0.422759 *  0.761409 *  0.664606 *   0.87073    1.000000    
     69 O2    c    0.231605 *  0.657325 *  0.000062 *   0.87073    1.000000    
     70 O2    c    0.660546 *  0.417274 *  0.829750 *   0.87073    1.000000    
     71 O2    c    0.570404 *  0.235758 *  0.170089 *   0.87073    1.000000    
     72 O2    c    0.778408 *  0.343361 *  0.495950 *   0.87073    1.000000    
     73 O3    c    0.568467 *  0.340583 *  0.997462 *   1.33043    1.000000    
     74 O2    c    0.763322 *  0.418489 *  0.663384 *   0.87073    1.000000    
     75 O2    c    0.654665 *  0.231318 *  0.333376 *   0.87073    1.000000    
     76 O2    c    0.424929 *  0.673878 *  0.497399 *   0.87073    1.000000    
     77 O2    c    0.226630 *  0.577289 *  0.164634 *   0.87073    1.000000    
     78 O3    c    0.344217 *  0.760363 *  0.830682 *   1.33043    1.000000    
     79 O2    c    0.128306 *  0.219985 *  0.968264 *   0.87073    1.000000    
     80 O2    c    0.780618 *  0.905860 *  0.303629 *   0.87073    1.000000    
     81 O2    c    0.087666 *  0.873940 *  0.636268 *   0.87073    1.000000    
     82 O2    c    0.874350 *  0.786919 *  0.470018 *   0.87073    1.000000    
     83 O2    c    0.215186 *  0.079087 *  0.801664 *   0.87073    1.000000    
     84 O2    c    0.899797 *  0.123194 *  0.136357 *   0.87073    1.000000    
     85 O2    c    0.207802 *  0.117206 *  0.353210 *   0.87073    1.000000    
     86 O2    c    0.914702 *  0.798255 *  0.025171 *   0.87073    1.000000    
     87 O2    c    0.875973 *  0.086780 *  0.689992 *   0.87073    1.000000    
     88 O2    c    0.807061 *  0.875742 *  0.857549 *   0.87073    1.000000    
     89 O2    c    0.104156 *  0.223683 *  0.523284 *   0.87073    1.000000    
     90 O2    c    0.116307 *  0.907894 *  0.192641 *   0.87073    1.000000    
     91 O2    c    0.917423 *  0.853840 *  0.245926 *   0.87073    1.000000    
     92 O2    c    0.139880 *  0.065677 *  0.577984 *   0.87073    1.000000    
     93 O2    c    0.939236 *  0.070111 *  0.912699 *   0.87073    1.000000    
     94 O2    c    0.068960 *  0.125145 *  0.744348 *   0.87073    1.000000    
     95 O2    c    0.850836 *  0.932542 *  0.079833 *   0.87073    1.000000    
     96 O2    c    0.060844 *  0.928729 *  0.412494 *   0.87073    1.000000    
     97 O2    c    0.902706 *  0.204079 *  0.974158 *   0.87073    1.000000    
     98 O2    c    0.787217 *  0.690915 *  0.310036 *   0.87073    1.000000    
     99 O2    c    0.302846 *  0.096748 *  0.642395 *   0.87073    1.000000    
    100 O2    c    0.099600 *  0.801583 *  0.476932 *   0.87073    1.000000    
    101 O2    c    0.210077 *  0.294290 *  0.804699 *   0.87073    1.000000    
    102 O2    c    0.689137 *  0.898787 *  0.144247 *   0.87073    1.000000    
    103 O2    c    0.197655 *  0.893532 *  0.352436 *   0.87073    1.000000    
    104 O2    c    0.697102 *  0.802464 *  0.014356 *   0.87073    1.000000    
    105 O2    c    0.100676 *  0.300045 *  0.684023 *   0.87073    1.000000    
    106 O2    c    0.800646 *  0.094562 *  0.850023 *   0.87073    1.000000    
    107 O3    c    0.308683 *  0.201009 *  0.515874 *   1.33043    1.000000    
    108 O2    c    0.890850 *  0.696333 *  0.182102 *   0.87073    1.000000    
    109 O2    c    0.315863 *  0.640543 *  0.247550 *   0.87073    1.000000    
    110 O2    c    0.358132 *  0.683188 *  0.581604 *   0.87073    1.000000    
    111 O3    c    0.309225 *  0.685227 *  0.915533 *   1.33043    1.000000    
    112 O2    c    0.679412 *  0.354284 *  0.746504 *   0.87073    1.000000    
    113 O3    c    0.610698 *  0.302124 *  0.084848 *   1.33043    1.000000    
    114 O2    c    0.673349 *  0.320434 *  0.415582 *   0.87073    1.000000    
    115 O2    c    0.374441 *  0.340150 *  0.962937 *   0.87073    1.000000    
    116 O2    c    0.664313 *  0.036552 *  0.303326 *   0.87073    1.000000    
    117 O2    c    0.956765 *  0.624319 *  0.634638 *   0.87073    1.000000    
    118 O2    c    0.625144 *  0.669158 *  0.467447 *   0.87073    1.000000    
    119 O2    c    0.334030 *  0.952704 *  0.799979 *   0.87073    1.000000    
    120 O2    c    0.028733 *  0.371374 *  0.133223 *   0.87073    1.000000    
    121 O2    c    0.322338 *  0.368203 *  0.361370 *   0.87073    1.000000    
    122 O2    c    0.028358 *  0.663327 *  0.025491 *   0.87073    1.000000    
    123 O2    c    0.628775 *  0.956863 *  0.692585 *   0.87073    1.000000    
    124 O2    c    0.672911 *  0.626087 *  0.858538 *   0.87073    1.000000    
    125 O2    c    0.967599 *  0.334648 *  0.526648 *   0.87073    1.000000    
    126 O2    c    0.365154 *  0.038235 *  0.195522 *   0.87073    1.000000    
    127 O3    c    0.755509 *  0.285710 *  0.002380 *   1.33043    1.000000    
    128 O2    c    0.689209 *  0.460914 *  0.343929 *   0.87073    1.000000    
    129 O2    c    0.534831 *  0.227988 *  0.673220 *   0.87073    1.000000    
    130 O2    c    0.233519 *  0.705874 *  0.508588 *   0.87073    1.000000    
    131 O3    c    0.294880 *  0.523731 *  0.832965 *   1.33043    1.000000    
    132 O2    c    0.457695 *  0.768462 *  0.174842 *   0.87073    1.000000    
    133 O2    c    0.297590 *  0.763737 *  0.320526 *   0.87073    1.000000    
    134 O2    c    0.464413 *  0.703379 *  0.983142 *   0.87073    1.000000    
    135 O2    c    0.232471 *  0.534166 *  0.653663 *   0.87073    1.000000    
    136 O2    c    0.701778 *  0.228745 *  0.819246 *   0.87073    1.000000    
    137 O3    c    0.545741 *  0.299686 *  0.491260 *   1.33043    1.000000    
    138 O2    c    0.753650 *  0.463327 *  0.150988 *   0.87073    1.000000    
    139 O3    c    0.769185 *  0.546959 *  0.019793 *   1.33043    1.000000    
    140 O2    c    0.461079 *  0.248983 *  0.360525 *   0.87073    1.000000    
    141 O2    c    0.754140 *  0.215795 *  0.691591 *   0.87073    1.000000    
    142 O2    c    0.223757 *  0.475240 *  0.525216 *   0.87073    1.000000    
    143 O3    c    0.556607 *  0.766521 *  0.850435 *   1.33043    1.000000    
    144 O2    c    0.239070 *  0.779821 *  0.193506 *   0.87073    1.000000    
    145 O2    c    0.529077 *  0.777795 *  0.302761 *   0.87073    1.000000    
    146 O2    c    0.250469 *  0.472001 *  0.965334 *   0.87073    1.000000    
    147 O2    c    0.214976 *  0.749287 *  0.636386 *   0.87073    1.000000    
    148 O2    c    0.467643 *  0.212089 *  0.802025 *   0.87073    1.000000    
    149 O2    c    0.744700 *  0.531433 *  0.469829 *   0.87073    1.000000    
    150 O2    c    0.773776 *  0.251233 *  0.134369 *   0.87073    1.000000    
    151 O2    c    0.231166 *  0.331630 *  0.891698 *   0.87073    1.000000    
    152 O2    c    0.669737 *  0.904561 *  0.229277 *   0.87073    1.000000    
    153 O2    c    0.090089 *  0.769729 *  0.562200 *   0.87073    1.000000    
    154 O2    c    0.760164 *  0.666667 *  0.396477 *   0.87073    1.000000    
    155 O2    c    0.326454 *  0.090811 *  0.727480 *   0.87073    1.000000    
    156 O2    c    0.894902 *  0.231623 *  0.061005 *   0.87073    1.000000    
    157 O3    c    0.302693 *  0.212447 *  0.430540 *   1.33043    1.000000    
    158 O2    c    0.890747 *  0.667058 *  0.096456 *   0.87073    1.000000    
    159 O2    c    0.771501 *  0.089616 *  0.765411 *   0.87073    1.000000    
    160 O2    c    0.670748 *  0.770340 *  0.928697 *   0.87073    1.000000    
    161 O2    c    0.102480 *  0.328102 *  0.599074 *   0.87073    1.000000    
    162 O2    c    0.225010 *  0.903439 *  0.267725 *   0.87073    1.000000    
    163 O2    c    0.578291 *  0.563625 *  0.983058 *   0.87073    1.000000    
    164 O2    c    0.435978 *  0.020706 *  0.323858 *   0.87073    1.000000    
    165 O2    c    0.974552 *  0.410925 *  0.653700 *   0.87073    1.000000    
    166 O3    c    0.409164 *  0.452982 *  0.493346 *   1.33043    1.000000    
    167 O2    c    0.562300 *  0.971622 *  0.821436 *   0.87073    1.000000    
    168 O2    c    0.008035 *  0.576631 *  0.151471 *   0.87073    1.000000    
    169 O2    c    0.550765 *  0.575622 *  0.343964 *   0.87073    1.000000    
    170 O2    c    0.012814 *  0.438654 *  0.006874 *   0.87073    1.000000    
    171 O2    c    0.413413 *  0.969447 *  0.673100 *   0.87073    1.000000    
    172 O2    c    0.443786 *  0.418234 *  0.839656 *   0.87073    1.000000    
    173 O2    c    0.975361 *  0.563112 *  0.506079 *   0.87073    1.000000    
    174 O2    c    0.580991 *  0.027201 *  0.175027 *   0.87073    1.000000    
    175 O2    c    0.575815 *  0.159237 *  0.250620 *   0.87073    1.000000    
    176 O2    c    0.838836 *  0.417627 *  0.579941 *   0.87073    1.000000    
    177 O2    c    0.583421 *  0.424983 *  0.912944 *   0.87073    1.000000    
    178 O2    c    0.423184 *  0.834108 *  0.747421 *   0.87073    1.000000    
    179 O2    c    0.144555 *  0.575981 *  0.080694 *   0.87073    1.000000    
    180 O2    c    0.412221 *  0.577058 *  0.415433 *   0.87073    1.000000    
    181 F     c    0.445932 *  0.899850 *  0.247980 *   0.56000    1.000000    
    182 F     c    0.097401 *  0.550300 *  0.579472 *   0.56000    1.000000    
    183 F     c    0.440186 *  0.576801 *  0.903184 *   0.56000    1.000000    
    184 F     c    0.553810 *  0.099383 *  0.746246 *   0.56000    1.000000    
    185 F     c    0.849264 *  0.433635 *  0.070638 *   0.56000    1.000000    
    186 F     c    0.515378 *  0.421466 *  0.425051 *   0.56000    1.000000    
    187 O2    s    0.927719 *  0.007344 *  0.997540 *  -2.87073    1.000000    
    188 O2    s    0.993681 *  0.915562 *  0.328728 *  -2.87073    1.000000    
    189 O2    s    0.074924 *  0.074977 *  0.660471 *  -2.87073    1.000000    
    190 O2    s    0.075125 *  0.003773 *  0.494953 *  -2.87073    1.000000    
    191 O2    s    0.007888 *  0.076711 *  0.829101 *  -2.87073    1.000000    
    192 O2    s    0.918992 *  0.925189 *  0.162989 *  -2.87073    1.000000    
    193 O2    s    0.346284 *  0.581232 *  0.330948 *  -2.87073    1.000000    
    194 O2    s    0.414910 *  0.765536 *  0.664444 *  -2.87073    1.000000    
    195 O2    s    0.225841 *  0.646061 *  0.999459 *  -2.87073    1.000000    
    196 O2    s    0.649092 *  0.410613 *  0.829696 *  -2.87073    1.000000    
    197 O2    s    0.576787 *  0.230354 *  0.169286 *  -2.87073    1.000000    
    198 O2    s    0.780393 *  0.354873 *  0.496368 *  -2.87073    1.000000    
    199 O3    s    0.574057 *  0.351667 *  0.996572 *  -3.33043    1.000000    
    200 O2    s    0.767721 *  0.411205 *  0.663424 *  -2.87073    1.000000    
    201 O2    s    0.642686 *  0.227091 *  0.333333 *  -2.87073    1.000000    
    202 O2    s    0.417137 *  0.660871 *  0.497708 *  -2.87073    1.000000    
    203 O2    s    0.222298 *  0.584264 *  0.164533 *  -2.87073    1.000000    
    204 O3    s    0.355586 *  0.766884 *  0.829739 *  -3.33043    1.000000    
    205 O2    s    0.124312 *  0.222787 *  0.965417 *  -2.87073    1.000000    
    206 O2    s    0.776986 *  0.899006 *  0.300899 *  -2.87073    1.000000    
    207 O2    s    0.094357 *  0.876905 *  0.633508 *  -2.87073    1.000000    
    208 O2    s    0.876830 *  0.783082 *  0.467462 *  -2.87073    1.000000    
    209 O2    s    0.218608 *  0.086511 *  0.798914 *  -2.87073    1.000000    
    210 O2    s    0.893207 *  0.119938 *  0.133594 *  -2.87073    1.000000    
    211 O2    s    0.210085 *  0.113476 *  0.356578 *  -2.87073    1.000000    
    212 O2    s    0.905439 *  0.793484 *  0.027164 *  -2.87073    1.000000    
    213 O2    s    0.879619 *  0.093439 *  0.692600 *  -2.87073    1.000000    
    214 O2    s    0.801530 *  0.879823 *  0.859605 *  -2.87073    1.000000    
    215 O2    s    0.109692 *  0.226976 *  0.525974 *  -2.87073    1.000000    
    216 O2    s    0.112800 *  0.901174 *  0.195096 *  -2.87073    1.000000    
    217 O2    s    0.917132 *  0.851660 *  0.246022 *  -2.87073    1.000000    
    218 O2    s    0.143603 *  0.067891 *  0.578439 *  -2.87073    1.000000    
    219 O2    s    0.937667 *  0.072081 *  0.912869 *  -2.87073    1.000000    
    220 O2    s    0.071029 *  0.129652 *  0.744459 *  -2.87073    1.000000    
    221 O2    s    0.849181 *  0.931553 *  0.080070 *  -2.87073    1.000000    
    222 O2    s    0.063615 *  0.927754 *  0.412403 *  -2.87073    1.000000    
    223 O2    s    0.909192 *  0.205041 *  0.976938 *  -2.87073    1.000000    
    224 O2    s    0.786110 *  0.696835 *  0.312795 *  -2.87073    1.000000    
    225 O2    s    0.296800 *  0.089277 *  0.644971 *  -2.87073    1.000000    
    226 O2    s    0.091921 *  0.800269 *  0.479527 *  -2.87073    1.000000    
    227 O2    s    0.210314 *  0.288624 *  0.807693 *  -2.87073    1.000000    
    228 O2    s    0.695287 *  0.906440 *  0.146779 *  -2.87073    1.000000    
    229 O2    s    0.199324 *  0.901274 *  0.349489 *  -2.87073    1.000000    
    230 O2    s    0.703233 *  0.801418 *  0.011977 *  -2.87073    1.000000    
    231 O2    s    0.093334 *  0.294042 *  0.681214 *  -2.87073    1.000000    
    232 O2    s    0.800031 *  0.087651 *  0.847413 *  -2.87073    1.000000    
    233 O3    s    0.299122 *  0.200321 *  0.514401 *  -3.33043    1.000000    
    234 O2    s    0.897906 *  0.702083 *  0.179561 *  -2.87073    1.000000    
    235 O2    s    0.321488 *  0.652205 *  0.247535 *  -2.87073    1.000000    
    236 O2    s    0.346317 *  0.677183 *  0.581451 *  -2.87073    1.000000    
    237 O3    s    0.314792 *  0.678031 *  0.917563 *  -3.33043    1.000000    
    238 O2    s    0.673633 *  0.342379 *  0.746560 *  -2.87073    1.000000    
    239 O3    s    0.623739 *  0.308314 *  0.086237 *  -3.33043    1.000000    
    240 O2    s    0.668025 *  0.325258 *  0.415180 *  -2.87073    1.000000    
    241 O2    s    0.376771 *  0.349048 *  0.961190 *  -2.87073    1.000000    
    242 O2    s    0.654195 *  0.029940 *  0.301047 *  -2.87073    1.000000    
    243 O2    s    0.963647 *  0.621413 *  0.632416 *  -2.87073    1.000000    
    244 O2    s    0.622436 *  0.659894 *  0.465744 *  -2.87073    1.000000    
    245 O2    s    0.343689 *  0.960003 *  0.797872 *  -2.87073    1.000000    
    246 O2    s    0.022663 *  0.374736 *  0.131254 *  -2.87073    1.000000    
    247 O2    s    0.331858 *  0.371735 *  0.363411 *  -2.87073    1.000000    
    248 O2    s    0.022674 *  0.654115 *  0.027372 *  -2.87073    1.000000    
    249 O2    s    0.625649 *  0.963568 *  0.694953 *  -2.87073    1.000000    
    250 O2    s    0.663622 *  0.622978 *  0.860257 *  -2.87073    1.000000    
    251 O2    s    0.974504 *  0.345057 *  0.528936 *  -2.87073    1.000000    
    252 O2    s    0.368156 *  0.031266 *  0.197878 *  -2.87073    1.000000    
    253 O3    s    0.765852 *  0.292590 *  0.005568 *  -3.33043    1.000000    
    254 O2    s    0.682220 *  0.460625 *  0.346716 *  -2.87073    1.000000    
    255 O2    s    0.535470 *  0.221077 *  0.676449 *  -2.87073    1.000000    
    256 O2    s    0.226249 *  0.697836 *  0.511699 *  -2.87073    1.000000    
    257 O3    s    0.301518 *  0.519714 *  0.836278 *  -3.33043    1.000000    
    258 O2    s    0.457054 *  0.775018 *  0.178044 *  -2.87073    1.000000    
    259 O2    s    0.305206 *  0.770819 *  0.317492 *  -2.87073    1.000000    
    260 O2    s    0.464170 *  0.696426 *  0.980440 *  -2.87073    1.000000    
    261 O2    s    0.225461 *  0.534607 *  0.650545 *  -2.87073    1.000000    
    262 O2    s    0.693788 *  0.221703 *  0.816137 *  -2.87073    1.000000    
    263 O3    s    0.550432 *  0.308675 *  0.487507 *  -3.33043    1.000000    
    264 O2    s    0.760575 *  0.463126 *  0.148378 *  -2.87073    1.000000    
    265 O3    s    0.778897 *  0.548917 *  0.022935 *  -3.33043    1.000000    
    266 O2    s    0.464080 *  0.255419 *  0.362818 *  -2.87073    1.000000    
    267 O2    s    0.745864 *  0.210239 *  0.694159 *  -2.87073    1.000000    
    268 O2    s    0.218696 *  0.477663 *  0.527868 *  -2.87073    1.000000    
    269 O3    s    0.557960 *  0.758727 *  0.853857 *  -3.33043    1.000000    
    270 O2    s    0.247331 *  0.784982 *  0.196024 *  -2.87073    1.000000    
    271 O2    s    0.526215 *  0.783186 *  0.300250 *  -2.87073    1.000000    
    272 O2    s    0.256883 *  0.474081 *  0.963072 *  -2.87073    1.000000    
    273 O2    s    0.209974 *  0.741610 *  0.633799 *  -2.87073    1.000000    
    274 O2    s    0.470805 *  0.207083 *  0.799365 *  -2.87073    1.000000    
    275 O2    s    0.738790 *  0.530120 *  0.467567 *  -2.87073    1.000000    
    276 O2    s    0.778006 *  0.257184 *  0.132087 *  -2.87073    1.000000    
    277 O2    s    0.239713 *  0.339559 *  0.892747 *  -2.87073    1.000000    
    278 O2    s    0.660038 *  0.904264 *  0.230169 *  -2.87073    1.000000    
    279 O2    s    0.090758 *  0.760440 *  0.562975 *  -2.87073    1.000000    
    280 O2    s    0.751715 *  0.658290 *  0.397049 *  -2.87073    1.000000    
    281 O2    s    0.336054 *  0.090572 *  0.728332 *  -2.87073    1.000000    
    282 O2    s    0.894578 *  0.239418 *  0.062027 *  -2.87073    1.000000    
    283 O3    s    0.312607 *  0.222297 *  0.427824 *  -3.33043    1.000000    
    284 O2    s    0.890668 *  0.658630 *  0.096205 *  -2.87073    1.000000    
    285 O2    s    0.762149 *  0.089991 *  0.764454 *  -2.87073    1.000000    
    286 O2    s    0.662880 *  0.761840 *  0.928350 *  -2.87073    1.000000    
    287 O2    s    0.102234 *  0.337343 *  0.598197 *  -2.87073    1.000000    
    288 O2    s    0.234144 *  0.903081 *  0.266712 *  -2.87073    1.000000    
    289 O2    s    0.575579 *  0.564338 *  0.980279 *  -2.87073    1.000000    
    290 O2    s    0.435807 *  0.016229 *  0.320443 *  -2.87073    1.000000    
    291 O2    s    0.979418 *  0.415777 *  0.650477 *  -2.87073    1.000000    
    292 O3    s    0.415553 *  0.456670 *  0.489291 *  -3.33043    1.000000    
    293 O2    s    0.563334 *  0.976349 *  0.818077 *  -2.87073    1.000000    
    294 O2    s    0.004888 *  0.573450 *  0.148569 *  -2.87073    1.000000    
    295 O2    s    0.551558 *  0.572362 *  0.346755 *  -2.87073    1.000000    
    296 O2    s    0.009443 *  0.438972 *  0.009705 *  -2.87073    1.000000    
    297 O2    s    0.418257 *  0.974601 *  0.676412 *  -2.87073    1.000000    
    298 O2    s    0.444242 *  0.421819 *  0.842282 *  -2.87073    1.000000    
    299 O2    s    0.981010 *  0.563799 *  0.509604 *  -2.87073    1.000000    
    300 O2    s    0.576090 *  0.021647 *  0.178422 *  -2.87073    1.000000    
    301 O2    s    0.570184 *  0.147964 *  0.250644 *  -2.87073    1.000000    
    302 O2    s    0.850294 *  0.423324 *  0.580110 *  -2.87073    1.000000    
    303 O2    s    0.578428 *  0.429222 *  0.912780 *  -2.87073    1.000000    
    304 O2    s    0.428159 *  0.844534 *  0.747187 *  -2.87073    1.000000    
    305 O2    s    0.135265 *  0.571062 *  0.080898 *  -2.87073    1.000000    
    306 O2    s    0.417083 *  0.572326 *  0.415088 *  -2.87073    1.000000    
    307 F     s    0.445834 *  0.899575 *  0.247885 *  -1.56000    1.000000    
    308 F     s    0.097412 *  0.550409 *  0.579279 *  -1.56000    1.000000    
    309 F     s    0.436321 *  0.583676 *  0.900548 *  -1.56000    1.000000    
    310 F     s    0.554391 *  0.100459 *  0.746187 *  -1.56000    1.000000    
    311 F     s    0.839240 *  0.429784 *  0.068345 *  -1.56000    1.000000    
    312 F     s    0.508993 *  0.414886 *  0.427845 *  -1.56000    1.000000    
--------------------------------------------------------------------------------



********************************************************************************
*  General input information                                                   *
********************************************************************************

  Species output for all configurations : 

--------------------------------------------------------------------------------
  Species    Type    Atomic    Atomic    Charge       Radii (Angs)     Library
                     Number     Mass       (e)     Cova   Ionic  VDW   Symbol
--------------------------------------------------------------------------------
    Si       Core       14      28.09   4.000000   1.200  0.000  2.100          
    O1       Core        8      16.00   1.733957   0.730  0.000  1.360          
    O1       Shell       8       0.00  -3.733957   0.730  0.000  1.360          
    O2       Core        8      16.00   0.870733   0.730  0.000  1.360          
    O2       Shell       8       0.00  -2.870733   0.730  0.000  1.360          
    O3       Core        8      16.00   1.330431   0.730  0.000  1.360          
    O3       Shell       8       0.00  -3.330431   0.730  0.000  1.360          
    F        Core        9      19.00   0.560000   0.710  0.000  1.300          
    F        Shell       9       0.00  -1.560000   0.710  0.000  1.300          
    Ge       Core       32      72.61   4.000000   1.170  0.000  1.750          
--------------------------------------------------------------------------------


  Lattice summation method               =    Ewald          (3-D)
                                         =    Parry          (2-D)
                                         =    Saunders et al (1-D)
  Accuracy factor for lattice sums       =   12.000


  Time limit = Infinity

  Maximum range for interatomic potentials =        16.000000 Angstroms

  Taper potentials to zero over   1.0000 Angstroms using polynomial

  General interatomic potentials :

--------------------------------------------------------------------------------
Atom  Types   Potential         A         B         C         D     Cutoffs(Ang)
  1     2                                                            Min    Max 
--------------------------------------------------------------------------------
Si   c O1   s Buckingham    0.132E+04 0.318      10.1      0.00     0.000 16.000
Si   c O2   s Buckingham    0.132E+04 0.318      10.1      0.00     0.000 16.000
Si   c O3   s Buckingham    0.132E+04 0.318      10.1      0.00     0.000 16.000
Ge   c O1   s Buckingham    0.150E+04 0.326      16.8      0.00     0.000 16.000
Ge   c O2   s Buckingham    0.150E+04 0.326      16.8      0.00     0.000 16.000
Ge   c O3   s Buckingham    0.150E+04 0.326      16.8      0.00     0.000 16.000
O1   s O1   s Buckingham    0.228E+05 0.149      10.9      0.00     0.000 16.000
O1   s O2   s Buckingham    0.228E+05 0.149      10.9      0.00     0.000 16.000
O1   s O3   s Buckingham    0.228E+05 0.149      10.9      0.00     0.000 16.000
O2   s O2   s Buckingham    0.228E+05 0.149      10.9      0.00     0.000 16.000
O2   s O3   s Buckingham    0.228E+05 0.149      10.9      0.00     0.000 16.000
O3   s O3   s Buckingham    0.228E+05 0.149      10.9      0.00     0.000 16.000
Si   c F    s Buckingham     977.     0.282      0.00      0.00     0.000 16.000
Ge   c F    s Buckingham     681.     0.320      0.00      0.00     0.000 16.000
F    s F    s Buckingham     540.     0.262      0.00      0.00     0.000 16.000
O1   s F    s Buckingham    0.168E+04 0.268      0.00      0.00     0.000 16.000
O2   s F    s Buckingham    0.168E+04 0.268      0.00      0.00     0.000 16.000
O3   s F    s Buckingham    0.168E+04 0.268      0.00      0.00     0.000 16.000
O2   c O2   s Spring (c-s)   76.0      0.00      0.00      0.00     0.000  0.800
O3   c O3   s Spring (c-s)   128.      0.00      0.00      0.00     0.000  0.800
O1   c O1   s Spring (c-s)   180.      0.00      0.00      0.00     0.000  0.800
F    c F    s Spring (c-s)   33.5      0.00      0.00      0.00     0.000  0.800
--------------------------------------------------------------------------------

  General Three-body potentials :

  Harmonic form:

--------------------------------------------------------------------------------
Atom    Atom    Atom           Force Constants            Theta     Cutoffs  
  1       2       3     (eVrad**-2/eVrad**-3/eVrad**-4)   (deg)  1-2  1-3  2-3
--------------------------------------------------------------------------------
Si    c O1    s O1    s  1.261        0.0000    0.0000   109.470 0.00 0.00 0.00
                                                                 1.90 1.90 3.50
Si    c O1    s O2    s  1.261        0.0000    0.0000   109.470 0.00 0.00 0.00
                                                                 1.90 1.90 3.50
Si    c O2    s O2    s  1.261        0.0000    0.0000   109.470 0.00 0.00 0.00
                                                                 1.90 1.90 3.50
--------------------------------------------------------------------------------

********************************************************************************
*  Output for configuration   1                                                *
********************************************************************************


  Components of energy : 

--------------------------------------------------------------------------------
  Interatomic potentials     =        2066.38017056 eV
  Three-body potentials      =           0.48603355 eV
  Monopole - monopole (real) =       -6616.27209045 eV
  Monopole - monopole (recip)=       -3171.56950455 eV
  Monopole - monopole (total)=       -9787.84159500 eV
  Neutralising energy        =          -6.46051837 eV
--------------------------------------------------------------------------------
  Total lattice energy       =       -7727.43590927 eV
--------------------------------------------------------------------------------
  Total lattice energy       =         -745579.4406 kJ/(mole unit cells)
--------------------------------------------------------------------------------


  Number of variables =      939

  Maximum number of calculations  =          1000
  Maximum Hessian update interval =            10
  Maximum step size               =   1.000000000
  Maximum parameter tolerance     =   0.000010000
  Maximum function  tolerance     =   0.000010000
  Maximum gradient  tolerance     =   0.001000000
  Maximum gradient  component     =   0.010000000

  Symmetry not applied to optimisation

  Cell parameters to be optimised using strains

  Newton-Raphson optimiser to be used

  BFGS hessian update to be used

  Dumpfile to be written after every cycle

  Start of bulk optimisation :

  Cycle:      0 Energy:     -7727.435909  Gnorm:      0.013190  CPU:    1.052
  ** Hessian calculated **
  Cycle:      1 Energy:     -7727.436293  Gnorm:      0.003110  CPU:    2.653
  Cycle:      2 Energy:     -7727.436366  Gnorm:      0.002210  CPU:    4.060
  Cycle:      3 Energy:     -7727.436562  Gnorm:      0.005840  CPU:    5.803
  Cycle:      4 Energy:     -7727.437331  Gnorm:      0.007937  CPU:    8.219
  Cycle:      5 Energy:     -7727.438565  Gnorm:      0.007682  CPU:   10.299
  Cycle:      6 Energy:     -7727.440263  Gnorm:      0.007165  CPU:   12.379
  Cycle:      7 Energy:     -7727.442541  Gnorm:      0.007476  CPU:   14.459
  Cycle:      8 Energy:     -7727.445426  Gnorm:      0.008118  CPU:   16.539
  Cycle:      9 Energy:     -7727.448715  Gnorm:      0.009203  CPU:   18.619
  Cycle:     10 Energy:     -7727.451589  Gnorm:      0.010673  CPU:   20.363
  ** Hessian calculated **
  Cycle:     11 Energy:     -7727.452867  Gnorm:      0.010161  CPU:   22.623
  Cycle:     12 Energy:     -7727.456486  Gnorm:      0.015554  CPU:   24.367
  Cycle:     13 Energy:     -7727.457898  Gnorm:      0.008333  CPU:   25.773
  Cycle:     14 Energy:     -7727.458495  Gnorm:      0.005676  CPU:   27.180
  Cycle:     15 Energy:     -7727.458978  Gnorm:      0.007602  CPU:   28.587
  Cycle:     16 Energy:     -7727.459833  Gnorm:      0.007272  CPU:   29.994
  Cycle:     17 Energy:     -7727.460284  Gnorm:      0.004767  CPU:   31.401
  Cycle:     18 Energy:     -7727.460670  Gnorm:      0.007159  CPU:   32.887
  Cycle:     19 Energy:     -7727.461269  Gnorm:      0.005672  CPU:   34.294
  Cycle:     20 Energy:     -7727.461671  Gnorm:      0.005569  CPU:   35.701
  ** Hessian calculated **
  Cycle:     21 Energy:     -7727.464652  Gnorm:      0.005488  CPU:   39.437
  Cycle:     22 Energy:     -7727.469304  Gnorm:      0.005359  CPU:   41.854
  Cycle:     23 Energy:     -7727.475058  Gnorm:      0.005195  CPU:   43.934
  Cycle:     24 Energy:     -7727.484499  Gnorm:      0.004915  CPU:   46.350
  Cycle:     25 Energy:     -7727.495953  Gnorm:      0.004553  CPU:   48.431
  Cycle:     26 Energy:     -7727.513646  Gnorm:      0.003938  CPU:   50.847
  Cycle:     27 Energy:     -7727.532624  Gnorm:      0.003177  CPU:   52.928
  Cycle:     28 Energy:     -7727.551742  Gnorm:      0.002270  CPU:   55.009
  Cycle:     29 Energy:     -7727.562171  Gnorm:      0.001529  CPU:   56.753
  Cycle:     30 Energy:     -7727.562916  Gnorm:      0.000264  CPU:   58.161
  ** Hessian calculated **
  Cycle:     31 Energy:     -7727.562917  Gnorm:      0.000172  CPU:   60.423
  Cycle:     32 Energy:     -7727.562917  Gnorm:      0.000089  CPU:   61.830
  Cycle:     33 Energy:     -7727.562917  Gnorm:      0.000098  CPU:   63.238
  Cycle:     34 Energy:     -7727.562917  Gnorm:      0.000091  CPU:   64.816
  Cycle:     35 Energy:     -7727.562917  Gnorm:      0.000087  CPU:   66.224
  Cycle:     36 Energy:     -7727.562918  Gnorm:      0.000072  CPU:   67.632
  Cycle:     37 Energy:     -7727.562918  Gnorm:      0.000070  CPU:   69.040
  Cycle:     38 Energy:     -7727.562918  Gnorm:      0.000070  CPU:   70.541
  Cycle:     39 Energy:     -7727.562918  Gnorm:      0.000061  CPU:   71.948
  Cycle:     40 Energy:     -7727.562918  Gnorm:      0.000068  CPU:   73.357
  ** Hessian calculated **
  Cycle:     41 Energy:     -7727.562918  Gnorm:      0.000067  CPU:   75.618
  Cycle:     42 Energy:     -7727.562918  Gnorm:      0.000065  CPU:   77.026
  Cycle:     43 Energy:     -7727.562918  Gnorm:      0.000063  CPU:   78.434
  Cycle:     44 Energy:     -7727.562918  Gnorm:      0.000060  CPU:   79.843
  Cycle:     45 Energy:     -7727.562919  Gnorm:      0.000056  CPU:   81.251
  Cycle:     46 Energy:     -7727.562919  Gnorm:      0.000048  CPU:   82.659


  **** Optimisation achieved ****


  Final energy =   -7727.56291951 eV
  Final Gnorm  =       0.00003453

  Components of energy : 

--------------------------------------------------------------------------------
  Interatomic potentials     =        2066.89956456 eV
  Three-body potentials      =           0.49327116 eV
  Monopole - monopole (real) =       -6616.51382485 eV
  Monopole - monopole (recip)=       -3171.98057318 eV
  Monopole - monopole (total)=       -9788.49439803 eV
  Neutralising energy        =          -6.46135720 eV
--------------------------------------------------------------------------------
  Total lattice energy       =       -7727.56291951 eV
--------------------------------------------------------------------------------
  Total lattice energy       =         -745591.6951 kJ/(mole unit cells)
--------------------------------------------------------------------------------

  Final fractional coordinates of atoms :

--------------------------------------------------------------------------------
   No.  Atomic        x           y          z          Radius
        Label       (Frac)      (Frac)     (Frac)       (Angs) 
--------------------------------------------------------------------------------
     1  Ge    c     0.699600    0.375700    0.033890    0.000000
     2  Si    c     0.590311    0.295488    0.365935    0.000000
     3  Si    c     0.663066    0.282947    0.696122    0.000000
     4  Si    c     0.285048    0.616760    0.532594    0.000000
     5  Ge    c     0.374168    0.657329    0.866866    0.000000
     6  Si    c     0.290594    0.679916    0.199919    0.000000
     7  Si    c     0.346873    0.676946    0.300644    0.000000
     8  Si    c     0.303831    0.616124    0.965252    0.000000
     9  Si    c     0.285328    0.665708    0.633409    0.000000
    10  Si    c     0.612261    0.286750    0.796604    0.000000
    11  Si    c     0.661451    0.354121    0.468038    0.000000
    12  Si    c     0.657970    0.297242    0.131806    0.000000
    13  Si    c     0.524121    0.411564    0.963768    0.000000
    14  Si    c     0.549895    0.086157    0.300995    0.000000
    15  Si    c     0.874740    0.454811    0.631431    0.000000
    16  Si    c     0.446109    0.566868    0.470013    0.000000
    17  Si    c     0.408981    0.872992    0.800957    0.000000
    18  Si    c     0.079377    0.507519    0.134683    0.000000
    19  Si    c     0.382618    0.502888    0.367063    0.000000
    20  Si    c     0.091126    0.569586    0.031434    0.000000
    21  Si    c     0.458892    0.875383    0.698149    0.000000
    22  Si    c     0.575263    0.463322    0.859870    0.000000
    23  Si    c     0.883698    0.407452    0.529949    0.000000
    24  Si    c     0.495058    0.086941    0.199119    0.000000
    25  Si    c     0.286758    0.388091    0.843261    0.000000
    26  Si    c     0.567917    0.880348    0.183658    0.000000
    27  Si    c     0.082499    0.689619    0.516515    0.000000
    28  Si    c     0.667587    0.576034    0.350725    0.000000
    29  Si    c     0.385125    0.082670    0.681552    0.000000
    30  Si    c     0.881403    0.284582    0.012460    0.000000
    31  Ge    c     0.390725    0.294262    0.475300    0.000000
    32  Si    c     0.865019    0.579259    0.145485    0.000000
    33  Si    c     0.690588    0.087174    0.812455    0.000000
    34  Si    c     0.589415    0.695624    0.975319    0.000000
    35  Si    c     0.087271    0.385623    0.646256    0.000000
    36  Si    c     0.269057    0.877138    0.314962    0.000000
    37  Si    c     0.241404    0.335559    0.946714    0.000000
    38  Si    c     0.626758    0.885707    0.284794    0.000000
    39  Si    c     0.073453    0.734795    0.617508    0.000000
    40  Si    c     0.727045    0.638777    0.452399    0.000000
    41  Si    c     0.332990    0.075697    0.782634    0.000000
    42  Si    c     0.875774    0.229342    0.116153    0.000000
    43  Si    c     0.302381    0.219944    0.379567    0.000000
    44  Si    c     0.890818    0.655907    0.043217    0.000000
    45  Si    c     0.737943    0.077191    0.711549    0.000000
    46  Si    c     0.656728    0.747032    0.872628    0.000000
    47  Si    c     0.086525    0.331819    0.545092    0.000000
    48  Si    c     0.216140    0.885917    0.213830    0.000000
    49  Si    c     0.966128    0.115458    0.963722    0.000000
    50  Si    c     0.843588    0.822060    0.298337    0.000000
    51  Si    c     0.134967    0.013179    0.630212    0.000000
    52  Si    c     0.006333    0.864243    0.465734    0.000000
    53  Si    c     0.114230    0.134251    0.795831    0.000000
    54  Si    c     0.815139    0.951101    0.131979    0.000000
    55  Si    c     0.089301    0.945424    0.363239    0.000000
    56  Si    c     0.835695    0.875782    0.030003    0.000000
    57  Si    c     0.015850    0.134600    0.695554    0.000000
    58  Si    c     0.876057    0.021647    0.862603    0.000000
    59  Si    c     0.141623    0.108515    0.528497    0.000000
    60  Si    c     0.935728    0.825462    0.196988    0.000000
    61  O2    c     0.923130    0.001227    0.000218    0.000000
    62  O2    c     0.967371    0.899395    0.329892    0.000000
    63  O2    c     0.055565    0.056681    0.661920    0.000000
    64  O2    c     0.046186    0.986976    0.496606    0.000000
    65  O2    c     0.999263    0.066534    0.831444    0.000000
    66  O2    c     0.896847    0.908462    0.164135    0.000000
    67  O2    c     0.309038    0.554670    0.333737    0.000000
    68  O2    c     0.407868    0.748857    0.666464    0.000000
    69  O2    c     0.223278    0.644913    0.003309    0.000000
    70  O2    c     0.649438    0.410654    0.828675    0.000000
    71  O2    c     0.544803    0.215015    0.168170    0.000000
    72  O2    c     0.762092    0.326928    0.495847    0.000000
    73  O3    c     0.567504    0.336932    0.996686    0.000000
    74  O2    c     0.748071    0.405132    0.662803    0.000000
    75  O2    c     0.627541    0.211388    0.333002    0.000000
    76  O2    c     0.408063    0.657083    0.499200    0.000000
    77  O2    c     0.202608    0.555301    0.168158    0.000000
    78  O3    c     0.332309    0.753722    0.833030    0.000000
    79  O2    c     0.119956    0.207537    0.968243    0.000000
    80  O2    c     0.753954    0.885989    0.304669    0.000000
    81  O2    c     0.072120    0.859498    0.637488    0.000000
    82  O2    c     0.852599    0.765565    0.471451    0.000000
    83  O2    c     0.204597    0.071363    0.802721    0.000000
    84  O2    c     0.874827    0.104221    0.137868    0.000000
    85  O2    c     0.181603    0.097744    0.354276    0.000000
    86  O2    c     0.909538    0.794568    0.028209    0.000000
    87  O2    c     0.861941    0.074847    0.690755    0.000000
    88  O2    c     0.793499    0.868054    0.856816    0.000000
    89  O2    c     0.088234    0.209548    0.523792    0.000000
    90  O2    c     0.090024    0.886967    0.193297    0.000000
    91  O2    c     0.891397    0.833634    0.247175    0.000000
    92  O2    c     0.119109    0.049453    0.579246    0.000000
    93  O2    c     0.924770    0.056240    0.914273    0.000000
    94  O2    c     0.054103    0.113478    0.745869    0.000000
    95  O2    c     0.828983    0.918097    0.080895    0.000000
    96  O2    c     0.035303    0.910520    0.413649    0.000000
    97  O2    c     0.897502    0.197981    0.974562    0.000000
    98  O2    c     0.759928    0.670648    0.310961    0.000000
    99  O2    c     0.286833    0.082410    0.642849    0.000000
   100  O2    c     0.081513    0.787397    0.477858    0.000000
   101  O2    c     0.198129    0.285895    0.805035    0.000000
   102  O2    c     0.663790    0.879474    0.144986    0.000000
   103  O2    c     0.170975    0.874069    0.353183    0.000000
   104  O2    c     0.688126    0.792052    0.013652    0.000000
   105  O2    c     0.087126    0.287029    0.684703    0.000000
   106  O2    c     0.791419    0.088901    0.850804    0.000000
   107  O3    c     0.287866    0.178785    0.516548    0.000000
   108  O2    c     0.865717    0.675091    0.184086    0.000000
   109  O2    c     0.290665    0.620549    0.250044    0.000000
   110  O2    c     0.343875    0.670950    0.582958    0.000000
   111  O3    c     0.294610    0.672012    0.917440    0.000000
   112  O2    c     0.666309    0.344311    0.745900    0.000000
   113  O3    c     0.599545    0.294754    0.083045    0.000000
   114  O2    c     0.649679    0.298950    0.415929    0.000000
   115  O2    c     0.366964    0.330506    0.963354    0.000000
   116  O2    c     0.637091    0.016975    0.303457    0.000000
   117  O2    c     0.942103    0.610346    0.635037    0.000000
   118  O2    c     0.603611    0.647807    0.468758    0.000000
   119  O2    c     0.323805    0.945277    0.801272    0.000000
   120  O2    c     0.006419    0.352074    0.135301    0.000000
   121  O2    c     0.296852    0.347907    0.363119    0.000000
   122  O2    c     0.023045    0.657278    0.028693    0.000000
   123  O2    c     0.614932    0.945284    0.693707    0.000000
   124  O2    c     0.661467    0.618867    0.857796    0.000000
   125  O2    c     0.952994    0.321535    0.527063    0.000000
   126  O2    c     0.338633    0.017475    0.195223    0.000000
   127  O3    c     0.750491    0.281822    0.002196    0.000000
   128  O2    c     0.662429    0.440183    0.344714    0.000000
   129  O2    c     0.519913    0.215311    0.672989    0.000000
   130  O2    c     0.218324    0.693151    0.509341    0.000000
   131  O3    c     0.280618    0.514461    0.834001    0.000000
   132  O2    c     0.432177    0.747642    0.176269    0.000000
   133  O2    c     0.271378    0.744491    0.322322    0.000000
   134  O2    c     0.453973    0.692039    0.983840    0.000000
   135  O2    c     0.218295    0.521172    0.654796    0.000000
   136  O2    c     0.691191    0.221747    0.819397    0.000000
   137  O3    c     0.525814    0.278466    0.492180    0.000000
   138  O2    c     0.731698    0.445143    0.151381    0.000000
   139  O3    c     0.766805    0.544827    0.019904    0.000000
   140  O2    c     0.435077    0.227815    0.361768    0.000000
   141  O2    c     0.739953    0.203756    0.691430    0.000000
   142  O2    c     0.208603    0.461794    0.526075    0.000000
   143  O3    c     0.541932    0.756442    0.850277    0.000000
   144  O2    c     0.213248    0.758858    0.194538    0.000000
   145  O2    c     0.503159    0.758810    0.304792    0.000000
   146  O2    c     0.240538    0.459673    0.966790    0.000000
   147  O2    c     0.200343    0.736411    0.637626    0.000000
   148  O2    c     0.456467    0.204243    0.802333    0.000000
   149  O2    c     0.723252    0.510322    0.470310    0.000000
   150  O2    c     0.751211    0.233433    0.133732    0.000000
   151  O2    c     0.222145    0.322399    0.892296    0.000000
   152  O2    c     0.642920    0.883893    0.230286    0.000000
   153  O2    c     0.074792    0.756254    0.562961    0.000000
   154  O2    c     0.736714    0.646084    0.397398    0.000000
   155  O2    c     0.313729    0.080964    0.728200    0.000000
   156  O2    c     0.880312    0.218655    0.061733    0.000000
   157  O3    c     0.279008    0.191834    0.432065    0.000000
   158  O2    c     0.875886    0.653900    0.098539    0.000000
   159  O2    c     0.759349    0.080574    0.766106    0.000000
   160  O2    c     0.658086    0.761931    0.928078    0.000000
   161  O2    c     0.088552    0.315307    0.599749    0.000000
   162  O2    c     0.198576    0.883101    0.268254    0.000000
   163  O2    c     0.570425    0.554914    0.982414    0.000000
   164  O2    c     0.409060    0.001414    0.323905    0.000000
   165  O2    c     0.960521    0.397850    0.653890    0.000000
   166  O3    c     0.389904    0.432212    0.495548    0.000000
   167  O2    c     0.552014    0.964920    0.822851    0.000000
   168  O2    c     0.985486    0.556333    0.153831    0.000000
   169  O2    c     0.524796    0.555341    0.345851    0.000000
   170  O2    c     0.003860    0.430220    0.008807    0.000000
   171  O2    c     0.399028    0.957172    0.674409    0.000000
   172  O2    c     0.432692    0.412088    0.838961    0.000000
   173  O2    c     0.960123    0.549229    0.506399    0.000000
   174  O2    c     0.554074    0.006109    0.175221    0.000000
   175  O2    c     0.548086    0.138790    0.250028    0.000000
   176  O2    c     0.825012    0.404680    0.579876    0.000000
   177  O2    c     0.573070    0.416824    0.911955    0.000000
   178  O2    c     0.411942    0.824879    0.749373    0.000000
   179  O2    c     0.129048    0.560247    0.083973    0.000000
   180  O2    c     0.387567    0.554379    0.417997    0.000000
   181  F     c     0.418001    0.877665    0.248701    0.000000
   182  F     c     0.086340    0.539829    0.579951    0.000000
   183  F     c     0.428487    0.567348    0.903717    0.000000
   184  F     c     0.542226    0.090982    0.746757    0.000000
   185  F     c     0.840927    0.425900    0.072022    0.000000
   186  F     c     0.492163    0.399568    0.426247    0.000000
   187  O2    s     0.917963    0.999676    0.999554    0.000000
   188  O2    s     0.966640    0.895559    0.329958    0.000000
   189  O2    s     0.059918    0.060648    0.662197    0.000000
   190  O2    s     0.051316    0.985366    0.496334    0.000000
   191  O2    s     0.998083    0.069082    0.830997    0.000000
   192  O2    s     0.892135    0.903959    0.164234    0.000000
   193  O2    s     0.320583    0.562092    0.333713    0.000000
   194  O2    s     0.400263    0.753069    0.666228    0.000000
   195  O2    s     0.217034    0.633893    0.002554    0.000000
   196  O2    s     0.637970    0.403768    0.828722    0.000000
   197  O2    s     0.551335    0.210115    0.167631    0.000000
   198  O2    s     0.763623    0.338097    0.496303    0.000000
   199  O3    s     0.571987    0.347946    0.995666    0.000000
   200  O2    s     0.752666    0.397898    0.662917    0.000000
   201  O2    s     0.615674    0.207070    0.333074    0.000000
   202  O2    s     0.399867    0.643944    0.499506    0.000000
   203  O2    s     0.198388    0.562766    0.167810    0.000000
   204  O3    s     0.343642    0.759759    0.831977    0.000000
   205  O2    s     0.115792    0.210699    0.965579    0.000000
   206  O2    s     0.750289    0.879116    0.301945    0.000000
   207  O2    s     0.078792    0.862562    0.634688    0.000000
   208  O2    s     0.855051    0.762197    0.468850    0.000000
   209  O2    s     0.207848    0.078644    0.799952    0.000000
   210  O2    s     0.868638    0.101133    0.135010    0.000000
   211  O2    s     0.183877    0.093864    0.357654    0.000000
   212  O2    s     0.899718    0.788906    0.029950    0.000000
   213  O2    s     0.865599    0.081493    0.693393    0.000000
   214  O2    s     0.788241    0.872029    0.859059    0.000000
   215  O2    s     0.093374    0.212471    0.526506    0.000000
   216  O2    s     0.086601    0.880293    0.195790    0.000000
   217  O2    s     0.891028    0.831389    0.247269    0.000000
   218  O2    s     0.123335    0.051644    0.579635    0.000000
   219  O2    s     0.924218    0.059325    0.914326    0.000000
   220  O2    s     0.056635    0.118218    0.745898    0.000000
   221  O2    s     0.828146    0.917217    0.081150    0.000000
   222  O2    s     0.038327    0.909436    0.413557    0.000000
   223  O2    s     0.903264    0.198336    0.977468    0.000000
   224  O2    s     0.759011    0.676557    0.313791    0.000000
   225  O2    s     0.280910    0.075149    0.645482    0.000000
   226  O2    s     0.073608    0.785702    0.480469    0.000000
   227  O2    s     0.198452    0.280248    0.808106    0.000000
   228  O2    s     0.669915    0.887062    0.147556    0.000000
   229  O2    s     0.172664    0.881815    0.350250    0.000000
   230  O2    s     0.694110    0.791295    0.011496    0.000000
   231  O2    s     0.079668    0.281078    0.681929    0.000000
   232  O2    s     0.790434    0.081570    0.848255    0.000000
   233  O3    s     0.278406    0.178694    0.515117    0.000000
   234  O2    s     0.873070    0.681127    0.181459    0.000000
   235  O2    s     0.296384    0.632393    0.250023    0.000000
   236  O2    s     0.331861    0.664823    0.582865    0.000000
   237  O3    s     0.300476    0.665096    0.919448    0.000000
   238  O2    s     0.660479    0.332288    0.746053    0.000000
   239  O3    s     0.612063    0.300155    0.085072    0.000000
   240  O2    s     0.644456    0.303842    0.415567    0.000000
   241  O2    s     0.369004    0.339256    0.961556    0.000000
   242  O2    s     0.627009    0.010298    0.301227    0.000000
   243  O2    s     0.949050    0.607536    0.632810    0.000000
   244  O2    s     0.601056    0.638686    0.467103    0.000000
   245  O2    s     0.333347    0.952508    0.799164    0.000000
   246  O2    s     0.000531    0.355622    0.133255    0.000000
   247  O2    s     0.306347    0.351387    0.365170    0.000000
   248  O2    s     0.016878    0.648017    0.030442    0.000000
   249  O2    s     0.611797    0.951957    0.696045    0.000000
   250  O2    s     0.652077    0.615658    0.859511    0.000000
   251  O2    s     0.959639    0.331743    0.529273    0.000000
   252  O2    s     0.341852    0.010803    0.197579    0.000000
   253  O3    s     0.761151    0.288375    0.005471    0.000000
   254  O2    s     0.655624    0.439893    0.347527    0.000000
   255  O2    s     0.520535    0.208429    0.676280    0.000000
   256  O2    s     0.210835    0.684953    0.512517    0.000000
   257  O3    s     0.287509    0.510498    0.837240    0.000000
   258  O2    s     0.431755    0.754471    0.179485    0.000000
   259  O2    s     0.278988    0.751490    0.319248    0.000000
   260  O2    s     0.453636    0.685133    0.981145    0.000000
   261  O2    s     0.211361    0.521704    0.651674    0.000000
   262  O2    s     0.683140    0.214567    0.816343    0.000000
   263  O3    s     0.530640    0.287542    0.488413    0.000000
   264  O2    s     0.738855    0.445280    0.148845    0.000000
   265  O3    s     0.776042    0.546038    0.023287    0.000000
   266  O2    s     0.438197    0.234318    0.363999    0.000000
   267  O2    s     0.731672    0.198174    0.694074    0.000000
   268  O2    s     0.203281    0.463921    0.528751    0.000000
   269  O3    s     0.543799    0.748979    0.853721    0.000000
   270  O2    s     0.221600    0.764273    0.197114    0.000000
   271  O2    s     0.500205    0.764042    0.302216    0.000000
   272  O2    s     0.246941    0.461919    0.964500    0.000000
   273  O2    s     0.195409    0.728713    0.635026    0.000000
   274  O2    s     0.459594    0.199186    0.799691    0.000000
   275  O2    s     0.717405    0.509089    0.468109    0.000000
   276  O2    s     0.755711    0.239436    0.131604    0.000000
   277  O2    s     0.230499    0.330251    0.893313    0.000000
   278  O2    s     0.633301    0.883707    0.231132    0.000000
   279  O2    s     0.075455    0.746944    0.563759    0.000000
   280  O2    s     0.728234    0.637749    0.398032    0.000000
   281  O2    s     0.323279    0.080641    0.729007    0.000000
   282  O2    s     0.879919    0.226283    0.062764    0.000000
   283  O3    s     0.288745    0.201526    0.429188    0.000000
   284  O2    s     0.876149    0.645921    0.098155    0.000000
   285  O2    s     0.749978    0.080913    0.765183    0.000000
   286  O2    s     0.650419    0.753266    0.927780    0.000000
   287  O2    s     0.088209    0.324421    0.598856    0.000000
   288  O2    s     0.207788    0.882788    0.267280    0.000000
   289  O2    s     0.567591    0.555760    0.979689    0.000000
   290  O2    s     0.408882    0.996857    0.320534    0.000000
   291  O2    s     0.965374    0.402680    0.650701    0.000000
   292  O3    s     0.395983    0.436043    0.491439    0.000000
   293  O2    s     0.552965    0.969465    0.819488    0.000000
   294  O2    s     0.982504    0.553454    0.150885    0.000000
   295  O2    s     0.525667    0.552028    0.348609    0.000000
   296  O2    s     0.000653    0.430437    0.011622    0.000000
   297  O2    s     0.403910    0.962347    0.677642    0.000000
   298  O2    s     0.433029    0.415315    0.841665    0.000000
   299  O2    s     0.965440    0.549618    0.509903    0.000000
   300  O2    s     0.549308    0.000873    0.178587    0.000000
   301  O2    s     0.542698    0.127798    0.250040    0.000000
   302  O2    s     0.836198    0.410144    0.579989    0.000000
   303  O2    s     0.568326    0.421169    0.911795    0.000000
   304  O2    s     0.416714    0.835139    0.749053    0.000000
   305  O2    s     0.119737    0.555542    0.083975    0.000000
   306  O2    s     0.392629    0.550006    0.417530    0.000000
   307  F     s     0.417737    0.877121    0.248590    0.000000
   308  F     s     0.086848    0.540281    0.579730    0.000000
   309  F     s     0.424348    0.574348    0.901067    0.000000
   310  F     s     0.542909    0.092221    0.746670    0.000000
   311  F     s     0.830344    0.422303    0.069260    0.000000
   312  F     s     0.485580    0.392616    0.429222    0.000000
--------------------------------------------------------------------------------

  Final Cartesian lattice vectors (Angstroms) :

       11.955994    0.005581   -0.010775
       -5.994307   10.402987    0.025306
       -0.310680    0.144809   29.375298


  Final cell parameters and derivatives :

--------------------------------------------------------------------------------
       a           11.956000 Angstrom     dE/de1(xx)     0.001570 eV/strain
       b           12.006436 Angstrom     dE/de2(yy)     0.000970 eV/strain
       c           29.377298 Angstrom     dE/de3(zz)     0.001313 eV/strain
       alpha       89.332008 Degrees      dE/de4(yz)    -0.000200 eV/strain
       beta        90.657449 Degrees      dE/de5(xz)     0.000015 eV/strain
       gamma      119.924279 Degrees      dE/de6(xy)    -0.000223 eV/strain
--------------------------------------------------------------------------------

  Primitive cell volume =          3654.555681 Angs**3

  Density of cell =      1.750717 g/cm**3

  Non-primitive cell volume =          3654.555681 Angs**3


  Final internal derivatives :

--------------------------------------------------------------------------------
   No.  Atomic          a             b             c           Radius
        Label          (eV)          (eV)          (eV)        (eV/Angs)
--------------------------------------------------------------------------------
      1 Ge    c       0.000000      0.000000      0.000000      0.000000
      2 Si    c      -0.000536      0.000145     -0.000381      0.000000
      3 Si    c      -0.000168      0.000264     -0.000981      0.000000
      4 Si    c       0.000345     -0.000303     -0.000413      0.000000
      5 Ge    c      -0.000546      0.001030     -0.000315      0.000000
      6 Si    c       0.000081     -0.000967     -0.001641      0.000000
      7 Si    c       0.000188     -0.001110      0.000610      0.000000
      8 Si    c      -0.001355      0.000965      0.002086      0.000000
      9 Si    c      -0.000127      0.000177     -0.000018      0.000000
     10 Si    c      -0.000303     -0.000309     -0.000453      0.000000
     11 Si    c      -0.000000     -0.000152     -0.000236      0.000000
     12 Si    c       0.001145      0.001480      0.002512      0.000000
     13 Si    c       0.001352     -0.001438      0.002163      0.000000
     14 Si    c      -0.001346      0.001085      0.001822      0.000000
     15 Si    c      -0.000463      0.000209      0.001060      0.000000
     16 Si    c       0.000078      0.000011     -0.000030      0.000000
     17 Si    c       0.000023      0.000262      0.000606      0.000000
     18 Si    c      -0.000105     -0.000054     -0.004255      0.000000
     19 Si    c       0.000184     -0.000066     -0.001346      0.000000
     20 Si    c      -0.000308     -0.000574      0.001104      0.000000
     21 Si    c      -0.000049      0.000341     -0.000277      0.000000
     22 Si    c       0.000204     -0.001053      0.000018      0.000000
     23 Si    c      -0.000097      0.000364      0.000418      0.000000
     24 Si    c      -0.001846      0.000890      0.001718      0.000000
     25 Si    c       0.000493     -0.001262     -0.001150      0.000000
     26 Si    c       0.000292      0.000129     -0.002868      0.000000
     27 Si    c      -0.000232      0.000474     -0.000976      0.000000
     28 Si    c       0.000319     -0.000590     -0.001744      0.000000
     29 Si    c       0.000110     -0.000008     -0.000021      0.000000
     30 Si    c      -0.000119      0.000272      0.001787      0.000000
     31 Ge    c       0.000625     -0.000614      0.000417      0.000000
     32 Si    c      -0.001062     -0.001934     -0.007688      0.000000
     33 Si    c      -0.000454      0.000088      0.000009      0.000000
     34 Si    c      -0.000217      0.000824      0.001032      0.000000
     35 Si    c      -0.000261     -0.000159     -0.000255      0.000000
     36 Si    c      -0.001573      0.001557      0.001299      0.000000
     37 Si    c       0.000417     -0.001122      0.001508      0.000000
     38 Si    c       0.000316     -0.000753      0.000666      0.000000
     39 Si    c       0.000031      0.000161      0.000180      0.000000
     40 Si    c       0.000025     -0.000489     -0.000656      0.000000
     41 Si    c      -0.000029      0.000130      0.000862      0.000000
     42 Si    c       0.001101     -0.000865     -0.004990      0.000000
     43 Si    c       0.000881     -0.000886     -0.000939      0.000000
     44 Si    c       0.000768     -0.001759     -0.001083      0.000000
     45 Si    c      -0.000076      0.000198     -0.000253      0.000000
     46 Si    c       0.000105     -0.000090      0.000925      0.000000
     47 Si    c       0.000376     -0.000339      0.000446      0.000000
     48 Si    c      -0.001367      0.000634     -0.001684      0.000000
     49 Si    c      -0.000508     -0.000822     -0.000499      0.000000
     50 Si    c       0.001042     -0.001167      0.000271      0.000000
     51 Si    c       0.000484     -0.000051     -0.000460      0.000000
     52 Si    c       0.000785     -0.000392     -0.000124      0.000000
     53 Si    c       0.000641     -0.000526      0.001050      0.000000
     54 Si    c       0.000240      0.000553     -0.003323      0.000000
     55 Si    c       0.000549     -0.000834     -0.001602      0.000000
     56 Si    c      -0.000193      0.001592     -0.001739      0.000000
     57 Si    c       0.000078     -0.000276      0.001387      0.000000
     58 Si    c       0.001225     -0.000253      0.001878      0.000000
     59 Si    c       0.000203     -0.000253      0.000196      0.000000
     60 Si    c       0.000968     -0.000512     -0.000766      0.000000
     61 O2    c      -0.000642      0.000951     -0.001093      0.000000
     62 O2    c       0.000833     -0.000850     -0.000210      0.000000
     63 O2    c       0.000080     -0.000166     -0.000302      0.000000
     64 O2    c       0.000028     -0.000103      0.000568      0.000000
     65 O2    c       0.000262     -0.000926     -0.001131      0.000000
     66 O2    c       0.000981     -0.000964      0.002327      0.000000
     67 O2    c      -0.000169     -0.000199     -0.000435      0.000000
     68 O2    c       0.000114     -0.000002     -0.000083      0.000000
     69 O2    c       0.000340     -0.000208     -0.001808      0.000000
     70 O2    c      -0.000171      0.000438     -0.000122      0.000000
     71 O2    c      -0.000962     -0.000526      0.001265      0.000000
     72 O2    c       0.000206      0.000235     -0.000655      0.000000
     73 O3    c      -0.001167     -0.000169     -0.004028      0.000000
     74 O2    c       0.000193      0.000303     -0.000102      0.000000
     75 O2    c      -0.000375      0.000229     -0.000021      0.000000
     76 O2    c      -0.000645      0.000446      0.000513      0.000000
     77 O2    c       0.000237     -0.000606     -0.001690      0.000000
     78 O3    c      -0.000260     -0.000054      0.000511      0.000000
     79 O2    c       0.000357      0.000329      0.000904      0.000000
     80 O2    c      -0.000869      0.000607     -0.000029      0.000000
     81 O2    c       0.000119     -0.000207     -0.000267      0.000000
     82 O2    c       0.000211     -0.000247     -0.000626      0.000000
     83 O2    c      -0.000331      0.000231     -0.000636      0.000000
     84 O2    c      -0.000134     -0.000806     -0.000280      0.000000
     85 O2    c       0.001118     -0.000205     -0.000140      0.000000
     86 O2    c      -0.000286     -0.001864     -0.001767      0.000000
     87 O2    c       0.000415     -0.000016      0.000391      0.000000
     88 O2    c       0.000315     -0.000805     -0.000596      0.000000
     89 O2    c       0.000209     -0.000483      0.001258      0.000000
     90 O2    c       0.000581     -0.000427      0.000314      0.000000
     91 O2    c       0.000853     -0.000452      0.002039      0.000000
     92 O2    c       0.000169     -0.000424     -0.000031      0.000000
     93 O2    c       0.000569      0.000148      0.000697      0.000000
     94 O2    c       0.000359      0.000117     -0.001623      0.000000
     95 O2    c      -0.000017      0.000063     -0.000849      0.000000
     96 O2    c       0.000508     -0.000860      0.000820      0.000000
     97 O2    c      -0.000308     -0.000248      0.000951      0.000000
     98 O2    c       0.000514     -0.000908     -0.000032      0.000000
     99 O2    c      -0.000384     -0.000154      0.000491      0.000000
    100 O2    c      -0.000749      0.000094      0.000470      0.000000
    101 O2    c       0.000898     -0.000299     -0.000520      0.000000
    102 O2    c       0.000546      0.000511     -0.000058      0.000000
    103 O2    c      -0.000967      0.000698     -0.000108      0.000000
    104 O2    c      -0.000042      0.000213      0.000539      0.000000
    105 O2    c       0.000077      0.000052     -0.000975      0.000000
    106 O2    c      -0.000676      0.000124     -0.001478      0.000000
    107 O3    c      -0.000013     -0.000221     -0.000335      0.000000
    108 O2    c       0.000826      0.000639      0.000463      0.000000
    109 O2    c       0.000438     -0.001056     -0.000058      0.000000
    110 O2    c       0.000102      0.000451      0.000642      0.000000
    111 O3    c      -0.000855      0.000549     -0.002586      0.000000
    112 O2    c       0.000169      0.000176     -0.001499      0.000000
    113 O3    c       0.001648      0.002625      0.006570      0.000000
    114 O2    c      -0.000235      0.000378      0.000337      0.000000
    115 O2    c      -0.000061      0.000323      0.000636      0.000000
    116 O2    c       0.000191     -0.000311      0.000974      0.000000
    117 O2    c      -0.000213      0.000619      0.000419      0.000000
    118 O2    c       0.000004      0.000042      0.000603      0.000000
    119 O2    c      -0.000112      0.000250      0.001054      0.000000
    120 O2    c       0.000361     -0.000270     -0.000955      0.000000
    121 O2    c      -0.000084     -0.000525     -0.000722      0.000000
    122 O2    c      -0.001357      0.000627     -0.000398      0.000000
    123 O2    c      -0.000131      0.000128      0.000032      0.000000
    124 O2    c       0.000456      0.000455     -0.000742      0.000000
    125 O2    c      -0.000167     -0.000119     -0.000598      0.000000
    126 O2    c      -0.000112      0.000871     -0.000132      0.000000
    127 O3    c      -0.001114     -0.000087      0.003622      0.000000
    128 O2    c      -0.000084      0.000016     -0.001321      0.000000
    129 O2    c       0.000115     -0.000139     -0.000134      0.000000
    130 O2    c      -0.000052      0.000372     -0.000991      0.000000
    131 O3    c      -0.000572      0.000724     -0.001720      0.000000
    132 O2    c      -0.000176     -0.000062     -0.000478      0.000000
    133 O2    c      -0.000026     -0.000126      0.001536      0.000000
    134 O2    c      -0.000612     -0.000280      0.000544      0.000000
    135 O2    c      -0.000062      0.000142      0.000210      0.000000
    136 O2    c       0.000173     -0.000086      0.000843      0.000000
    137 O3    c       0.000101      0.000205      0.000168      0.000000
    138 O2    c       0.000867     -0.000003     -0.003022      0.000000
    139 O3    c       0.001824     -0.001193      0.008732      0.000000
    140 O2    c      -0.000372     -0.000051     -0.000922      0.000000
    141 O2    c       0.000003      0.000087     -0.000221      0.000000
    142 O2    c       0.000039     -0.000454      0.001031      0.000000
    143 O3    c      -0.000072      0.000387      0.000609      0.000000
    144 O2    c      -0.000868      0.000501     -0.000937      0.000000
    145 O2    c       0.000034     -0.000296      0.000016      0.000000
    146 O2    c      -0.000322     -0.000064      0.001670      0.000000
    147 O2    c       0.000036      0.000501      0.000986      0.000000
    148 O2    c       0.000084      0.000014      0.000097      0.000000
    149 O2    c       0.000054      0.000196     -0.000303      0.000000
    150 O2    c      -0.000126      0.000685      0.000881      0.000000
    151 O2    c       0.000606     -0.000863     -0.001283      0.000000
    152 O2    c       0.000437     -0.000252      0.000524      0.000000
    153 O2    c       0.000044      0.000188     -0.000717      0.000000
    154 O2    c       0.000619     -0.000259     -0.000436      0.000000
    155 O2    c       0.000106     -0.000294     -0.000992      0.000000
    156 O2    c       0.000578      0.000265      0.002167      0.000000
    157 O3    c      -0.000061     -0.001106     -0.000171      0.000000
    158 O2    c       0.002089     -0.001259     -0.002815      0.000000
    159 O2    c      -0.000247      0.000342      0.000622      0.000000
    160 O2    c       0.000438     -0.000251      0.003290      0.000000
    161 O2    c      -0.000392      0.000133      0.000719      0.000000
    162 O2    c      -0.000683      0.000604      0.002010      0.000000
    163 O2    c       0.000060      0.000045      0.001397      0.000000
    164 O2    c      -0.000800      0.000717      0.000486      0.000000
    165 O2    c       0.000099     -0.000025      0.001027      0.000000
    166 O3    c      -0.000084      0.000302      0.000529      0.000000
    167 O2    c      -0.000343      0.000340      0.000183      0.000000
    168 O2    c      -0.000295      0.001466      0.000872      0.000000
    169 O2    c      -0.000215     -0.000604     -0.001346      0.000000
    170 O2    c      -0.000061     -0.000136      0.001687      0.000000
    171 O2    c       0.000048     -0.000008     -0.000616      0.000000
    172 O2    c       0.000515     -0.000170     -0.001631      0.000000
    173 O2    c      -0.000240      0.000148     -0.000137      0.000000
    174 O2    c       0.000512     -0.001094     -0.000891      0.000000
    175 O2    c      -0.000647      0.001484      0.000100      0.000000
    176 O2    c      -0.000508      0.000124     -0.000581      0.000000
    177 O2    c       0.000331     -0.000365      0.001417      0.000000
    178 O2    c      -0.000320      0.000113      0.000472      0.000000
    179 O2    c      -0.000576      0.000131     -0.001082      0.000000
    180 O2    c      -0.000020      0.000032      0.000609      0.000000
    181 F     c       0.000135      0.000017      0.000605      0.000000
    182 F     c      -0.000362     -0.000055      0.001564      0.000000
    183 F     c      -0.000065     -0.000010     -0.000154      0.000000
    184 F     c      -0.000047     -0.000097     -0.000030      0.000000
    185 F     c       0.000544     -0.001621     -0.000387      0.000000
    186 F     c       0.000516     -0.000130     -0.000896      0.000000
    187 O2    s      -0.000958     -0.000660     -0.000144      0.000000
    188 O2    s      -0.001575      0.001572      0.002091      0.000000
    189 O2    s       0.000281      0.000234     -0.000885      0.000000
    190 O2    s      -0.000231      0.000559     -0.000450      0.000000
    191 O2    s      -0.001109      0.001149     -0.000746      0.000000
    192 O2    s      -0.001882      0.001207      0.000400      0.000000
    193 O2    s      -0.000331      0.000136      0.000631      0.000000
    194 O2    s       0.000284     -0.000513     -0.000434      0.000000
    195 O2    s      -0.000279      0.000470      0.000267      0.000000
    196 O2    s      -0.000109      0.000131      0.000035      0.000000
    197 O2    s       0.001009      0.001527     -0.000324      0.000000
    198 O2    s      -0.000382     -0.000756      0.000217      0.000000
    199 O3    s       0.000102     -0.000163      0.006489      0.000000
    200 O2    s      -0.000148     -0.000138      0.000004      0.000000
    201 O2    s       0.000752     -0.001217      0.000249      0.000000
    202 O2    s       0.000171      0.000086     -0.000179      0.000000
    203 O2    s      -0.000573      0.001566      0.001595      0.000000
    204 O3    s       0.000889     -0.000462     -0.001235      0.000000
    205 O2    s      -0.000467      0.000496     -0.001084      0.000000
    206 O2    s       0.000045     -0.000338      0.002203      0.000000
    207 O2    s      -0.000453      0.000503      0.001611      0.000000
    208 O2    s      -0.000076      0.000390      0.001171      0.000000
    209 O2    s       0.000134      0.000264      0.000288      0.000000
    210 O2    s       0.000057      0.000663      0.001344      0.000000
    211 O2    s      -0.002076      0.000909      0.000144      0.000000
    212 O2    s      -0.002388     -0.000930     -0.001885      0.000000
    213 O2    s       0.000086     -0.000202     -0.001537      0.000000
    214 O2    s      -0.000415      0.000568     -0.001335      0.000000
    215 O2    s       0.000062      0.000169     -0.001341      0.000000
    216 O2    s       0.000149     -0.000013      0.001079      0.000000
    217 O2    s      -0.001739      0.001209      0.000502      0.000000
    218 O2    s       0.000174      0.000584     -0.000241      0.000000
    219 O2    s      -0.000006      0.000555     -0.002045      0.000000
    220 O2    s      -0.000096      0.000804     -0.000858      0.000000
    221 O2    s       0.002476     -0.000479      0.002323      0.000000
    222 O2    s      -0.000648      0.000589      0.000242      0.000000
    223 O2    s      -0.000496     -0.000346     -0.001172      0.000000
    224 O2    s      -0.000982      0.000966      0.000883      0.000000
    225 O2    s      -0.000295      0.000667     -0.001384      0.000000
    226 O2    s       0.000441     -0.000292     -0.000413      0.000000
    227 O2    s      -0.001359      0.000899      0.000339      0.000000
    228 O2    s       0.000585     -0.001679     -0.001487      0.000000
    229 O2    s       0.000583     -0.001386      0.001574      0.000000
    230 O2    s       0.000890     -0.000721      0.002118      0.000000
    231 O2    s       0.000290     -0.000044      0.001303      0.000000
    232 O2    s       0.000606      0.000020      0.000373      0.000000
    233 O3    s      -0.000702      0.000814     -0.000404      0.000000
    234 O2    s      -0.000172     -0.000381      0.000663      0.000000
    235 O2    s      -0.000920      0.000883      0.001185      0.000000
    236 O2    s       0.000985     -0.000673      0.000432      0.000000
    237 O3    s       0.000846     -0.000485     -0.002568      0.000000
    238 O2    s       0.000003      0.000234      0.000352      0.000000
    239 O3    s       0.000423     -0.004739     -0.003737      0.000000
    240 O2    s       0.000903     -0.001415      0.000037      0.000000
    241 O2    s      -0.000550      0.000677     -0.002484      0.000000
    242 O2    s      -0.000833      0.000227     -0.000338      0.000000
    243 O2    s      -0.000430      0.000429      0.000926      0.000000
    244 O2    s      -0.000231      0.000106     -0.001220      0.000000
    245 O2    s      -0.000062      0.000001     -0.001445      0.000000
    246 O2    s      -0.000394      0.000659      0.001179      0.000000
    247 O2    s      -0.000611      0.000073      0.000176      0.000000
    248 O2    s      -0.000503     -0.000227     -0.000960      0.000000
    249 O2    s       0.000601     -0.000636     -0.001281      0.000000
    250 O2    s      -0.000648      0.000061     -0.001573      0.000000
    251 O2    s       0.000406     -0.000383     -0.000031      0.000000
    252 O2    s       0.000889     -0.001405     -0.000546      0.000000
    253 O3    s       0.001519      0.000178     -0.000916      0.000000
    254 O2    s       0.000194     -0.000271      0.001366      0.000000
    255 O2    s       0.000050      0.000567     -0.000711      0.000000
    256 O2    s      -0.000293     -0.000041      0.000402      0.000000
    257 O3    s       0.000396     -0.000423      0.000675      0.000000
    258 O2    s       0.000403     -0.000393      0.000985      0.000000
    259 O2    s       0.000119     -0.000653     -0.001540      0.000000
    260 O2    s       0.000831     -0.000284     -0.002928      0.000000
    261 O2    s       0.000806      0.000016      0.001426      0.000000
    262 O2    s       0.000404     -0.000163     -0.000579      0.000000
    263 O3    s      -0.000441     -0.000819      0.001142      0.000000
    264 O2    s       0.001934      0.000090      0.001334      0.000000
    265 O3    s      -0.002941      0.001734     -0.004689      0.000000
    266 O2    s      -0.000430      0.000014      0.000573      0.000000
    267 O2    s       0.000272      0.000171     -0.000480      0.000000
    268 O2    s       0.000282     -0.000298     -0.001574      0.000000
    269 O3    s       0.000051     -0.000348     -0.001932      0.000000
    270 O2    s       0.000636     -0.001020      0.002096      0.000000
    271 O2    s      -0.000141      0.000169      0.000732      0.000000
    272 O2    s       0.000480     -0.000319     -0.003445      0.000000
    273 O2    s       0.000192      0.000059      0.000655      0.000000
    274 O2    s      -0.000290      0.000672      0.000309      0.000000
    275 O2    s      -0.000427      0.000357     -0.000292      0.000000
    276 O2    s      -0.000604      0.000505      0.000811      0.000000
    277 O2    s      -0.001287      0.001433      0.001330      0.000000
    278 O2    s      -0.000589     -0.000110      0.000303      0.000000
    279 O2    s      -0.000748      0.000562      0.000946      0.000000
    280 O2    s      -0.000633      0.000220      0.000737      0.000000
    281 O2    s      -0.000161      0.000641     -0.000060      0.000000
    282 O2    s      -0.001659      0.000743      0.003727      0.000000
    283 O3    s      -0.001137      0.000709      0.001159      0.000000
    284 O2    s      -0.000843      0.001863      0.002177      0.000000
    285 O2    s       0.000693     -0.000639      0.000770      0.000000
    286 O2    s      -0.000606     -0.000091      0.000184      0.000000
    287 O2    s       0.000597     -0.000520      0.000124      0.000000
    288 O2    s       0.000655     -0.001257     -0.001163      0.000000
    289 O2    s      -0.000088      0.001478     -0.001289      0.000000
    290 O2    s       0.001537     -0.001614     -0.000432      0.000000
    291 O2    s      -0.000144     -0.000360      0.000636      0.000000
    292 O3    s      -0.000497     -0.000219     -0.000082      0.000000
    293 O2    s       0.000730     -0.000760      0.000209      0.000000
    294 O2    s       0.001119     -0.001525     -0.001294      0.000000
    295 O2    s       0.000020      0.000829      0.001405      0.000000
    296 O2    s      -0.000292      0.000040     -0.002681      0.000000
    297 O2    s       0.000242      0.000037      0.000611      0.000000
    298 O2    s      -0.000223      0.000029      0.002191      0.000000
    299 O2    s       0.000019     -0.000165     -0.000288      0.000000
    300 O2    s      -0.000702      0.000402      0.001300      0.000000
    301 O2    s       0.000899     -0.002312      0.000442      0.000000
    302 O2    s      -0.000454     -0.000045      0.000256      0.000000
    303 O2    s      -0.000055      0.000902     -0.000834      0.000000
    304 O2    s       0.000534     -0.000332     -0.000645      0.000000
    305 O2    s      -0.000271      0.000311      0.000279      0.000000
    306 O2    s      -0.000288      0.000656      0.000384      0.000000
    307 F     s       0.000032      0.000011      0.000165      0.000000
    308 F     s      -0.000300     -0.000015     -0.000432      0.000000
    309 F     s       0.000037     -0.000117      0.000462      0.000000
    310 F     s      -0.000029     -0.000127     -0.000186      0.000000
    311 F     s      -0.001290      0.001819      0.001138      0.000000
    312 F     s      -0.000302      0.000553     -0.000180      0.000000
--------------------------------------------------------------------------------
  Maximum abs         0.002941      0.004739      0.008732      0.000000
--------------------------------------------------------------------------------


  Time to end of optimisation =      84.0688 seconds


  Peak dynamic memory used =      19.13 MB 


  Timing analysis for GULP :

--------------------------------------------------------------------------------
  Task / Subroutine                                          Time (Seconds)
--------------------------------------------------------------------------------
  Calculation of reciprocal space energy and derivatives          2.4820
  Calculation of real space energy and derivatives               72.1598
  Calculation of three-body energy and derivatives                8.1394
  Calculation of matrix inversion                                 0.9713
--------------------------------------------------------------------------------
  Total CPU time                                                 84.0688
--------------------------------------------------------------------------------


  Dump file written as out.res                                                 
  CIF file written as out.cif                                                 


  Job Finished at 00:15.18  4th December   2016                               

