********************************************************************************
*                       GENERAL UTILITY LATTICE PROGRAM                        *
*                                 Julian Gale                                  *
*                      Nanochemistry Research Institute                        *
*                           Department of Chemistry                            *
*                    Curtin University, Western Australia                      *
********************************************************************************
* Version = 4.2.0 * Last modified =  20th January 2014                         *
********************************************************************************
*  optimise     - perform optimisation run                                     *
*  conp         - constant pressure calculation                                *
*  qok          - running with non charge neutral cell is OK                   *
********************************************************************************

  Job Started  at 23:00.54  3rd December   2016                               

  Number of CPUs =     1


  Total number of configurations input =   1

********************************************************************************
*  Input for Configuration =   1                                               *
********************************************************************************

  Formula = Ge3Si57O120F6                                               

  Number of irreducible atoms/shells =     312


  Total number atoms/shells =     312

  Dimensionality = 3               :  Bulk   


  Charge on solid   =  -6.000000 =>neutralising background added


  Cartesian lattice vectors (Angstroms) :

       11.944526    0.000000    0.000000
       -5.967970   10.403158    0.000000
       -0.337187   -0.098131   29.480671

  Cell parameters (Angstroms/Degrees):

  a =      11.9445    alpha =  89.8393
  b =      11.9934    beta  =  90.6553
  c =      29.4828    gamma = 119.8416

  Initial cell volume =        3663.291501 Angs**3

  Temperature of configuration =  0.000     K 

  Pressure of configuration =         0.000 GPa 

  Fractional coordinates of asymmetric unit :

--------------------------------------------------------------------------------
   No.  Atomic       x           y          z         Charge      Occupancy
        Label      (Frac)      (Frac)     (Frac)        (e)         (Frac)  
--------------------------------------------------------------------------------
      1 Ge    c    0.699600    0.375700    0.033890     4.00000    1.000000    
      2 Si    c    0.619712 *  0.321403 *  0.366329 *   4.00000    1.000000    
      3 Si    c    0.677673 *  0.295023 *  0.697323 *   4.00000    1.000000    
      4 Si    c    0.296801 *  0.618708 *  0.530574 *   4.00000    1.000000    
      5 Ge    c    0.386863 *  0.666201 *  0.865118 *   4.00000    1.000000    
      6 Si    c    0.318102 *  0.701349 *  0.196963 *   4.00000    1.000000    
      7 Si    c    0.370538 *  0.696339 *  0.297897 *   4.00000    1.000000    
      8 Si    c    0.313390 *  0.628493 *  0.962689 *   4.00000    1.000000    
      9 Si    c    0.299552 *  0.672997 *  0.631332 *   4.00000    1.000000    
     10 Si    c    0.622897 *  0.292837 *  0.797493 *   4.00000    1.000000    
     11 Si    c    0.677615 *  0.382142 *  0.466376 *   4.00000    1.000000    
     12 Si    c    0.682110 *  0.315861 *  0.132509 *   4.00000    1.000000    
     13 Si    c    0.530746 *  0.420432 *  0.964402 *   4.00000    1.000000    
     14 Si    c    0.576733 *  0.110044 *  0.301735 *   4.00000    1.000000    
     15 Si    c    0.888344 *  0.468176 *  0.633353 *   4.00000    1.000000    
     16 Si    c    0.468941 *  0.584425 *  0.464718 *   4.00000    1.000000    
     17 Si    c    0.419613 *  0.878233 *  0.798249 *   4.00000    1.000000    
     18 Si    c    0.103585 *  0.528819 *  0.131292 *   4.00000    1.000000    
     19 Si    c    0.413849 *  0.527606 *  0.363111 *   4.00000    1.000000    
     20 Si    c    0.099484 *  0.579994 *  0.028070 *   4.00000    1.000000    
     21 Si    c    0.472467 *  0.884664 *  0.695835 *   4.00000    1.000000    
     22 Si    c    0.585284 *  0.469118 *  0.861216 *   4.00000    1.000000    
     23 Si    c    0.888281 *  0.417845 *  0.531686 *   4.00000    1.000000    
     24 Si    c    0.524768 *  0.109301 *  0.200325 *   4.00000    1.000000    
     25 Si    c    0.297426 *  0.394757 *  0.843181 *   4.00000    1.000000    
     26 Si    c    0.597735 *  0.902224 *  0.184354 *   4.00000    1.000000    
     27 Si    c    0.094912 *  0.696393 *  0.516810 *   4.00000    1.000000    
     28 Si    c    0.693141 *  0.595839 *  0.348995 *   4.00000    1.000000    
     29 Si    c    0.400958 *  0.093871 *  0.681546 *   4.00000    1.000000    
     30 Si    c    0.889667 *  0.293762 *  0.011603 *   4.00000    1.000000    
     31 Si    c    0.398502 *  0.304849 *  0.480777 *   4.00000    1.000000    
     32 Si    c    0.888174 *  0.599395 *  0.143710 *   4.00000    1.000000    
     33 Si    c    0.701159 *  0.092356 *  0.811404 *   4.00000    1.000000    
     34 Si    c    0.597961 *  0.705771 *  0.975160 *   4.00000    1.000000    
     35 Si    c    0.098961 *  0.396035 *  0.646711 *   4.00000    1.000000    
     36 Si    c    0.295787 *  0.899019 *  0.312970 *   4.00000    1.000000    
     37 Si    c    0.248910 *  0.345808 *  0.945923 *   4.00000    1.000000    
     38 Si    c    0.651089 *  0.907358 *  0.285545 *   4.00000    1.000000    
     39 Si    c    0.089517 *  0.745867 *  0.617481 *   4.00000    1.000000    
     40 Si    c    0.748036 *  0.661899 *  0.449062 *   4.00000    1.000000    
     41 Si    c    0.343842 *  0.081933 *  0.781788 *   4.00000    1.000000    
     42 Si    c    0.899560 *  0.248772 *  0.114772 *   4.00000    1.000000    
     43 Si    c    0.339920 *  0.251502 *  0.380087 *   4.00000    1.000000    
     44 Si    c    0.894438 *  0.659760 *  0.041214 *   4.00000    1.000000    
     45 Si    c    0.750852 *  0.087254 *  0.710800 *   4.00000    1.000000    
     46 Si    c    0.668609 *  0.754014 *  0.873177 *   4.00000    1.000000    
     47 Si    c    0.089178 *  0.339237 *  0.545882 *   4.00000    1.000000    
     48 Si    c    0.245462 *  0.908672 *  0.212142 *   4.00000    1.000000    
     49 Si    c    0.974710 *  0.124446 *  0.962754 *   4.00000    1.000000    
     50 Ge    c    0.873442 *  0.845800 *  0.298163 *   4.00000    1.000000    
     51 Si    c    0.151685 *  0.025493 *  0.630572 *   4.00000    1.000000    
     52 Si    c    0.028610 *  0.878094 *  0.465260 *   4.00000    1.000000    
     53 Si    c    0.124688 *  0.140398 *  0.795073 *   4.00000    1.000000    
     54 Si    c    0.841847 *  0.971687 *  0.130156 *   4.00000    1.000000    
     55 Si    c    0.122837 *  0.971623 *  0.364723 *   4.00000    1.000000    
     56 Si    c    0.845871 *  0.885345 *  0.028340 *   4.00000    1.000000    
     57 Si    c    0.029099 *  0.145623 *  0.695087 *   4.00000    1.000000    
     58 Si    c    0.887382 *  0.027941 *  0.861717 *   4.00000    1.000000    
     59 Si    c    0.150983 *  0.121625 *  0.530196 *   4.00000    1.000000    
     60 Si    c    0.966872 *  0.850862 *  0.194254 *   4.00000    1.000000    
     61 O2    c    0.933063 *  0.007679 *  0.997479 *   0.87073    1.000000    
     62 O3    c    0.005529 *  0.938058 *  0.331421 *   1.33043    1.000000    
     63 O2    c    0.069872 *  0.068627 *  0.661054 *   0.87073    1.000000    
     64 O2    c    0.072245 *  0.002563 *  0.496323 *   0.87073    1.000000    
     65 O2    c    0.008255 *  0.070685 *  0.829648 *   0.87073    1.000000    
     66 O2    c    0.929433 *  0.931844 *  0.159857 *   0.87073    1.000000    
     67 O2    c    0.334046 *  0.573435 *  0.330128 *   0.87073    1.000000    
     68 O2    c    0.424144 *  0.759142 *  0.663391 *   0.87073    1.000000    
     69 O2    c    0.229553 *  0.657352 *  0.999170 *   0.87073    1.000000    
     70 O2    c    0.659729 *  0.415108 *  0.830633 *   0.87073    1.000000    
     71 O2    c    0.573792 *  0.237369 *  0.170074 *   0.87073    1.000000    
     72 O2    c    0.761104 *  0.342831 *  0.499414 *   0.87073    1.000000    
     73 O3    c    0.567996 *  0.340968 *  0.997542 *   1.33043    1.000000    
     74 O2    c    0.763464 *  0.419463 *  0.665431 *   0.87073    1.000000    
     75 O2    c    0.655710 *  0.233452 *  0.334595 *   0.87073    1.000000    
     76 O2    c    0.418650 *  0.658922 *  0.497187 *   0.87073    1.000000    
     77 O2    c    0.230353 *  0.579530 *  0.163446 *   0.87073    1.000000    
     78 O3    c    0.344057 *  0.758411 *  0.829491 *   1.33043    1.000000    
     79 O2    c    0.128024 *  0.219891 *  0.967996 *   0.87073    1.000000    
     80 O3    c    0.774778 *  0.909721 *  0.307419 *   1.33043    1.000000    
     81 O2    c    0.089597 *  0.872162 *  0.637135 *   0.87073    1.000000    
     82 O2    c    0.873791 *  0.788890 *  0.469173 *   0.87073    1.000000    
     83 O2    c    0.214588 *  0.076616 *  0.801446 *   0.87073    1.000000    
     84 O2    c    0.902128 *  0.125273 *  0.135870 *   0.87073    1.000000    
     85 O2    c    0.215157 *  0.124848 *  0.360182 *   0.87073    1.000000    
     86 O2    c    0.912645 *  0.797846 *  0.025519 *   0.87073    1.000000    
     87 O2    c    0.875311 *  0.085961 *  0.689787 *   0.87073    1.000000    
     88 O2    c    0.805896 *  0.873681 *  0.857458 *   0.87073    1.000000    
     89 O2    c    0.086901 *  0.212105 *  0.525740 *   0.87073    1.000000    
     90 O2    c    0.121023 *  0.909892 *  0.190313 *   0.87073    1.000000    
     91 O3    c    0.927042 *  0.868087 *  0.243409 *   1.33043    1.000000    
     92 O2    c    0.138269 *  0.062538 *  0.579501 *   0.87073    1.000000    
     93 O2    c    0.938850 *  0.068616 *  0.912632 *   0.87073    1.000000    
     94 O2    c    0.066365 *  0.122559 *  0.744960 *   0.87073    1.000000    
     95 O2    c    0.846419 *  0.934646 *  0.078727 *   0.87073    1.000000    
     96 O2    c    0.069368 *  0.928097 *  0.414699 *   0.87073    1.000000    
     97 O2    c    0.902104 *  0.203328 *  0.973888 *   0.87073    1.000000    
     98 O3    c    0.789374 *  0.684392 *  0.309646 *   1.33043    1.000000    
     99 O2    c    0.303312 *  0.095953 *  0.642992 *   0.87073    1.000000    
    100 O2    c    0.096417 *  0.795190 *  0.478619 *   0.87073    1.000000    
    101 O2    c    0.208770 *  0.291643 *  0.804989 *   0.87073    1.000000    
    102 O2    c    0.693135 *  0.900466 *  0.145868 *   0.87073    1.000000    
    103 O2    c    0.199699 *  0.897253 *  0.351557 *   0.87073    1.000000    
    104 O2    c    0.695966 *  0.803904 *  0.013457 *   0.87073    1.000000    
    105 O2    c    0.100406 *  0.298199 *  0.684745 *   0.87073    1.000000    
    106 O2    c    0.800783 *  0.092844 *  0.849670 *   0.87073    1.000000    
    107 O2    c    0.302872 *  0.207126 *  0.518890 *   0.87073    1.000000    
    108 O2    c    0.894232 *  0.698820 *  0.182121 *   0.87073    1.000000    
    109 O2    c    0.316630 *  0.641428 *  0.246804 *   0.87073    1.000000    
    110 O2    c    0.355533 *  0.674112 *  0.580910 *   0.87073    1.000000    
    111 O3    c    0.307160 *  0.684076 *  0.914723 *   1.33043    1.000000    
    112 O2    c    0.678428 *  0.352944 *  0.747519 *   0.87073    1.000000    
    113 O3    c    0.611976 *  0.303211 *  0.084870 *   1.33043    1.000000    
    114 O2    c    0.677524 *  0.322759 *  0.416630 *   0.87073    1.000000    
    115 O2    c    0.373949 *  0.340347 *  0.962940 *   0.87073    1.000000    
    116 O2    c    0.662470 *  0.039998 *  0.303451 *   0.87073    1.000000    
    117 O2    c    0.957747 *  0.624214 *  0.635862 *   0.87073    1.000000    
    118 O2    c    0.625484 *  0.672113 *  0.467004 *   0.87073    1.000000    
    119 O2    c    0.334328 *  0.950653 *  0.799171 *   0.87073    1.000000    
    120 O2    c    0.031649 *  0.373242 *  0.132496 *   0.87073    1.000000    
    121 O2    c    0.327687 *  0.371790 *  0.360600 *   0.87073    1.000000    
    122 O2    c    0.026801 *  0.663052 *  0.025313 *   0.87073    1.000000    
    123 O2    c    0.628695 *  0.955699 *  0.691997 *   0.87073    1.000000    
    124 O2    c    0.671806 *  0.624453 *  0.858622 *   0.87073    1.000000    
    125 O2    c    0.956125 *  0.329688 *  0.527505 *   0.87073    1.000000    
    126 O2    c    0.368716 *  0.040243 *  0.194837 *   0.87073    1.000000    
    127 O3    c    0.754894 *  0.285067 *  0.002227 *   1.33043    1.000000    
    128 O2    c    0.693943 *  0.462070 *  0.342846 *   0.87073    1.000000    
    129 O2    c    0.534924 *  0.227371 *  0.673637 *   0.87073    1.000000    
    130 O2    c    0.227654 *  0.694078 *  0.508620 *   0.87073    1.000000    
    131 O3    c    0.293233 *  0.521490 *  0.832784 *   1.33043    1.000000    
    132 O2    c    0.461500 *  0.770508 *  0.175114 *   0.87073    1.000000    
    133 O2    c    0.294356 *  0.764107 *  0.319275 *   0.87073    1.000000    
    134 O2    c    0.462793 *  0.704025 *  0.982252 *   0.87073    1.000000    
    135 O2    c    0.233054 *  0.530135 *  0.653620 *   0.87073    1.000000    
    136 O2    c    0.701124 *  0.226461 *  0.819418 *   0.87073    1.000000    
    137 O2    c    0.534527 *  0.308446 *  0.488292 *   0.87073    1.000000    
    138 O2    c    0.755890 *  0.465032 *  0.150913 *   0.87073    1.000000    
    139 O3    c    0.767701 *  0.546759 *  0.020015 *   1.33043    1.000000    
    140 O2    c    0.463821 *  0.247594 *  0.360985 *   0.87073    1.000000    
    141 O2    c    0.754015 *  0.215238 *  0.691879 *   0.87073    1.000000    
    142 O2    c    0.215420 *  0.462933 *  0.525816 *   0.87073    1.000000    
    143 O3    c    0.555161 *  0.764820 *  0.850128 *   1.33043    1.000000    
    144 O2    c    0.242002 *  0.781352 *  0.192395 *   0.87073    1.000000    
    145 O2    c    0.525687 *  0.780198 *  0.303764 *   0.87073    1.000000    
    146 O2    c    0.249375 *  0.472123 *  0.964691 *   0.87073    1.000000    
    147 O2    c    0.216337 *  0.745739 *  0.636560 *   0.87073    1.000000    
    148 O2    c    0.466978 *  0.209779 *  0.802371 *   0.87073    1.000000    
    149 O2    c    0.750721 *  0.538049 *  0.469232 *   0.87073    1.000000    
    150 O2    c    0.776433 *  0.253340 *  0.133739 *   0.87073    1.000000    
    151 O2    c    0.230521 *  0.330416 *  0.891623 *   0.87073    1.000000    
    152 O2    c    0.670300 *  0.902455 *  0.231120 *   0.87073    1.000000    
    153 O2    c    0.090830 *  0.765682 *  0.563188 *   0.87073    1.000000    
    154 O2    c    0.766496 *  0.677884 *  0.394476 *   0.87073    1.000000    
    155 O2    c    0.326433 *  0.089445 *  0.727536 *   0.87073    1.000000    
    156 O2    c    0.896968 *  0.233009 *  0.060527 *   0.87073    1.000000    
    157 O2    c    0.323726 *  0.234721 *  0.434292 *   0.87073    1.000000    
    158 O2    c    0.890922 *  0.667521 *  0.096526 *   0.87073    1.000000    
    159 O2    c    0.771206 *  0.088326 *  0.765119 *   0.87073    1.000000    
    160 O2    c    0.669213 *  0.769745 *  0.928334 *   0.87073    1.000000    
    161 O2    c    0.092878 *  0.321827 *  0.600090 *   0.87073    1.000000    
    162 O2    c    0.224844 *  0.905083 *  0.266412 *   0.87073    1.000000    
    163 O2    c    0.577024 *  0.564261 *  0.982871 *   0.87073    1.000000    
    164 O2    c    0.434734 *  0.023208 *  0.323144 *   0.87073    1.000000    
    165 O2    c    0.974929 *  0.412170 *  0.655753 *   0.87073    1.000000    
    166 O2    c    0.413697 *  0.444679 *  0.488192 *   0.87073    1.000000    
    167 O2    c    0.562523 *  0.969602 *  0.820436 *   0.87073    1.000000    
    168 O2    c    0.010199 *  0.577902 *  0.150921 *   0.87073    1.000000    
    169 O2    c    0.554038 *  0.584171 *  0.339478 *   0.87073    1.000000    
    170 O2    c    0.012072 *  0.438580 *  0.006261 *   0.87073    1.000000    
    171 O2    c    0.413415 *  0.967809 *  0.672690 *   0.87073    1.000000    
    172 O2    c    0.442835 *  0.416407 *  0.839842 *   0.87073    1.000000    
    173 O2    c    0.968752 *  0.557938 *  0.507900 *   0.87073    1.000000    
    174 O2    c    0.586936 *  0.030109 *  0.176810 *   0.87073    1.000000    
    175 O2    c    0.575523 *  0.163334 *  0.251158 *   0.87073    1.000000    
    176 O2    c    0.835146 *  0.416131 *  0.582282 *   0.87073    1.000000    
    177 O2    c    0.582771 *  0.424699 *  0.913311 *   0.87073    1.000000    
    178 O2    c    0.423526 *  0.832237 *  0.746388 *   0.87073    1.000000    
    179 O2    c    0.145216 *  0.576533 *  0.079913 *   0.87073    1.000000    
    180 O2    c    0.414710 *  0.582690 *  0.413573 *   0.87073    1.000000    
    181 F     c    0.445589 *  0.901526 *  0.247526 *   0.56000    1.000000    
    182 F     c    0.096082 *  0.544939 *  0.580537 *   0.56000    1.000000    
    183 F     c    0.439347 *  0.576187 *  0.902786 *   0.56000    1.000000    
    184 F     c    0.553619 *  0.098784 *  0.745535 *   0.56000    1.000000    
    185 F     c    0.850065 *  0.434358 *  0.070131 *   0.56000    1.000000    
    186 F     c    0.548468 *  0.454489 *  0.413286 *   0.56000    1.000000    
    187 O2    s    0.927919 *  0.006978 *  0.997082 *  -2.87073    1.000000    
    188 O3    s    0.006534 *  0.933516 *  0.332091 *  -3.33043    1.000000    
    189 O2    s    0.074518 *  0.072408 *  0.661439 *  -2.87073    1.000000    
    190 O2    s    0.076086 *  0.001827 *  0.496604 *  -2.87073    1.000000    
    191 O2    s    0.007618 *  0.073737 *  0.829403 *  -2.87073    1.000000    
    192 O2    s    0.923725 *  0.927449 *  0.160288 *  -2.87073    1.000000    
    193 O2    s    0.345827 *  0.581511 *  0.330102 *  -2.87073    1.000000    
    194 O2    s    0.416060 *  0.762903 *  0.663330 *  -2.87073    1.000000    
    195 O2    s    0.224075 *  0.646135 *  0.998582 *  -2.87073    1.000000    
    196 O2    s    0.648237 *  0.408432 *  0.830489 *  -2.87073    1.000000    
    197 O2    s    0.580102 *  0.232177 *  0.169271 *  -2.87073    1.000000    
    198 O2    s    0.765381 *  0.354690 *  0.499231 *  -2.87073    1.000000    
    199 O3    s    0.573556 *  0.352029 *  0.996652 *  -3.33043    1.000000    
    200 O2    s    0.767808 *  0.411999 *  0.665315 *  -2.87073    1.000000    
    201 O2    s    0.643768 *  0.229540 *  0.334410 *  -2.87073    1.000000    
    202 O2    s    0.411554 *  0.647144 *  0.497202 *  -2.87073    1.000000    
    203 O2    s    0.225762 *  0.586290 *  0.163409 *  -2.87073    1.000000    
    204 O3    s    0.355383 *  0.765012 *  0.828603 *  -3.33043    1.000000    
    205 O2    s    0.124021 *  0.222623 *  0.965173 *  -2.87073    1.000000    
    206 O3    s    0.770307 *  0.904171 *  0.304446 *  -3.33043    1.000000    
    207 O2    s    0.096145 *  0.875275 *  0.634435 *  -2.87073    1.000000    
    208 O2    s    0.877153 *  0.785201 *  0.466705 *  -2.87073    1.000000    
    209 O2    s    0.218025 *  0.084080 *  0.798781 *  -2.87073    1.000000    
    210 O2    s    0.895530 *  0.122080 *  0.133089 *  -2.87073    1.000000    
    211 O2    s    0.218551 *  0.121904 *  0.362776 *  -2.87073    1.000000    
    212 O2    s    0.903512 *  0.793255 *  0.027413 *  -2.87073    1.000000    
    213 O2    s    0.879017 *  0.092519 *  0.692493 *  -2.87073    1.000000    
    214 O2    s    0.800505 *  0.877880 *  0.859528 *  -2.87073    1.000000    
    215 O2    s    0.093963 *  0.215517 *  0.528248 *  -2.87073    1.000000    
    216 O2    s    0.117706 *  0.903504 *  0.192982 *  -2.87073    1.000000    
    217 O3    s    0.926763 *  0.864245 *  0.242730 *  -3.33043    1.000000    
    218 O2    s    0.141228 *  0.065154 *  0.579584 *  -2.87073    1.000000    
    219 O2    s    0.937244 *  0.070531 *  0.912743 *  -2.87073    1.000000    
    220 O2    s    0.068739 *  0.127186 *  0.744989 *  -2.87073    1.000000    
    221 O2    s    0.845836 *  0.933397 *  0.079006 *  -2.87073    1.000000    
    222 O2    s    0.070822 *  0.927371 *  0.414747 *  -2.87073    1.000000    
    223 O2    s    0.908711 *  0.204307 *  0.976668 *  -2.87073    1.000000    
    224 O3    s    0.787287 *  0.689444 *  0.312402 *  -3.33043    1.000000    
    225 O2    s    0.296915 *  0.088175 *  0.645556 *  -2.87073    1.000000    
    226 O2    s    0.088970 *  0.794018 *  0.481075 *  -2.87073    1.000000    
    227 O2    s    0.208994 *  0.285972 *  0.807978 *  -2.87073    1.000000    
    228 O2    s    0.699112 *  0.908171 *  0.148143 *  -2.87073    1.000000    
    229 O2    s    0.201638 *  0.905205 *  0.348904 *  -2.87073    1.000000    
    230 O2    s    0.701924 *  0.802537 *  0.011102 *  -2.87073    1.000000    
    231 O2    s    0.092825 *  0.292204 *  0.681963 *  -2.87073    1.000000    
    232 O2    s    0.800007 *  0.085858 *  0.847103 *  -2.87073    1.000000    
    233 O2    s    0.296802 *  0.208256 *  0.516141 *  -2.87073    1.000000    
    234 O2    s    0.901077 *  0.704232 *  0.179413 *  -2.87073    1.000000    
    235 O2    s    0.322155 *  0.653014 *  0.246821 *  -2.87073    1.000000    
    236 O2    s    0.343837 *  0.668287 *  0.580831 *  -2.87073    1.000000    
    237 O3    s    0.312800 *  0.677036 *  0.916710 *  -3.33043    1.000000    
    238 O2    s    0.672726 *  0.341009 *  0.747490 *  -2.87073    1.000000    
    239 O3    s    0.624936 *  0.309343 *  0.086225 *  -3.33043    1.000000    
    240 O2    s    0.671530 *  0.328664 *  0.416452 *  -2.87073    1.000000    
    241 O2    s    0.376184 *  0.349179 *  0.961193 *  -2.87073    1.000000    
    242 O2    s    0.652114 *  0.033390 *  0.301356 *  -2.87073    1.000000    
    243 O2    s    0.964436 *  0.620985 *  0.633674 *  -2.87073    1.000000    
    244 O2    s    0.622167 *  0.662046 *  0.464885 *  -2.87073    1.000000    
    245 O2    s    0.343905 *  0.957980 *  0.797144 *  -2.87073    1.000000    
    246 O2    s    0.025477 *  0.376540 *  0.130539 *  -2.87073    1.000000    
    247 O2    s    0.337842 *  0.375353 *  0.362891 *  -2.87073    1.000000    
    248 O2    s    0.021276 *  0.653894 *  0.027191 *  -2.87073    1.000000    
    249 O2    s    0.625493 *  0.962269 *  0.694377 *  -2.87073    1.000000    
    250 O2    s    0.662503 *  0.621375 *  0.860369 *  -2.87073    1.000000    
    251 O2    s    0.963055 *  0.339761 *  0.529862 *  -2.87073    1.000000    
    252 O2    s    0.371722 *  0.033369 *  0.197250 *  -2.87073    1.000000    
    253 O3    s    0.765296 *  0.292048 *  0.005419 *  -3.33043    1.000000    
    254 O2    s    0.686098 *  0.461442 *  0.345984 *  -2.87073    1.000000    
    255 O2    s    0.535561 *  0.220377 *  0.676905 *  -2.87073    1.000000    
    256 O2    s    0.220795 *  0.686567 *  0.511766 *  -2.87073    1.000000    
    257 O3    s    0.299936 *  0.517568 *  0.836116 *  -3.33043    1.000000    
    258 O2    s    0.460668 *  0.776854 *  0.178337 *  -2.87073    1.000000    
    259 O2    s    0.302347 *  0.771242 *  0.316355 *  -2.87073    1.000000    
    260 O2    s    0.462509 *  0.696958 *  0.979607 *  -2.87073    1.000000    
    261 O2    s    0.225752 *  0.530628 *  0.650584 *  -2.87073    1.000000    
    262 O2    s    0.693150 *  0.219489 *  0.816323 *  -2.87073    1.000000    
    263 O2    s    0.534834 *  0.315690 *  0.485196 *  -2.87073    1.000000    
    264 O2    s    0.762716 *  0.464771 *  0.148321 *  -2.87073    1.000000    
    265 O3    s    0.777507 *  0.548785 *  0.023138 *  -3.33043    1.000000    
    266 O2    s    0.466783 *  0.255865 *  0.363583 *  -2.87073    1.000000    
    267 O2    s    0.745675 *  0.209649 *  0.694454 *  -2.87073    1.000000    
    268 O2    s    0.210249 *  0.465836 *  0.528424 *  -2.87073    1.000000    
    269 O3    s    0.556598 *  0.757132 *  0.853556 *  -3.33043    1.000000    
    270 O2    s    0.250397 *  0.786565 *  0.194961 *  -2.87073    1.000000    
    271 O2    s    0.522692 *  0.785100 *  0.301186 *  -2.87073    1.000000    
    272 O2    s    0.255737 *  0.474105 *  0.962470 *  -2.87073    1.000000    
    273 O2    s    0.211064 *  0.738066 *  0.633961 *  -2.87073    1.000000    
    274 O2    s    0.470153 *  0.204835 *  0.799722 *  -2.87073    1.000000    
    275 O2    s    0.742680 *  0.535175 *  0.466759 *  -2.87073    1.000000    
    276 O2    s    0.780583 *  0.259235 *  0.131508 *  -2.87073    1.000000    
    277 O2    s    0.239026 *  0.338392 *  0.892646 *  -2.87073    1.000000    
    278 O2    s    0.660766 *  0.902852 *  0.231750 *  -2.87073    1.000000    
    279 O2    s    0.091112 *  0.756239 *  0.564004 *  -2.87073    1.000000    
    280 O2    s    0.757207 *  0.668034 *  0.395461 *  -2.87073    1.000000    
    281 O2    s    0.336121 *  0.089168 *  0.728376 *  -2.87073    1.000000    
    282 O2    s    0.896487 *  0.240743 *  0.061519 *  -2.87073    1.000000    
    283 O2    s    0.333333 *  0.243927 *  0.433387 *  -2.87073    1.000000    
    284 O2    s    0.890897 *  0.659199 *  0.096221 *  -2.87073    1.000000    
    285 O2    s    0.761819 *  0.088648 *  0.764180 *  -2.87073    1.000000    
    286 O2    s    0.661400 *  0.761288 *  0.927930 *  -2.87073    1.000000    
    287 O2    s    0.093121 *  0.331416 *  0.599172 *  -2.87073    1.000000    
    288 O2    s    0.234217 *  0.904801 *  0.265500 *  -2.87073    1.000000    
    289 O2    s    0.574349 *  0.564862 *  0.980089 *  -2.87073    1.000000    
    290 O2    s    0.434656 *  0.018738 *  0.319770 *  -2.87073    1.000000    
    291 O2    s    0.979448 *  0.416480 *  0.652425 *  -2.87073    1.000000    
    292 O2    s    0.418010 *  0.444139 *  0.484921 *  -2.87073    1.000000    
    293 O2    s    0.563513 *  0.974293 *  0.817174 *  -2.87073    1.000000    
    294 O2    s    0.007105 *  0.574798 *  0.148044 *  -2.87073    1.000000    
    295 O2    s    0.554282 *  0.579410 *  0.342930 *  -2.87073    1.000000    
    296 O2    s    0.008752 *  0.438909 *  0.009133 *  -2.87073    1.000000    
    297 O2    s    0.418348 *  0.972923 *  0.676024 *  -2.87073    1.000000    
    298 O2    s    0.443262 *  0.420037 *  0.842500 *  -2.87073    1.000000    
    299 O2    s    0.974175 *  0.558340 *  0.511328 *  -2.87073    1.000000    
    300 O2    s    0.581548 *  0.024462 *  0.180024 *  -2.87073    1.000000    
    301 O2    s    0.570255 *  0.152031 *  0.251102 *  -2.87073    1.000000    
    302 O2    s    0.846213 *  0.421693 *  0.582267 *  -2.87073    1.000000    
    303 O2    s    0.577780 *  0.428923 *  0.913085 *  -2.87073    1.000000    
    304 O2    s    0.428409 *  0.842470 *  0.746153 *  -2.87073    1.000000    
    305 O2    s    0.135999 *  0.571740 *  0.080098 *  -2.87073    1.000000    
    306 O2    s    0.420169 *  0.577182 *  0.413592 *  -2.87073    1.000000    
    307 F     s    0.445361 *  0.901246 *  0.247382 *  -1.56000    1.000000    
    308 F     s    0.096381 *  0.545010 *  0.580400 *  -1.56000    1.000000    
    309 F     s    0.435435 *  0.583036 *  0.900108 *  -1.56000    1.000000    
    310 F     s    0.554178 *  0.099963 *  0.745392 *  -1.56000    1.000000    
    311 F     s    0.839909 *  0.430422 *  0.067801 *  -1.56000    1.000000    
    312 F     s    0.548823 *  0.454482 *  0.413090 *  -1.56000    1.000000    
--------------------------------------------------------------------------------



********************************************************************************
*  General input information                                                   *
********************************************************************************

  Species output for all configurations : 

--------------------------------------------------------------------------------
  Species    Type    Atomic    Atomic    Charge       Radii (Angs)     Library
                     Number     Mass       (e)     Cova   Ionic  VDW   Symbol
--------------------------------------------------------------------------------
    Si       Core       14      28.09   4.000000   1.200  0.000  2.100          
    O1       Core        8      16.00   1.733957   0.730  0.000  1.360          
    O1       Shell       8       0.00  -3.733957   0.730  0.000  1.360          
    O2       Core        8      16.00   0.870733   0.730  0.000  1.360          
    O2       Shell       8       0.00  -2.870733   0.730  0.000  1.360          
    O3       Core        8      16.00   1.330431   0.730  0.000  1.360          
    O3       Shell       8       0.00  -3.330431   0.730  0.000  1.360          
    F        Core        9      19.00   0.560000   0.710  0.000  1.300          
    F        Shell       9       0.00  -1.560000   0.710  0.000  1.300          
    Ge       Core       32      72.61   4.000000   1.170  0.000  1.750          
--------------------------------------------------------------------------------


  Lattice summation method               =    Ewald          (3-D)
                                         =    Parry          (2-D)
                                         =    Saunders et al (1-D)
  Accuracy factor for lattice sums       =   12.000


  Time limit = Infinity

  Maximum range for interatomic potentials =        16.000000 Angstroms

  Taper potentials to zero over   1.0000 Angstroms using polynomial

  General interatomic potentials :

--------------------------------------------------------------------------------
Atom  Types   Potential         A         B         C         D     Cutoffs(Ang)
  1     2                                                            Min    Max 
--------------------------------------------------------------------------------
Si   c O1   s Buckingham    0.132E+04 0.318      10.1      0.00     0.000 16.000
Si   c O2   s Buckingham    0.132E+04 0.318      10.1      0.00     0.000 16.000
Si   c O3   s Buckingham    0.132E+04 0.318      10.1      0.00     0.000 16.000
Ge   c O1   s Buckingham    0.150E+04 0.326      16.8      0.00     0.000 16.000
Ge   c O2   s Buckingham    0.150E+04 0.326      16.8      0.00     0.000 16.000
Ge   c O3   s Buckingham    0.150E+04 0.326      16.8      0.00     0.000 16.000
O1   s O1   s Buckingham    0.228E+05 0.149      10.9      0.00     0.000 16.000
O1   s O2   s Buckingham    0.228E+05 0.149      10.9      0.00     0.000 16.000
O1   s O3   s Buckingham    0.228E+05 0.149      10.9      0.00     0.000 16.000
O2   s O2   s Buckingham    0.228E+05 0.149      10.9      0.00     0.000 16.000
O2   s O3   s Buckingham    0.228E+05 0.149      10.9      0.00     0.000 16.000
O3   s O3   s Buckingham    0.228E+05 0.149      10.9      0.00     0.000 16.000
Si   c F    s Buckingham     977.     0.282      0.00      0.00     0.000 16.000
Ge   c F    s Buckingham     681.     0.320      0.00      0.00     0.000 16.000
F    s F    s Buckingham     540.     0.262      0.00      0.00     0.000 16.000
O1   s F    s Buckingham    0.168E+04 0.268      0.00      0.00     0.000 16.000
O2   s F    s Buckingham    0.168E+04 0.268      0.00      0.00     0.000 16.000
O3   s F    s Buckingham    0.168E+04 0.268      0.00      0.00     0.000 16.000
O2   c O2   s Spring (c-s)   76.0      0.00      0.00      0.00     0.000  0.800
O3   c O3   s Spring (c-s)   128.      0.00      0.00      0.00     0.000  0.800
O1   c O1   s Spring (c-s)   180.      0.00      0.00      0.00     0.000  0.800
F    c F    s Spring (c-s)   33.5      0.00      0.00      0.00     0.000  0.800
--------------------------------------------------------------------------------

  General Three-body potentials :

  Harmonic form:

--------------------------------------------------------------------------------
Atom    Atom    Atom           Force Constants            Theta     Cutoffs  
  1       2       3     (eVrad**-2/eVrad**-3/eVrad**-4)   (deg)  1-2  1-3  2-3
--------------------------------------------------------------------------------
Si    c O1    s O1    s  1.261        0.0000    0.0000   109.470 0.00 0.00 0.00
                                                                 1.90 1.90 3.50
Si    c O1    s O2    s  1.261        0.0000    0.0000   109.470 0.00 0.00 0.00
                                                                 1.90 1.90 3.50
Si    c O2    s O2    s  1.261        0.0000    0.0000   109.470 0.00 0.00 0.00
                                                                 1.90 1.90 3.50
--------------------------------------------------------------------------------

********************************************************************************
*  Output for configuration   1                                                *
********************************************************************************


  Components of energy : 

--------------------------------------------------------------------------------
  Interatomic potentials     =        2063.17491916 eV
  Three-body potentials      =           0.46245638 eV
  Monopole - monopole (real) =       -6614.61684215 eV
  Monopole - monopole (recip)=       -3169.47311218 eV
  Monopole - monopole (total)=       -9784.08995433 eV
  Neutralising energy        =          -6.45621700 eV
--------------------------------------------------------------------------------
  Total lattice energy       =       -7726.90879578 eV
--------------------------------------------------------------------------------
  Total lattice energy       =         -745528.5822 kJ/(mole unit cells)
--------------------------------------------------------------------------------


  Number of variables =      939

  Maximum number of calculations  =          1000
  Maximum Hessian update interval =            10
  Maximum step size               =   1.000000000
  Maximum parameter tolerance     =   0.000010000
  Maximum function  tolerance     =   0.000010000
  Maximum gradient  tolerance     =   0.001000000
  Maximum gradient  component     =   0.010000000

  Symmetry not applied to optimisation

  Cell parameters to be optimised using strains

  Newton-Raphson optimiser to be used

  BFGS hessian update to be used

  Dumpfile to be written after every cycle

  Start of bulk optimisation :

  Cycle:      0 Energy:     -7726.908796  Gnorm:      0.009360  CPU:    1.062
  ** Hessian calculated **
  Cycle:      1 Energy:     -7726.908977  Gnorm:      0.002014  CPU:    2.634
  Cycle:      2 Energy:     -7726.909015  Gnorm:      0.001912  CPU:    4.011
  Cycle:      3 Energy:     -7726.909164  Gnorm:      0.005350  CPU:    6.048
  Cycle:      4 Energy:     -7726.909621  Gnorm:      0.005900  CPU:    8.086
  Cycle:      5 Energy:     -7726.910566  Gnorm:      0.005391  CPU:   10.458
  Cycle:      6 Energy:     -7726.911736  Gnorm:      0.005660  CPU:   12.496
  Cycle:      7 Energy:     -7726.913240  Gnorm:      0.006274  CPU:   14.533
  Cycle:      8 Energy:     -7726.915140  Gnorm:      0.006817  CPU:   16.570
  Cycle:      9 Energy:     -7726.917336  Gnorm:      0.008457  CPU:   18.607
  Cycle:     10 Energy:     -7726.919334  Gnorm:      0.009385  CPU:   20.315
  ** Hessian calculated **
  Cycle:     11 Energy:     -7726.920226  Gnorm:      0.008591  CPU:   22.543
  Cycle:     12 Energy:     -7726.922876  Gnorm:      0.012432  CPU:   24.250
  Cycle:     13 Energy:     -7726.923850  Gnorm:      0.007179  CPU:   25.627
  Cycle:     14 Energy:     -7726.924252  Gnorm:      0.004219  CPU:   27.004
  Cycle:     15 Energy:     -7726.924487  Gnorm:      0.005602  CPU:   28.382
  Cycle:     16 Energy:     -7726.924992  Gnorm:      0.005717  CPU:   30.089
  Cycle:     17 Energy:     -7726.925270  Gnorm:      0.004013  CPU:   31.466
  Cycle:     18 Energy:     -7726.925504  Gnorm:      0.004973  CPU:   32.844
  Cycle:     19 Energy:     -7726.925834  Gnorm:      0.005030  CPU:   34.221
  Cycle:     20 Energy:     -7726.926161  Gnorm:      0.004415  CPU:   35.802
  ** Hessian calculated **
  Cycle:     21 Energy:     -7726.928142  Gnorm:      0.004364  CPU:   39.349
  Cycle:     22 Energy:     -7726.931246  Gnorm:      0.004283  CPU:   41.807
  Cycle:     23 Energy:     -7726.935879  Gnorm:      0.004159  CPU:   44.174
  Cycle:     24 Energy:     -7726.941511  Gnorm:      0.004003  CPU:   46.211
  Cycle:     25 Energy:     -7726.950618  Gnorm:      0.003734  CPU:   48.578
  Cycle:     26 Energy:     -7726.961487  Gnorm:      0.003385  CPU:   50.615
  Cycle:     27 Energy:     -7726.977790  Gnorm:      0.002784  CPU:   52.982
  Cycle:     28 Energy:     -7726.994255  Gnorm:      0.002056  CPU:   55.020
  Cycle:     29 Energy:     -7727.008395  Gnorm:      0.001371  CPU:   57.057
  Cycle:     30 Energy:     -7727.011793  Gnorm:      0.000687  CPU:   58.435
  ** Hessian calculated **
  Cycle:     31 Energy:     -7727.011797  Gnorm:      0.000414  CPU:   60.848
  Cycle:     32 Energy:     -7727.011799  Gnorm:      0.000213  CPU:   62.225
  Cycle:     33 Energy:     -7727.011799  Gnorm:      0.000221  CPU:   63.603
  Cycle:     34 Energy:     -7727.011800  Gnorm:      0.000198  CPU:   65.125
  Cycle:     35 Energy:     -7727.011800  Gnorm:      0.000157  CPU:   66.503
  Cycle:     36 Energy:     -7727.011800  Gnorm:      0.000145  CPU:   67.881
  Cycle:     37 Energy:     -7727.011801  Gnorm:      0.000129  CPU:   69.259
  Cycle:     38 Energy:     -7727.011801  Gnorm:      0.000130  CPU:   70.637
  Cycle:     39 Energy:     -7727.011801  Gnorm:      0.000102  CPU:   72.015
  Cycle:     40 Energy:     -7727.011801  Gnorm:      0.000109  CPU:   73.393
  ** Hessian calculated **
  Cycle:     41 Energy:     -7727.011801  Gnorm:      0.000106  CPU:   75.622
  Cycle:     42 Energy:     -7727.011801  Gnorm:      0.000102  CPU:   77.000
  Cycle:     43 Energy:     -7727.011802  Gnorm:      0.000096  CPU:   78.378
  Cycle:     44 Energy:     -7727.011802  Gnorm:      0.000086  CPU:   79.756
  Cycle:     45 Energy:     -7727.011803  Gnorm:      0.000072  CPU:   81.134
  Cycle:     46 Energy:     -7727.011803  Gnorm:      0.000051  CPU:   82.674


  **** Optimisation achieved ****


  Final energy =   -7727.01180359 eV
  Final Gnorm  =       0.00001934

  Components of energy : 

--------------------------------------------------------------------------------
  Interatomic potentials     =        2063.59909470 eV
  Three-body potentials      =           0.45894682 eV
  Monopole - monopole (real) =       -6615.82024855 eV
  Monopole - monopole (recip)=       -3168.79475771 eV
  Monopole - monopole (total)=       -9784.61500625 eV
  Neutralising energy        =          -6.45483886 eV
--------------------------------------------------------------------------------
  Total lattice energy       =       -7727.01180359 eV
--------------------------------------------------------------------------------
  Total lattice energy       =         -745538.5209 kJ/(mole unit cells)
--------------------------------------------------------------------------------

  Final fractional coordinates of atoms :

--------------------------------------------------------------------------------
   No.  Atomic        x           y          z          Radius
        Label       (Frac)      (Frac)     (Frac)       (Angs) 
--------------------------------------------------------------------------------
     1  Ge    c     0.699600    0.375700    0.033890    0.000000
     2  Si    c     0.594934    0.301414    0.365893    0.000000
     3  Si    c     0.660050    0.277154    0.696670    0.000000
     4  Si    c     0.276100    0.600065    0.530827    0.000000
     5  Ge    c     0.372165    0.651205    0.865428    0.000000
     6  Si    c     0.296182    0.683466    0.197848    0.000000
     7  Si    c     0.346392    0.677666    0.298790    0.000000
     8  Si    c     0.301504    0.613963    0.963444    0.000000
     9  Si    c     0.281539    0.655793    0.631603    0.000000
    10  Si    c     0.607860    0.278267    0.796934    0.000000
    11  Si    c     0.655490    0.361631    0.465898    0.000000
    12  Si    c     0.662909    0.300627    0.131671    0.000000
    13  Si    c     0.521819    0.408551    0.963938    0.000000
    14  Si    c     0.551376    0.091054    0.300884    0.000000
    15  Si    c     0.870115    0.450419    0.632818    0.000000
    16  Si    c     0.446611    0.563641    0.465123    0.000000
    17  Si    c     0.405658    0.863830    0.798674    0.000000
    18  Si    c     0.084313    0.510766    0.132619    0.000000
    19  Si    c     0.389269    0.507440    0.363567    0.000000
    20  Si    c     0.090072    0.569225    0.029616    0.000000
    21  Si    c     0.456043    0.867530    0.696012    0.000000
    22  Si    c     0.572335    0.456405    0.860271    0.000000
    23  Si    c     0.867903    0.399103    0.531066    0.000000
    24  Si    c     0.501408    0.091509    0.199046    0.000000
    25  Si    c     0.284162    0.380905    0.842984    0.000000
    26  Si    c     0.574415    0.883633    0.184316    0.000000
    27  Si    c     0.074480    0.677596    0.516701    0.000000
    28  Si    c     0.668129    0.575702    0.348788    0.000000
    29  Si    c     0.383823    0.076316    0.681218    0.000000
    30  Si    c     0.880756    0.283976    0.011374    0.000000
    31  Si    c     0.376559    0.284133    0.480695    0.000000
    32  Si    c     0.870044    0.582854    0.144805    0.000000
    33  Si    c     0.686768    0.078183    0.811301    0.000000
    34  Si    c     0.586920    0.693083    0.974376    0.000000
    35  Si    c     0.080941    0.378666    0.646543    0.000000
    36  Si    c     0.270967    0.880159    0.312652    0.000000
    37  Si    c     0.239169    0.332337    0.946123    0.000000
    38  Si    c     0.626187    0.888250    0.285716    0.000000
    39  Si    c     0.070822    0.727891    0.617393    0.000000
    40  Si    c     0.725579    0.641519    0.448868    0.000000
    41  Si    c     0.329214    0.067055    0.781691    0.000000
    42  Si    c     0.880413    0.232352    0.114755    0.000000
    43  Si    c     0.315441    0.231357    0.380053    0.000000
    44  Si    c     0.889910    0.655807    0.042713    0.000000
    45  Si    c     0.734169    0.070324    0.710555    0.000000
    46  Si    c     0.654522    0.740671    0.872093    0.000000
    47  Si    c     0.069305    0.320718    0.545696    0.000000
    48  Si    c     0.222569    0.890110    0.211571    0.000000
    49  Si    c     0.963984    0.113102    0.962655    0.000000
    50  Ge    c     0.848320    0.826334    0.298367    0.000000
    51  Si    c     0.133463    0.007266    0.630785    0.000000
    52  Si    c     0.005812    0.858310    0.465488    0.000000
    53  Si    c     0.110695    0.126440    0.795336    0.000000
    54  Si    c     0.819362    0.954428    0.130542    0.000000
    55  Si    c     0.097965    0.952395    0.364755    0.000000
    56  Si    c     0.833428    0.875124    0.028746    0.000000
    57  Si    c     0.012484    0.128934    0.695367    0.000000
    58  Si    c     0.873483    0.014607    0.861888    0.000000
    59  Si    c     0.129350    0.101672    0.530251    0.000000
    60  Si    c     0.944065    0.832383    0.194756    0.000000
    61  O2    c     0.920806    0.998637    0.998547    0.000000
    62  O3    c     0.979175    0.918073    0.332150    0.000000
    63  O2    c     0.053663    0.051217    0.661924    0.000000
    64  O2    c     0.048569    0.981843    0.496929    0.000000
    65  O2    c     0.995816    0.058181    0.830564    0.000000
    66  O2    c     0.904932    0.911988    0.160226    0.000000
    67  O2    c     0.309475    0.554695    0.331102    0.000000
    68  O2    c     0.406066    0.741553    0.663728    0.000000
    69  O2    c     0.220625    0.644096    0.000875    0.000000
    70  O2    c     0.645615    0.401467    0.829510    0.000000
    71  O2    c     0.551624    0.219068    0.168188    0.000000
    72  O2    c     0.740704    0.323727    0.498822    0.000000
    73  O3    c     0.565930    0.335502    0.997044    0.000000
    74  O2    c     0.745066    0.401525    0.664694    0.000000
    75  O2    c     0.630404    0.214102    0.333679    0.000000
    76  O2    c     0.397926    0.639290    0.497568    0.000000
    77  O2    c     0.209411    0.559686    0.165283    0.000000
    78  O3    c     0.329709    0.744757    0.830279    0.000000
    79  O2    c     0.117681    0.205381    0.967512    0.000000
    80  O3    c     0.749736    0.890346    0.307622    0.000000
    81  O2    c     0.071134    0.853985    0.637233    0.000000
    82  O2    c     0.851131    0.768058    0.469061    0.000000
    83  O2    c     0.200302    0.062197    0.801443    0.000000
    84  O2    c     0.879977    0.107785    0.136382    0.000000
    85  O2    c     0.190319    0.105440    0.360149    0.000000
    86  O2    c     0.907328    0.793699    0.027682    0.000000
    87  O2    c     0.858798    0.068834    0.689803    0.000000
    88  O2    c     0.791677    0.860839    0.856649    0.000000
    89  O2    c     0.066618    0.193421    0.525651    0.000000
    90  O2    c     0.097944    0.891665    0.189950    0.000000
    91  O3    c     0.904576    0.850404    0.243877    0.000000
    92  O2    c     0.117593    0.043990    0.579842    0.000000
    93  O2    c     0.923577    0.053604    0.913124    0.000000
    94  O2    c     0.050156    0.107657    0.745512    0.000000
    95  O2    c     0.825404    0.920410    0.078888    0.000000
    96  O2    c     0.046422    0.909509    0.415006    0.000000
    97  O2    c     0.895158    0.195857    0.973375    0.000000
    98  O3    c     0.763618    0.664763    0.309312    0.000000
    99  O2    c     0.285325    0.076967    0.642629    0.000000
   100  O2    c     0.074714    0.776133    0.478532    0.000000
   101  O2    c     0.195270    0.277575    0.804971    0.000000
   102  O2    c     0.670421    0.882898    0.145868    0.000000
   103  O2    c     0.174413    0.878116    0.351061    0.000000
   104  O2    c     0.685841    0.790960    0.012333    0.000000
   105  O2    c     0.083235    0.281110    0.684614    0.000000
   106  O2    c     0.787442    0.080102    0.849560    0.000000
   107  O2    c     0.281040    0.185559    0.518683    0.000000
   108  O2    c     0.872831    0.680073    0.183416    0.000000
   109  O2    c     0.293637    0.622996    0.247707    0.000000
   110  O2    c     0.336174    0.656243    0.580984    0.000000
   111  O3    c     0.292743    0.668247    0.915407    0.000000
   112  O2    c     0.661826    0.336515    0.746628    0.000000
   113  O3    c     0.602236    0.296989    0.083242    0.000000
   114  O2    c     0.654032    0.302180    0.416026    0.000000
   115  O2    c     0.364705    0.327641    0.963208    0.000000
   116  O2    c     0.637180    0.021094    0.302860    0.000000
   117  O2    c     0.939166    0.606174    0.635596    0.000000
   118  O2    c     0.602983    0.650996    0.467057    0.000000
   119  O2    c     0.320311    0.936238    0.799326    0.000000
   120  O2    c     0.011737    0.355418    0.133370    0.000000
   121  O2    c     0.303029    0.351896    0.360809    0.000000
   122  O2    c     0.021292    0.656518    0.027297    0.000000
   123  O2    c     0.612180    0.938586    0.691919    0.000000
   124  O2    c     0.658763    0.611626    0.857596    0.000000
   125  O2    c     0.936380    0.311435    0.527218    0.000000
   126  O2    c     0.345324    0.021496    0.193749    0.000000
   127  O3    c     0.749254    0.280837    0.001794    0.000000
   128  O2    c     0.668820    0.442064    0.342374    0.000000
   129  O2    c     0.517464    0.209421    0.672901    0.000000
   130  O2    c     0.207363    0.675601    0.508443    0.000000
   131  O3    c     0.278091    0.506946    0.833066    0.000000
   132  O2    c     0.438732    0.751895    0.175351    0.000000
   133  O2    c     0.269765    0.745545    0.319650    0.000000
   134  O2    c     0.451526    0.690377    0.982151    0.000000
   135  O2    c     0.214753    0.512578    0.653609    0.000000
   136  O2    c     0.686488    0.212170    0.818912    0.000000
   137  O2    c     0.512686    0.287579    0.488005    0.000000
   138  O2    c     0.737269    0.448922    0.151057    0.000000
   139  O3    c     0.764857    0.544161    0.019938    0.000000
   140  O2    c     0.439071    0.227396    0.360729    0.000000
   141  O2    c     0.736952    0.197808    0.691174    0.000000
   142  O2    c     0.195346    0.444493    0.525745    0.000000
   143  O3    c     0.539943    0.749828    0.849284    0.000000
   144  O2    c     0.218972    0.762513    0.192156    0.000000
   145  O2    c     0.501341    0.761935    0.304610    0.000000
   146  O2    c     0.238515    0.457703    0.965305    0.000000
   147  O2    c     0.197756    0.727945    0.636566    0.000000
   148  O2    c     0.452191    0.194990    0.802039    0.000000
   149  O2    c     0.728378    0.517286    0.468655    0.000000
   150  O2    c     0.756503    0.237086    0.132669    0.000000
   151  O2    c     0.220024    0.316921    0.891825    0.000000
   152  O2    c     0.645841    0.882921    0.231300    0.000000
   153  O2    c     0.071213    0.747399    0.563040    0.000000
   154  O2    c     0.742442    0.657478    0.394173    0.000000
   155  O2    c     0.310694    0.073492    0.727389    0.000000
   156  O2    c     0.882920    0.220126    0.060418    0.000000
   157  O2    c     0.300624    0.214461    0.434335    0.000000
   158  O2    c     0.878138    0.655596    0.097912    0.000000
   159  O2    c     0.755519    0.072650    0.764914    0.000000
   160  O2    c     0.655664    0.757224    0.927243    0.000000
   161  O2    c     0.074046    0.304120    0.599969    0.000000
   162  O2    c     0.200995    0.886369    0.265834    0.000000
   163  O2    c     0.567529    0.552516    0.981971    0.000000
   164  O2    c     0.409671    0.004467    0.322435    0.000000
   165  O2    c     0.956842    0.394664    0.655449    0.000000
   166  O2    c     0.391949    0.423794    0.488544    0.000000
   167  O2    c     0.548480    0.955667    0.820716    0.000000
   168  O2    c     0.990836    0.559702    0.152285    0.000000
   169  O2    c     0.528903    0.563994    0.339580    0.000000
   170  O2    c     0.002609    0.429401    0.007107    0.000000
   171  O2    c     0.396422    0.950231    0.672816    0.000000
   172  O2    c     0.429968    0.404258    0.838921    0.000000
   173  O2    c     0.948531    0.539454    0.507538    0.000000
   174  O2    c     0.563403    0.011322    0.176447    0.000000
   175  O2    c     0.550218    0.144273    0.250137    0.000000
   176  O2    c     0.816216    0.398237    0.581815    0.000000
   177  O2    c     0.570458    0.411968    0.912295    0.000000
   178  O2    c     0.408987    0.816649    0.746910    0.000000
   179  O2    c     0.130842    0.561492    0.081749    0.000000
   180  O2    c     0.391002    0.561690    0.414165    0.000000
   181  F     c     0.420358    0.881082    0.247227    0.000000
   182  F     c     0.077386    0.527564    0.580201    0.000000
   183  F     c     0.426501    0.562365    0.902626    0.000000
   184  F     c     0.538208    0.083018    0.745158    0.000000
   185  F     c     0.842982    0.427213    0.071030    0.000000
   186  F     c     0.524735    0.433369    0.413098    0.000000
   187  O2    s     0.915734    0.997455    0.997961    0.000000
   188  O3    s     0.980523    0.913699    0.332708    0.000000
   189  O2    s     0.058049    0.054986    0.662164    0.000000
   190  O2    s     0.052706    0.981301    0.497105    0.000000
   191  O2    s     0.994814    0.060976    0.830157    0.000000
   192  O2    s     0.899602    0.908060    0.160661    0.000000
   193  O2    s     0.321325    0.562656    0.331018    0.000000
   194  O2    s     0.398189    0.745368    0.663641    0.000000
   195  O2    s     0.214716    0.633027    0.000206    0.000000
   196  O2    s     0.634166    0.394759    0.829422    0.000000
   197  O2    s     0.558022    0.214264    0.167582    0.000000
   198  O2    s     0.744790    0.335422    0.498657    0.000000
   199  O3    s     0.570300    0.346451    0.995928    0.000000
   200  O2    s     0.749544    0.394067    0.664601    0.000000
   201  O2    s     0.618497    0.210143    0.333545    0.000000
   202  O2    s     0.390677    0.627459    0.497567    0.000000
   203  O2    s     0.204811    0.566848    0.165076    0.000000
   204  O3    s     0.341037    0.751125    0.829330    0.000000
   205  O2    s     0.113604    0.208461    0.964824    0.000000
   206  O3    s     0.745268    0.884834    0.304639    0.000000
   207  O2    s     0.077678    0.857120    0.634526    0.000000
   208  O2    s     0.854473    0.764516    0.466622    0.000000
   209  O2    s     0.203721    0.069671    0.798788    0.000000
   210  O2    s     0.873666    0.104708    0.133534    0.000000
   211  O2    s     0.193735    0.102438    0.362734    0.000000
   212  O2    s     0.897614    0.788155    0.029348    0.000000
   213  O2    s     0.862474    0.075446    0.692506    0.000000
   214  O2    s     0.786359    0.864958    0.858785    0.000000
   215  O2    s     0.073570    0.196720    0.528165    0.000000
   216  O2    s     0.094674    0.885237    0.192685    0.000000
   217  O3    s     0.904054    0.846344    0.243185    0.000000
   218  O2    s     0.120724    0.046484    0.579878    0.000000
   219  O2    s     0.922693    0.056158    0.913159    0.000000
   220  O2    s     0.052744    0.112191    0.745477    0.000000
   221  O2    s     0.825639    0.919248    0.079205    0.000000
   222  O2    s     0.047679    0.908573    0.415027    0.000000
   223  O2    s     0.901130    0.196265    0.976263    0.000000
   224  O3    s     0.761671    0.669794    0.312116    0.000000
   225  O2    s     0.279010    0.069431    0.645254    0.000000
   226  O2    s     0.067283    0.774927    0.481020    0.000000
   227  O2    s     0.195474    0.271966    0.807963    0.000000
   228  O2    s     0.676375    0.890537    0.148182    0.000000
   229  O2    s     0.176459    0.886122    0.348471    0.000000
   230  O2    s     0.691680    0.789992    0.010183    0.000000
   231  O2    s     0.075607    0.275113    0.681868    0.000000
   232  O2    s     0.786524    0.072910    0.847033    0.000000
   233  O2    s     0.274979    0.186940    0.515970    0.000000
   234  O2    s     0.879865    0.685714    0.180610    0.000000
   235  O2    s     0.299241    0.634741    0.247749    0.000000
   236  O2    s     0.324493    0.650433    0.580962    0.000000
   237  O3    s     0.298581    0.661413    0.917411    0.000000
   238  O2    s     0.656136    0.324562    0.746682    0.000000
   239  O3    s     0.614820    0.302413    0.085149    0.000000
   240  O2    s     0.648081    0.308136    0.415898    0.000000
   241  O2    s     0.366700    0.336307    0.961394    0.000000
   242  O2    s     0.626861    0.014425    0.300804    0.000000
   243  O2    s     0.945912    0.603006    0.633392    0.000000
   244  O2    s     0.599731    0.641029    0.464939    0.000000
   245  O2    s     0.329823    0.943544    0.797288    0.000000
   246  O2    s     0.005722    0.358877    0.131366    0.000000
   247  O2    s     0.313216    0.355420    0.363099    0.000000
   248  O2    s     0.015325    0.647358    0.029086    0.000000
   249  O2    s     0.608939    0.945102    0.694294    0.000000
   250  O2    s     0.649411    0.608506    0.859331    0.000000
   251  O2    s     0.943204    0.321423    0.529545    0.000000
   252  O2    s     0.348489    0.014876    0.196173    0.000000
   253  O3    s     0.760084    0.287457    0.005007    0.000000
   254  O2    s     0.661038    0.441459    0.345541    0.000000
   255  O2    s     0.518063    0.202439    0.676221    0.000000
   256  O2    s     0.200444    0.668069    0.511633    0.000000
   257  O3    s     0.284996    0.503066    0.836337    0.000000
   258  O2    s     0.438064    0.758434    0.178610    0.000000
   259  O2    s     0.277793    0.752635    0.316715    0.000000
   260  O2    s     0.451171    0.683319    0.979518    0.000000
   261  O2    s     0.207546    0.513168    0.650585    0.000000
   262  O2    s     0.678499    0.205151    0.815854    0.000000
   263  O2    s     0.512990    0.294859    0.484920    0.000000
   264  O2    s     0.744247    0.448941    0.148505    0.000000
   265  O3    s     0.774266    0.545420    0.023249    0.000000
   266  O2    s     0.442029    0.235685    0.363332    0.000000
   267  O2    s     0.728615    0.192189    0.693800    0.000000
   268  O2    s     0.190071    0.447280    0.528379    0.000000
   269  O3    s     0.541782    0.742439    0.852743    0.000000
   270  O2    s     0.227433    0.767932    0.194784    0.000000
   271  O2    s     0.498307    0.766700    0.301964    0.000000
   272  O2    s     0.244867    0.459771    0.963073    0.000000
   273  O2    s     0.192585    0.720296    0.633984    0.000000
   274  O2    s     0.455369    0.190077    0.799388    0.000000
   275  O2    s     0.720349    0.514471    0.466233    0.000000
   276  O2    s     0.760883    0.243034    0.130583    0.000000
   277  O2    s     0.228356    0.324884    0.892801    0.000000
   278  O2    s     0.636397    0.883467    0.231891    0.000000
   279  O2    s     0.071511    0.737952    0.563880    0.000000
   280  O2    s     0.733258    0.647698    0.395200    0.000000
   281  O2    s     0.320347    0.073158    0.728204    0.000000
   282  O2    s     0.882435    0.227739    0.061421    0.000000
   283  O2    s     0.310205    0.223625    0.433389    0.000000
   284  O2    s     0.878400    0.647681    0.097477    0.000000
   285  O2    s     0.746140    0.072989    0.763991    0.000000
   286  O2    s     0.648021    0.748630    0.926900    0.000000
   287  O2    s     0.074258    0.313656    0.599035    0.000000
   288  O2    s     0.210409    0.886095    0.264971    0.000000
   289  O2    s     0.564789    0.553274    0.979245    0.000000
   290  O2    s     0.409594    0.999965    0.319086    0.000000
   291  O2    s     0.961388    0.398952    0.652111    0.000000
   292  O2    s     0.396179    0.423274    0.485235    0.000000
   293  O2    s     0.549438    0.960275    0.817432    0.000000
   294  O2    s     0.987792    0.556819    0.149376    0.000000
   295  O2    s     0.529231    0.559249    0.343031    0.000000
   296  O2    s     0.999499    0.429692    0.009961    0.000000
   297  O2    s     0.401402    0.955366    0.676116    0.000000
   298  O2    s     0.430294    0.407640    0.841640    0.000000
   299  O2    s     0.953852    0.539714    0.510967    0.000000
   300  O2    s     0.558030    0.005889    0.179621    0.000000
   301  O2    s     0.545175    0.133180    0.250045    0.000000
   302  O2    s     0.827216    0.403718    0.581747    0.000000
   303  O2    s     0.565748    0.416319    0.912055    0.000000
   304  O2    s     0.413721    0.826806    0.746612    0.000000
   305  O2    s     0.121588    0.556857    0.081776    0.000000
   306  O2    s     0.396533    0.556258    0.414131    0.000000
   307  F     s     0.419993    0.880570    0.247063    0.000000
   308  F     s     0.077770    0.527726    0.580040    0.000000
   309  F     s     0.422368    0.569284    0.899913    0.000000
   310  F     s     0.538800    0.084227    0.744985    0.000000
   311  F     s     0.832222    0.423512    0.068300    0.000000
   312  F     s     0.525075    0.433295    0.412887    0.000000
--------------------------------------------------------------------------------

  Final Cartesian lattice vectors (Angstroms) :

       11.945827    0.008554   -0.005795
       -5.961171   10.412520    0.016002
       -0.351597   -0.061359   29.457842


  Final cell parameters and derivatives :

--------------------------------------------------------------------------------
       a           11.945832 Angstrom     dE/de1(xx)     0.000834 eV/strain
       b           11.998182 Angstrom     dE/de2(yy)     0.000701 eV/strain
       c           29.460004 Angstrom     dE/de3(zz)     0.000973 eV/strain
       alpha       89.687409 Degrees      dE/de4(yz)    -0.000083 eV/strain
       beta        90.711706 Degrees      dE/de5(xz)    -0.000183 eV/strain
       gamma      119.750132 Degrees      dE/de6(xy)    -0.000157 eV/strain
--------------------------------------------------------------------------------

  Primitive cell volume =          3665.638397 Angs**3

  Density of cell =      1.745424 g/cm**3

  Non-primitive cell volume =          3665.638397 Angs**3


  Final internal derivatives :

--------------------------------------------------------------------------------
   No.  Atomic          a             b             c           Radius
        Label          (eV)          (eV)          (eV)        (eV/Angs)
--------------------------------------------------------------------------------
      1 Ge    c       0.000000      0.000000      0.000000      0.000000
      2 Si    c      -0.000204      0.000130     -0.000102      0.000000
      3 Si    c      -0.000151      0.000161     -0.000457      0.000000
      4 Si    c       0.000219     -0.000303     -0.000093      0.000000
      5 Ge    c       0.000288     -0.000183      0.000217      0.000000
      6 Si    c       0.000111     -0.000342     -0.000747      0.000000
      7 Si    c       0.000306     -0.000452      0.000142      0.000000
      8 Si    c      -0.000212      0.000194      0.000479      0.000000
      9 Si    c       0.000232     -0.000106     -0.000196      0.000000
     10 Si    c      -0.000222     -0.000059     -0.000652      0.000000
     11 Si    c      -0.000064      0.000041      0.000240      0.000000
     12 Si    c       0.000565      0.000856      0.001292      0.000000
     13 Si    c       0.000231     -0.000029      0.000714      0.000000
     14 Si    c      -0.000419      0.000337      0.000673      0.000000
     15 Si    c      -0.000355      0.000177      0.000395      0.000000
     16 Si    c       0.000121     -0.000183     -0.000233      0.000000
     17 Si    c      -0.000102      0.000275     -0.000269      0.000000
     18 Si    c      -0.000151      0.000058     -0.002293      0.000000
     19 Si    c       0.000149     -0.000040     -0.000428      0.000000
     20 Si    c      -0.000656     -0.000238      0.001362      0.000000
     21 Si    c      -0.000004      0.000112     -0.000005      0.000000
     22 Si    c      -0.000781      0.000127      0.000189      0.000000
     23 Si    c      -0.000232      0.000148      0.000245      0.000000
     24 Si    c      -0.000526      0.000217      0.001071      0.000000
     25 Si    c       0.000699     -0.000569     -0.000224      0.000000
     26 Si    c       0.000223     -0.000054     -0.001229      0.000000
     27 Si    c      -0.000163      0.000212     -0.000197      0.000000
     28 Si    c      -0.000241      0.000035     -0.000701      0.000000
     29 Si    c      -0.000185      0.000135      0.000029      0.000000
     30 Si    c      -0.000185      0.000248      0.001430      0.000000
     31 Si    c      -0.000039      0.000074      0.000298      0.000000
     32 Si    c      -0.000323     -0.001226     -0.004226      0.000000
     33 Si    c      -0.000145      0.000003     -0.000100      0.000000
     34 Si    c      -0.000506     -0.000023     -0.000520      0.000000
     35 Si    c       0.000088     -0.000329     -0.000098      0.000000
     36 Si    c      -0.000325      0.000433     -0.000115      0.000000
     37 Si    c       0.000763     -0.000329      0.000061      0.000000
     38 Si    c       0.000361     -0.000447      0.000403      0.000000
     39 Si    c      -0.000140      0.000198     -0.000056      0.000000
     40 Si    c      -0.000233      0.000199      0.000064      0.000000
     41 Si    c      -0.000288      0.000388      0.000073      0.000000
     42 Si    c       0.000292     -0.000172     -0.002154      0.000000
     43 Si    c      -0.000051     -0.000130     -0.000407      0.000000
     44 Si    c       0.000591     -0.000169     -0.000691      0.000000
     45 Si    c      -0.000116     -0.000032     -0.000381      0.000000
     46 Si    c      -0.000074     -0.000346      0.000087      0.000000
     47 Si    c       0.000216     -0.000259      0.000029      0.000000
     48 Si    c      -0.000497      0.000102     -0.000739      0.000000
     49 Si    c      -0.000213     -0.000808      0.000166      0.000000
     50 Ge    c       0.000227     -0.000245      0.000025      0.000000
     51 Si    c       0.000108      0.000215      0.000160      0.000000
     52 Si    c      -0.000060      0.000063     -0.000317      0.000000
     53 Si    c       0.000756     -0.000654      0.000322      0.000000
     54 Si    c       0.000030      0.000262     -0.001437      0.000000
     55 Si    c      -0.000026      0.000031     -0.000199      0.000000
     56 Si    c       0.000150      0.000687     -0.001006      0.000000
     57 Si    c       0.000231     -0.000310     -0.000065      0.000000
     58 Si    c       0.000779     -0.000387      0.000693      0.000000
     59 Si    c      -0.000039      0.000145     -0.000098      0.000000
     60 Si    c       0.000351      0.000251     -0.000435      0.000000
     61 O2    c       0.000070      0.000496     -0.001225      0.000000
     62 O3    c       0.000405     -0.000125      0.000199      0.000000
     63 O2    c       0.000032     -0.000108     -0.000077      0.000000
     64 O2    c      -0.000127      0.000023      0.000227      0.000000
     65 O2    c       0.000367     -0.000688     -0.000604      0.000000
     66 O2    c       0.000630     -0.000584      0.001207      0.000000
     67 O2    c       0.000213     -0.000079     -0.000232      0.000000
     68 O2    c       0.000073     -0.000132      0.000102      0.000000
     69 O2    c       0.000132      0.000110     -0.000174      0.000000
     70 O2    c      -0.000040      0.000163     -0.000655      0.000000
     71 O2    c      -0.000437     -0.000700      0.000178      0.000000
     72 O2    c       0.000137      0.000173     -0.000290      0.000000
     73 O3    c      -0.000044      0.000097     -0.002148      0.000000
     74 O2    c      -0.000103      0.000166     -0.000056      0.000000
     75 O2    c      -0.000078      0.000188      0.000233      0.000000
     76 O2    c      -0.000117     -0.000194      0.000114      0.000000
     77 O2    c       0.000266     -0.000358     -0.000359      0.000000
     78 O3    c      -0.000203      0.000286     -0.000304      0.000000
     79 O2    c       0.000225      0.000076      0.000313      0.000000
     80 O3    c      -0.000179      0.000060     -0.000852      0.000000
     81 O2    c      -0.000064     -0.000013     -0.000247      0.000000
     82 O2    c      -0.000187      0.000071     -0.000134      0.000000
     83 O2    c      -0.000253      0.000347     -0.000615      0.000000
     84 O2    c      -0.000021     -0.000270      0.000742      0.000000
     85 O2    c       0.000209      0.000037      0.000056      0.000000
     86 O2    c      -0.000285     -0.000971     -0.000199      0.000000
     87 O2    c       0.000224     -0.000061      0.000031      0.000000
     88 O2    c       0.000099     -0.000416     -0.000397      0.000000
     89 O2    c       0.000114     -0.000040      0.000349      0.000000
     90 O2    c       0.000171     -0.000032     -0.000092      0.000000
     91 O3    c       0.000017      0.000122      0.002890      0.000000
     92 O2    c       0.000006     -0.000101      0.000305      0.000000
     93 O2    c       0.000556     -0.000117      0.000541      0.000000
     94 O2    c       0.000409     -0.000248     -0.001124      0.000000
     95 O2    c       0.000151     -0.000065     -0.000682      0.000000
     96 O2    c       0.000062     -0.000063     -0.000159      0.000000
     97 O2    c       0.000239     -0.000397     -0.000177      0.000000
     98 O3    c      -0.000180     -0.000124      0.000678      0.000000
     99 O2    c      -0.000357      0.000015      0.000547      0.000000
    100 O2    c      -0.000150     -0.000100      0.000570      0.000000
    101 O2    c       0.000685     -0.000460     -0.000309      0.000000
    102 O2    c       0.000310      0.000277      0.000390      0.000000
    103 O2    c      -0.000229      0.000274     -0.000118      0.000000
    104 O2    c       0.000110     -0.000008      0.000487      0.000000
    105 O2    c       0.000155     -0.000111     -0.000880      0.000000
    106 O2    c      -0.000215     -0.000019     -0.000665      0.000000
    107 O2    c      -0.000053      0.000091     -0.000307      0.000000
    108 O2    c       0.000371      0.000472      0.001210      0.000000
    109 O2    c       0.000331     -0.000497      0.000020      0.000000
    110 O2    c       0.000231     -0.000127      0.000260      0.000000
    111 O3    c       0.000102     -0.000168     -0.001098      0.000000
    112 O2    c      -0.000157      0.000214     -0.000564      0.000000
    113 O3    c       0.000202      0.001512      0.005799      0.000000
    114 O2    c       0.000101     -0.000020      0.000043      0.000000
    115 O2    c      -0.000200      0.000106      0.000005      0.000000
    116 O2    c       0.000123     -0.000163      0.000615      0.000000
    117 O2    c      -0.000162      0.000310      0.000026      0.000000
    118 O2    c      -0.000018     -0.000081     -0.000029      0.000000
    119 O2    c      -0.000016      0.000101      0.000445      0.000000
    120 O2    c       0.000049      0.000128     -0.000096      0.000000
    121 O2    c       0.000019     -0.000128     -0.000126      0.000000
    122 O2    c      -0.001007      0.000389      0.000558      0.000000
    123 O2    c       0.000017     -0.000077     -0.000104      0.000000
    124 O2    c      -0.000133      0.000594     -0.000266      0.000000
    125 O2    c       0.000085     -0.000013     -0.000349      0.000000
    126 O2    c      -0.000159      0.000273      0.000191      0.000000
    127 O3    c      -0.000406     -0.000236      0.002641      0.000000
    128 O2    c       0.000038     -0.000037     -0.000576      0.000000
    129 O2    c      -0.000106      0.000082     -0.000127      0.000000
    130 O2    c      -0.000050     -0.000073     -0.000533      0.000000
    131 O3    c       0.000427     -0.000317     -0.000803      0.000000
    132 O2    c      -0.000269      0.000042     -0.000037      0.000000
    133 O2    c       0.000085      0.000113      0.000610      0.000000
    134 O2    c      -0.000079     -0.000384      0.000038      0.000000
    135 O2    c       0.000131     -0.000055      0.000020      0.000000
    136 O2    c      -0.000063     -0.000045      0.000284      0.000000
    137 O2    c       0.000134      0.000109      0.000273      0.000000
    138 O2    c       0.000536     -0.000426     -0.001365      0.000000
    139 O3    c       0.000227     -0.000648      0.003152      0.000000
    140 O2    c      -0.000068      0.000033     -0.000488      0.000000
    141 O2    c      -0.000001     -0.000088     -0.000230      0.000000
    142 O2    c       0.000090     -0.000224      0.000082      0.000000
    143 O3    c       0.000403     -0.000521      0.000259      0.000000
    144 O2    c      -0.000315      0.000347     -0.000528      0.000000
    145 O2    c       0.000172     -0.000171      0.000075      0.000000
    146 O2    c       0.000340     -0.000249      0.000462      0.000000
    147 O2    c      -0.000121      0.000197      0.000385      0.000000
    148 O2    c      -0.000193      0.000163      0.000022      0.000000
    149 O2    c      -0.000035      0.000085      0.000017      0.000000
    150 O2    c      -0.000337      0.000287      0.000575      0.000000
    151 O2    c       0.000451     -0.000464     -0.000628      0.000000
    152 O2    c       0.000316     -0.000197      0.000641      0.000000
    153 O2    c      -0.000200      0.000153     -0.000274      0.000000
    154 O2    c      -0.000057      0.000205     -0.000184      0.000000
    155 O2    c      -0.000131      0.000099     -0.000310      0.000000
    156 O2    c       0.000121      0.000377      0.001438      0.000000
    157 O2    c      -0.000135      0.000023      0.000178      0.000000
    158 O2    c       0.001033     -0.000833     -0.002335      0.000000
    159 O2    c      -0.000079      0.000068      0.000261      0.000000
    160 O2    c       0.000493     -0.000333      0.001449      0.000000
    161 O2    c       0.000149     -0.000115      0.000327      0.000000
    162 O2    c      -0.000107      0.000190      0.001130      0.000000
    163 O2    c      -0.000473      0.000216      0.000355      0.000000
    164 O2    c      -0.000303      0.000166      0.000316      0.000000
    165 O2    c       0.000027     -0.000004      0.000397      0.000000
    166 O2    c       0.000010      0.000012     -0.000015      0.000000
    167 O2    c      -0.000176      0.000188      0.000275      0.000000
    168 O2    c      -0.000156      0.000626      0.000032      0.000000
    169 O2    c      -0.000060     -0.000167     -0.000574      0.000000
    170 O2    c       0.000328     -0.000340      0.001293      0.000000
    171 O2    c       0.000036      0.000010     -0.000255      0.000000
    172 O2    c       0.000037      0.000274     -0.000707      0.000000
    173 O2    c      -0.000177      0.000128      0.000016      0.000000
    174 O2    c       0.000040     -0.000443     -0.000293      0.000000
    175 O2    c      -0.000401      0.000589      0.000079      0.000000
    176 O2    c      -0.000216      0.000180     -0.000637      0.000000
    177 O2    c      -0.000356      0.000314      0.000583      0.000000
    178 O2    c      -0.000013     -0.000059     -0.000047      0.000000
    179 O2    c      -0.000224      0.000068     -0.000193      0.000000
    180 O2    c       0.000051     -0.000082     -0.000010      0.000000
    181 F     c       0.000044     -0.000014      0.000056      0.000000
    182 F     c      -0.000029     -0.000007      0.000177      0.000000
    183 F     c       0.000002     -0.000084     -0.000335      0.000000
    184 F     c       0.000024     -0.000033     -0.000010      0.000000
    185 F     c       0.000383     -0.000931     -0.000179      0.000000
    186 F     c      -0.000045      0.000057     -0.000026      0.000000
    187 O2    s      -0.000444     -0.000123      0.000067      0.000000
    188 O3    s      -0.000366      0.000189      0.000096      0.000000
    189 O2    s       0.000003      0.000100     -0.000495      0.000000
    190 O2    s      -0.000008     -0.000068     -0.000022      0.000000
    191 O2    s      -0.001018      0.000869     -0.000553      0.000000
    192 O2    s      -0.001092      0.000682     -0.000449      0.000000
    193 O2    s      -0.000165      0.000286      0.000438      0.000000
    194 O2    s      -0.000076     -0.000058     -0.000324      0.000000
    195 O2    s       0.000403      0.000087     -0.000880      0.000000
    196 O2    s      -0.000185      0.000064      0.000182      0.000000
    197 O2    s       0.000120      0.001150      0.001273      0.000000
    198 O2    s       0.000036     -0.000108      0.000303      0.000000
    199 O3    s      -0.000704     -0.000345      0.003395      0.000000
    200 O2    s       0.000137     -0.000210     -0.000184      0.000000
    201 O2    s       0.000211     -0.000506      0.000529      0.000000
    202 O2    s      -0.000166      0.000124      0.000040      0.000000
    203 O2    s      -0.000205      0.000720      0.000803      0.000000
    204 O3    s       0.000581     -0.000311     -0.000170      0.000000
    205 O2    s      -0.000431      0.000383     -0.000919      0.000000
    206 O3    s      -0.000167     -0.000148      0.000820      0.000000
    207 O2    s      -0.000026      0.000074      0.000207      0.000000
    208 O2    s       0.000227     -0.000182      0.000277      0.000000
    209 O2    s       0.000347     -0.000137      0.000225      0.000000
    210 O2    s      -0.000172      0.000430      0.001631      0.000000
    211 O2    s      -0.000322      0.000046      0.000478      0.000000
    212 O2    s      -0.001175      0.000020     -0.002049      0.000000
    213 O2    s      -0.000020      0.000010     -0.000025      0.000000
    214 O2    s      -0.000268      0.000420     -0.001012      0.000000
    215 O2    s       0.000028      0.000082     -0.000186      0.000000
    216 O2    s       0.000219     -0.000221      0.000828      0.000000
    217 O3    s      -0.000676      0.000343      0.000461      0.000000
    218 O2    s       0.000431      0.000072     -0.000131      0.000000
    219 O2    s      -0.000567      0.000130     -0.001117      0.000000
    220 O2    s      -0.000644      0.000983      0.000085      0.000000
    221 O2    s       0.001132     -0.000273      0.000404      0.000000
    222 O2    s       0.000093     -0.000175      0.000435      0.000000
    223 O2    s       0.000051     -0.000446     -0.000687      0.000000
    224 O3    s      -0.000037      0.000235      0.000102      0.000000
    225 O2    s       0.000169     -0.000076     -0.000784      0.000000
    226 O2    s       0.000142     -0.000100     -0.000230      0.000000
    227 O2    s      -0.001184      0.000791     -0.000146      0.000000
    228 O2    s       0.000505     -0.000972     -0.000487      0.000000
    229 O2    s       0.000294     -0.000390      0.000481      0.000000
    230 O2    s       0.000630     -0.000155      0.001648      0.000000
    231 O2    s      -0.000281      0.000161      0.000909      0.000000
    232 O2    s       0.000263     -0.000043     -0.000072      0.000000
    233 O2    s      -0.000114     -0.000104      0.000092      0.000000
    234 O2    s      -0.000086     -0.000344      0.000630      0.000000
    235 O2    s      -0.000286      0.000519      0.000912      0.000000
    236 O2    s      -0.000090      0.000078      0.000017      0.000000
    237 O3    s      -0.000447      0.000676     -0.001842      0.000000
    238 O2    s       0.000180     -0.000150      0.000082      0.000000
    239 O3    s       0.000108     -0.003183     -0.001352      0.000000
    240 O2    s       0.000172     -0.000410     -0.000019      0.000000
    241 O2    s       0.000038      0.000170     -0.001277      0.000000
    242 O2    s      -0.000244     -0.000006      0.000111      0.000000
    243 O2    s      -0.000098     -0.000044      0.000307      0.000000
    244 O2    s      -0.000078      0.000252      0.000378      0.000000
    245 O2    s       0.000124     -0.000167     -0.000329      0.000000
    246 O2    s      -0.000107      0.000093      0.000990      0.000000
    247 O2    s      -0.000179      0.000109      0.000254      0.000000
    248 O2    s      -0.000376      0.000209     -0.001296      0.000000
    249 O2    s       0.000213     -0.000246     -0.000422      0.000000
    250 O2    s       0.000598     -0.000581     -0.002311      0.000000
    251 O2    s      -0.000084      0.000037     -0.000093      0.000000
    252 O2    s      -0.000066     -0.000654      0.000402      0.000000
    253 O3    s       0.000497      0.000247     -0.003038      0.000000
    254 O2    s       0.000192     -0.000088      0.000523      0.000000
    255 O2    s       0.000168      0.000048     -0.000382      0.000000
    256 O2    s       0.000006      0.000000      0.000288      0.000000
    257 O3    s      -0.000928      0.000830      0.000072      0.000000
    258 O2    s       0.000337     -0.000381      0.000511      0.000000
    259 O2    s       0.000035     -0.000115     -0.000777      0.000000
    260 O2    s       0.000417      0.000123     -0.001303      0.000000
    261 O2    s       0.000069      0.000084      0.000498      0.000000
    262 O2    s       0.000052     -0.000018     -0.000216      0.000000
    263 O2    s      -0.000013     -0.000372     -0.000166      0.000000
    264 O2    s       0.000207      0.000204      0.001930      0.000000
    265 O3    s      -0.001031      0.000544     -0.002748      0.000000
    266 O2    s       0.000027     -0.000189      0.000559      0.000000
    267 O2    s       0.000118      0.000012     -0.000149      0.000000
    268 O2    s       0.000068      0.000130     -0.000398      0.000000
    269 O3    s      -0.000680      0.000872     -0.001057      0.000000
    270 O2    s       0.000325     -0.000512      0.001160      0.000000
    271 O2    s      -0.000131      0.000242     -0.000110      0.000000
    272 O2    s      -0.000527     -0.000037     -0.001867      0.000000
    273 O2    s       0.000033     -0.000051     -0.000100      0.000000
    274 O2    s       0.000156     -0.000073      0.000212      0.000000
    275 O2    s       0.000082     -0.000170     -0.000030      0.000000
    276 O2    s      -0.000308      0.000261      0.000784      0.000000
    277 O2    s      -0.001188      0.000963      0.000568      0.000000
    278 O2    s      -0.000368     -0.000024      0.000592      0.000000
    279 O2    s      -0.000021     -0.000008      0.000316      0.000000
    280 O2    s       0.000157     -0.000311      0.000033      0.000000
    281 O2    s       0.000140      0.000015     -0.000023      0.000000
    282 O2    s      -0.000508      0.000175      0.001173      0.000000
    283 O2    s       0.000084     -0.000024     -0.000242      0.000000
    284 O2    s      -0.000680      0.000773      0.000427      0.000000
    285 O2    s       0.000319     -0.000398      0.000027      0.000000
    286 O2    s      -0.000701      0.000417      0.000727      0.000000
    287 O2    s      -0.000035      0.000068      0.000127      0.000000
    288 O2    s       0.000068     -0.000259      0.000284      0.000000
    289 O2    s       0.000498      0.000755     -0.000778      0.000000
    290 O2    s       0.000276     -0.000392      0.000496      0.000000
    291 O2    s       0.000016     -0.000117     -0.000019      0.000000
    292 O2    s      -0.000143      0.000092      0.000089      0.000000
    293 O2    s       0.000342     -0.000497     -0.000075      0.000000
    294 O2    s       0.000558     -0.000918      0.000393      0.000000
    295 O2    s       0.000164      0.000284      0.000603      0.000000
    296 O2    s      -0.000007     -0.000076     -0.002109      0.000000
    297 O2    s       0.000088     -0.000076     -0.000063      0.000000
    298 O2    s       0.000352     -0.000449     -0.000406      0.000000
    299 O2    s       0.000065     -0.000046     -0.000501      0.000000
    300 O2    s      -0.000429      0.000494      0.001270      0.000000
    301 O2    s       0.000311     -0.001019      0.000743      0.000000
    302 O2    s      -0.000021     -0.000147      0.000175      0.000000
    303 O2    s       0.000895     -0.000541     -0.000761      0.000000
    304 O2    s       0.000245     -0.000193      0.000129      0.000000
    305 O2    s       0.000293     -0.000132      0.000796      0.000000
    306 O2    s      -0.000413      0.000524      0.000110      0.000000
    307 F     s       0.000109      0.000026     -0.000077      0.000000
    308 F     s      -0.000025      0.000037      0.000103      0.000000
    309 F     s      -0.000043      0.000049      0.000474      0.000000
    310 F     s       0.000004     -0.000016      0.000043      0.000000
    311 F     s      -0.000680      0.001039      0.000723      0.000000
    312 F     s       0.000091     -0.000092      0.000012      0.000000
--------------------------------------------------------------------------------
  Maximum abs         0.001188      0.003183      0.005799      0.000000
--------------------------------------------------------------------------------


  Time to end of optimisation =      84.0530 seconds


  Peak dynamic memory used =      19.13 MB 


  Timing analysis for GULP :

--------------------------------------------------------------------------------
  Task / Subroutine                                          Time (Seconds)
--------------------------------------------------------------------------------
  Calculation of reciprocal space energy and derivatives          2.5412
  Calculation of real space energy and derivatives               71.8100
  Calculation of three-body energy and derivatives                8.1666
  Calculation of matrix inversion                                 0.9714
--------------------------------------------------------------------------------
  Total CPU time                                                 84.0530
--------------------------------------------------------------------------------


  Dump file written as out.res                                                 
  CIF file written as out.cif                                                 


  Job Finished at 23:02.18  3rd December   2016                               

