********************************************************************************
*                       GENERAL UTILITY LATTICE PROGRAM                        *
*                                 Julian Gale                                  *
*                      Nanochemistry Research Institute                        *
*                           Department of Chemistry                            *
*                    Curtin University, Western Australia                      *
********************************************************************************
* Version = 4.2.0 * Last modified =  20th January 2014                         *
********************************************************************************
*  optimise     - perform optimisation run                                     *
*  conp         - constant pressure calculation                                *
*  qok          - running with non charge neutral cell is OK                   *
********************************************************************************

  Job Started  at 22:40.02  3rd December   2016                               

  Number of CPUs =     1


  Total number of configurations input =   1

********************************************************************************
*  Input for Configuration =   1                                               *
********************************************************************************

  Formula = Ge3Si57O120F6                                               

  Number of irreducible atoms/shells =     312


  Total number atoms/shells =     312

  Dimensionality = 3               :  Bulk   


  Charge on solid   =  -6.000000 =>neutralising background added


  Cartesian lattice vectors (Angstroms) :

       11.932829    0.000000    0.000000
       -5.975153   10.398527    0.000000
       -0.320562   -0.126959   29.525626

  Cell parameters (Angstroms/Degrees):

  a =      11.9328    alpha =  89.9037
  b =      11.9930    beta  =  90.6220
  c =      29.5276    gamma = 119.8823

  Initial cell volume =        3663.653015 Angs**3

  Temperature of configuration =  0.000     K 

  Pressure of configuration =         0.000 GPa 

  Fractional coordinates of asymmetric unit :

--------------------------------------------------------------------------------
   No.  Atomic       x           y          z         Charge      Occupancy
        Label      (Frac)      (Frac)     (Frac)        (e)         (Frac)  
--------------------------------------------------------------------------------
      1 Ge    c    0.699600    0.375700    0.033890     4.00000    1.000000    
      2 Si    c    0.621280 *  0.324171 *  0.365525 *   4.00000    1.000000    
      3 Si    c    0.676843 *  0.296022 *  0.696788 *   4.00000    1.000000    
      4 Si    c    0.296780 *  0.619348 *  0.530751 *   4.00000    1.000000    
      5 Ge    c    0.390216 *  0.669374 *  0.865729 *   4.00000    1.000000    
      6 Si    c    0.319683 *  0.703963 *  0.198907 *   4.00000    1.000000    
      7 Si    c    0.377112 *  0.700519 *  0.299106 *   4.00000    1.000000    
      8 Si    c    0.315475 *  0.628317 *  0.962745 *   4.00000    1.000000    
      9 Si    c    0.298117 *  0.673826 *  0.631146 *   4.00000    1.000000    
     10 Si    c    0.622435 *  0.294544 *  0.796928 *   4.00000    1.000000    
     11 Si    c    0.676395 *  0.379757 *  0.465914 *   4.00000    1.000000    
     12 Si    c    0.683423 *  0.319821 *  0.133159 *   4.00000    1.000000    
     13 Si    c    0.530160 *  0.416290 *  0.963698 *   4.00000    1.000000    
     14 Si    c    0.582752 *  0.111870 *  0.301971 *   4.00000    1.000000    
     15 Si    c    0.886653 *  0.468559 *  0.632402 *   4.00000    1.000000    
     16 Si    c    0.468488 *  0.582754 *  0.465460 *   4.00000    1.000000    
     17 Si    c    0.417250 *  0.878413 *  0.798059 *   4.00000    1.000000    
     18 Si    c    0.106229 *  0.531394 *  0.133032 *   4.00000    1.000000    
     19 Si    c    0.416709 *  0.528633 *  0.363852 *   4.00000    1.000000    
     20 Si    c    0.105637 *  0.577175 *  0.030089 *   4.00000    1.000000    
     21 Si    c    0.470384 *  0.884822 *  0.695850 *   4.00000    1.000000    
     22 Si    c    0.586838 *  0.471141 *  0.861045 *   4.00000    1.000000    
     23 Si    c    0.887578 *  0.417590 *  0.530957 *   4.00000    1.000000    
     24 Si    c    0.526737 *  0.112510 *  0.200711 *   4.00000    1.000000    
     25 Si    c    0.299426 *  0.397612 *  0.842414 *   4.00000    1.000000    
     26 Si    c    0.597862 *  0.904665 *  0.184539 *   4.00000    1.000000    
     27 Si    c    0.095006 *  0.696815 *  0.516260 *   4.00000    1.000000    
     28 Si    c    0.697699 *  0.600877 *  0.350247 *   4.00000    1.000000    
     29 Si    c    0.399532 *  0.094255 *  0.681517 *   4.00000    1.000000    
     30 Si    c    0.891513 *  0.292347 *  0.014671 *   4.00000    1.000000    
     31 Si    c    0.397349 *  0.302317 *  0.479778 *   4.00000    1.000000    
     32 Si    c    0.890304 *  0.603448 *  0.143875 *   4.00000    1.000000    
     33 Si    c    0.699182 *  0.092944 *  0.810695 *   4.00000    1.000000    
     34 Si    c    0.597954 *  0.701052 *  0.977430 *   4.00000    1.000000    
     35 Si    c    0.097231 *  0.396507 *  0.646208 *   4.00000    1.000000    
     36 Si    c    0.301096 *  0.902195 *  0.314865 *   4.00000    1.000000    
     37 Si    c    0.250288 *  0.346414 *  0.944663 *   4.00000    1.000000    
     38 Si    c    0.658509 *  0.910019 *  0.284983 *   4.00000    1.000000    
     39 Si    c    0.088297 *  0.746636 *  0.616712 *   4.00000    1.000000    
     40 Si    c    0.747965 *  0.660004 *  0.450759 *   4.00000    1.000000    
     41 Si    c    0.342635 *  0.082940 *  0.781623 *   4.00000    1.000000    
     42 Si    c    0.899823 *  0.250511 *  0.117725 *   4.00000    1.000000    
     43 Si    c    0.339546 *  0.250810 *  0.379098 *   4.00000    1.000000    
     44 Si    c    0.900030 *  0.656979 *  0.041265 *   4.00000    1.000000    
     45 Si    c    0.749436 *  0.087737 *  0.710404 *   4.00000    1.000000    
     46 Si    c    0.672339 *  0.756504 *  0.876205 *   4.00000    1.000000    
     47 Si    c    0.088887 *  0.339377 *  0.545620 *   4.00000    1.000000    
     48 Si    c    0.247591 *  0.911404 *  0.214500 *   4.00000    1.000000    
     49 Si    c    0.976559 *  0.126797 *  0.962558 *   4.00000    1.000000    
     50 Si    c    0.876860 *  0.846997 *  0.299290 *   4.00000    1.000000    
     51 Si    c    0.150670 *  0.026317 *  0.630272 *   4.00000    1.000000    
     52 Si    c    0.028171 *  0.877854 *  0.465158 *   4.00000    1.000000    
     53 Si    c    0.124442 *  0.143060 *  0.794629 *   4.00000    1.000000    
     54 Si    c    0.845375 *  0.975597 *  0.133812 *   4.00000    1.000000    
     55 Si    c    0.121619 *  0.970331 *  0.364656 *   4.00000    1.000000    
     56 Ge    c    0.850379 *  0.883986 *  0.029819 *   4.00000    1.000000    
     57 Si    c    0.028122 *  0.146727 *  0.694736 *   4.00000    1.000000    
     58 Si    c    0.887284 *  0.031577 *  0.861513 *   4.00000    1.000000    
     59 Si    c    0.150368 *  0.121437 *  0.529872 *   4.00000    1.000000    
     60 Si    c    0.967184 *  0.851223 *  0.197853 *   4.00000    1.000000    
     61 O3    c    0.942282 *  0.008780 *  0.994650 *   1.33043    1.000000    
     62 O2    c    0.001178 *  0.928890 *  0.330868 *   0.87073    1.000000    
     63 O2    c    0.069102 *  0.069657 *  0.660825 *   0.87073    1.000000    
     64 O2    c    0.070984 *  0.001839 *  0.496313 *   0.87073    1.000000    
     65 O2    c    0.007148 *  0.073480 *  0.828909 *   0.87073    1.000000    
     66 O2    c    0.928523 *  0.936535 *  0.166682 *   0.87073    1.000000    
     67 O2    c    0.339273 *  0.577136 *  0.331017 *   0.87073    1.000000    
     68 O2    c    0.422306 *  0.759304 *  0.663472 *   0.87073    1.000000    
     69 O2    c    0.233503 *  0.655805 *  0.000290 *   0.87073    1.000000    
     70 O2    c    0.660941 *  0.417855 *  0.829857 *   0.87073    1.000000    
     71 O2    c    0.573930 *  0.240592 *  0.170532 *   0.87073    1.000000    
     72 O2    c    0.760717 *  0.340598 *  0.498603 *   0.87073    1.000000    
     73 O3    c    0.568417 *  0.337396 *  0.996778 *   1.33043    1.000000    
     74 O2    c    0.761827 *  0.419879 *  0.664604 *   0.87073    1.000000    
     75 O2    c    0.659992 *  0.237521 *  0.334054 *   0.87073    1.000000    
     76 O2    c    0.419127 *  0.658271 *  0.497771 *   0.87073    1.000000    
     77 O2    c    0.230826 *  0.580941 *  0.166063 *   0.87073    1.000000    
     78 O3    c    0.344933 *  0.758763 *  0.829560 *   1.33043    1.000000    
     79 O2    c    0.129564 *  0.223221 *  0.967184 *   0.87073    1.000000    
     80 O2    c    0.785848 *  0.910251 *  0.304754 *   0.87073    1.000000    
     81 O2    c    0.087851 *  0.872728 *  0.636383 *   0.87073    1.000000    
     82 O2    c    0.873896 *  0.787170 *  0.470708 *   0.87073    1.000000    
     83 O2    c    0.213499 *  0.078285 *  0.801251 *   0.87073    1.000000    
     84 O2    c    0.902767 *  0.129010 *  0.140245 *   0.87073    1.000000    
     85 O2    c    0.212741 *  0.123951 *  0.359177 *   0.87073    1.000000    
     86 O3    c    0.923619 *  0.793450 *  0.023959 *   1.33043    1.000000    
     87 O2    c    0.873965 *  0.086156 *  0.689487 *   0.87073    1.000000    
     88 O2    c    0.808963 *  0.876644 *  0.860012 *   0.87073    1.000000    
     89 O2    c    0.087035 *  0.212582 *  0.525371 *   0.87073    1.000000    
     90 O2    c    0.121522 *  0.912440 *  0.193866 *   0.87073    1.000000    
     91 O2    c    0.925738 *  0.856877 *  0.248510 *   0.87073    1.000000    
     92 O2    c    0.138235 *  0.064267 *  0.579360 *   0.87073    1.000000    
     93 O2    c    0.939239 *  0.079664 *  0.911614 *   0.87073    1.000000    
     94 O2    c    0.066293 *  0.125009 *  0.744560 *   0.87073    1.000000    
     95 O3    c    0.863568 *  0.944107 *  0.083528 *   1.33043    1.000000    
     96 O2    c    0.066456 *  0.928822 *  0.414459 *   0.87073    1.000000    
     97 O2    c    0.899481 *  0.198684 *  0.977412 *   0.87073    1.000000    
     98 O2    c    0.795983 *  0.696550 *  0.312007 *   0.87073    1.000000    
     99 O2    c    0.302248 *  0.096508 *  0.642945 *   0.87073    1.000000    
    100 O2    c    0.097448 *  0.795740 *  0.477905 *   0.87073    1.000000    
    101 O2    c    0.210041 *  0.294677 *  0.804209 *   0.87073    1.000000    
    102 O2    c    0.693249 *  0.902458 *  0.145992 *   0.87073    1.000000    
    103 O2    c    0.204179 *  0.900647 *  0.353272 *   0.87073    1.000000    
    104 O3    c    0.687985 *  0.793527 *  0.017631 *   1.33043    1.000000    
    105 O2    c    0.098732 *  0.299208 *  0.684333 *   0.87073    1.000000    
    106 O2    c    0.798282 *  0.093063 *  0.848851 *   0.87073    1.000000    
    107 O2    c    0.301947 *  0.204903 *  0.517922 *   0.87073    1.000000    
    108 O2    c    0.895260 *  0.702203 *  0.182255 *   0.87073    1.000000    
    109 O2    c    0.320344 *  0.644400 *  0.248447 *   0.87073    1.000000    
    110 O2    c    0.355362 *  0.675570 *  0.580964 *   0.87073    1.000000    
    111 O3    c    0.309549 *  0.685901 *  0.915187 *   1.33043    1.000000    
    112 O2    c    0.678161 *  0.354116 *  0.746973 *   0.87073    1.000000    
    113 O3    c    0.613742 *  0.306524 *  0.085303 *   1.33043    1.000000    
    114 O2    c    0.678291 *  0.323899 *  0.415764 *   0.87073    1.000000    
    115 O2    c    0.373536 *  0.336884 *  0.961456 *   0.87073    1.000000    
    116 O2    c    0.669673 *  0.042043 *  0.303932 *   0.87073    1.000000    
    117 O2    c    0.956081 *  0.624669 *  0.634841 *   0.87073    1.000000    
    118 O2    c    0.625124 *  0.670150 *  0.468332 *   0.87073    1.000000    
    119 O2    c    0.332321 *  0.951319 *  0.799242 *   0.87073    1.000000    
    120 O2    c    0.032224 *  0.375944 *  0.134623 *   0.87073    1.000000    
    121 O2    c    0.329268 *  0.372749 *  0.360261 *   0.87073    1.000000    
    122 O2    c    0.031999 *  0.658518 *  0.026894 *   0.87073    1.000000    
    123 O2    c    0.626813 *  0.955619 *  0.692064 *   0.87073    1.000000    
    124 O2    c    0.673081 *  0.626848 *  0.859755 *   0.87073    1.000000    
    125 O2    c    0.956006 *  0.329921 *  0.527123 *   0.87073    1.000000    
    126 O2    c    0.370063 *  0.042890 *  0.196518 *   0.87073    1.000000    
    127 O3    c    0.757874 *  0.285571 *  0.004037 *   1.33043    1.000000    
    128 O2    c    0.696427 *  0.466278 *  0.342626 *   0.87073    1.000000    
    129 O2    c    0.533471 *  0.227926 *  0.673565 *   0.87073    1.000000    
    130 O2    c    0.228151 *  0.694711 *  0.508430 *   0.87073    1.000000    
    131 O3    c    0.297424 *  0.525652 *  0.832650 *   1.33043    1.000000    
    132 O2    c    0.461881 *  0.772167 *  0.175918 *   0.87073    1.000000    
    133 O2    c    0.301454 *  0.768223 *  0.321116 *   0.87073    1.000000    
    134 O2    c    0.463937 *  0.702313 *  0.982445 *   0.87073    1.000000    
    135 O2    c    0.231184 *  0.530845 *  0.653287 *   0.87073    1.000000    
    136 O2    c    0.699643 *  0.227308 *  0.818886 *   0.87073    1.000000    
    137 O2    c    0.532647 *  0.304146 *  0.487370 *   0.87073    1.000000    
    138 O2    c    0.757743 *  0.469059 *  0.151404 *   0.87073    1.000000    
    139 O3    c    0.770706 *  0.545224 *  0.019977 *   1.33043    1.000000    
    140 O2    c    0.464727 *  0.248966 *  0.359769 *   0.87073    1.000000    
    141 O2    c    0.752548 *  0.215578 *  0.691401 *   0.87073    1.000000    
    142 O2    c    0.215562 *  0.463539 *  0.526006 *   0.87073    1.000000    
    143 O3    c    0.559954 *  0.771475 *  0.854042 *   1.33043    1.000000    
    144 O2    c    0.242848 *  0.783541 *  0.194571 *   0.87073    1.000000    
    145 O2    c    0.533382 *  0.783835 *  0.303987 *   0.87073    1.000000    
    146 O2    c    0.250981 *  0.472226 *  0.963819 *   0.87073    1.000000    
    147 O2    c    0.215181 *  0.747039 *  0.636138 *   0.87073    1.000000    
    148 O2    c    0.466236 *  0.211354 *  0.801907 *   0.87073    1.000000    
    149 O2    c    0.749011 *  0.535375 *  0.470702 *   0.87073    1.000000    
    150 O2    c    0.776427 *  0.256133 *  0.135791 *   0.87073    1.000000    
    151 O2    c    0.231722 *  0.331634 *  0.890472 *   0.87073    1.000000    
    152 O2    c    0.673785 *  0.907805 *  0.230679 *   0.87073    1.000000    
    153 O2    c    0.090620 *  0.766605 *  0.562474 *   0.87073    1.000000    
    154 O2    c    0.768221 *  0.676176 *  0.396560 *   0.87073    1.000000    
    155 O2    c    0.324729 *  0.089539 *  0.727454 *   0.87073    1.000000    
    156 O2    c    0.895446 *  0.230111 *  0.063612 *   0.87073    1.000000    
    157 O2    c    0.322581 *  0.232354 *  0.433196 *   0.87073    1.000000    
    158 O2    c    0.891892 *  0.670232 *  0.096458 *   0.87073    1.000000    
    159 O2    c    0.770085 *  0.089509 *  0.764606 *   0.87073    1.000000    
    160 O2    c    0.676793 *  0.768412 *  0.931665 *   0.87073    1.000000    
    161 O2    c    0.091573 *  0.321929 *  0.599769 *   0.87073    1.000000    
    162 O2    c    0.230102 *  0.908996 *  0.268671 *   0.87073    1.000000    
    163 O2    c    0.575047 *  0.558381 *  0.983601 *   0.87073    1.000000    
    164 O2    c    0.441573 *  0.025620 *  0.324263 *   0.87073    1.000000    
    165 O2    c    0.972670 *  0.412161 *  0.654942 *   0.87073    1.000000    
    166 O2    c    0.412110 *  0.441802 *  0.488018 *   0.87073    1.000000    
    167 O2    c    0.560766 *  0.969758 *  0.819742 *   0.87073    1.000000    
    168 O2    c    0.013632 *  0.583782 *  0.150778 *   0.87073    1.000000    
    169 O2    c    0.558017 *  0.587575 *  0.340826 *   0.87073    1.000000    
    170 O2    c    0.018417 *  0.434207 *  0.009438 *   0.87073    1.000000    
    171 O2    c    0.411706 *  0.968062 *  0.672627 *   0.87073    1.000000    
    172 O2    c    0.444950 *  0.419044 *  0.839221 *   0.87073    1.000000    
    173 O2    c    0.968780 *  0.557985 *  0.507357 *   0.87073    1.000000    
    174 O2    c    0.586016 *  0.031751 *  0.176389 *   0.87073    1.000000    
    175 O2    c    0.580712 *  0.164407 *  0.251425 *   0.87073    1.000000    
    176 O2    c    0.833678 *  0.416066 *  0.581400 *   0.87073    1.000000    
    177 O2    c    0.583565 *  0.423525 *  0.912700 *   0.87073    1.000000    
    178 O2    c    0.420117 *  0.831968 *  0.746218 *   0.87073    1.000000    
    179 O2    c    0.153163 *  0.577470 *  0.081878 *   0.87073    1.000000    
    180 O2    c    0.415568 *  0.582108 *  0.414317 *   0.87073    1.000000    
    181 F     c    0.449004 *  0.902765 *  0.248268 *   0.56000    1.000000    
    182 F     c    0.095694 *  0.546159 *  0.580248 *   0.56000    1.000000    
    183 F     c    0.441241 *  0.576665 *  0.903066 *   0.56000    1.000000    
    184 F     c    0.551821 *  0.098977 *  0.745348 *   0.56000    1.000000    
    185 F     c    0.852990 *  0.436031 *  0.071387 *   0.56000    1.000000    
    186 F     c    0.547543 *  0.452055 *  0.413744 *   0.56000    1.000000    
    187 O3    s    0.937899 *  0.010616 *  0.994275 *  -3.33043    1.000000    
    188 O2    s    0.000585 *  0.924262 *  0.331077 *  -2.87073    1.000000    
    189 O2    s    0.073673 *  0.073407 *  0.661192 *  -2.87073    1.000000    
    190 O2    s    0.075010 *  0.001206 *  0.496543 *  -2.87073    1.000000    
    191 O2    s    0.006759 *  0.076610 *  0.828741 *  -2.87073    1.000000    
    192 O2    s    0.923727 *  0.931269 *  0.166574 *  -2.87073    1.000000    
    193 O2    s    0.351074 *  0.585071 *  0.331014 *  -2.87073    1.000000    
    194 O2    s    0.414235 *  0.763164 *  0.663386 *  -2.87073    1.000000    
    195 O2    s    0.228012 *  0.644471 *  0.999673 *  -2.87073    1.000000    
    196 O2    s    0.649367 *  0.411073 *  0.829811 *  -2.87073    1.000000    
    197 O2    s    0.580392 *  0.235456 *  0.169784 *  -2.87073    1.000000    
    198 O2    s    0.764887 *  0.352622 *  0.498478 *  -2.87073    1.000000    
    199 O3    s    0.573787 *  0.348567 *  0.995924 *  -3.33043    1.000000    
    200 O2    s    0.766202 *  0.412446 *  0.664523 *  -2.87073    1.000000    
    201 O2    s    0.648006 *  0.233185 *  0.333905 *  -2.87073    1.000000    
    202 O2    s    0.411829 *  0.646456 *  0.497767 *  -2.87073    1.000000    
    203 O2    s    0.226479 *  0.587964 *  0.165845 *  -2.87073    1.000000    
    204 O3    s    0.356079 *  0.765661 *  0.828665 *  -3.33043    1.000000    
    205 O2    s    0.125845 *  0.225932 *  0.964293 *  -2.87073    1.000000    
    206 O2    s    0.782229 *  0.903477 *  0.302134 *  -2.87073    1.000000    
    207 O2    s    0.094522 *  0.875904 *  0.633729 *  -2.87073    1.000000    
    208 O2    s    0.877173 *  0.783583 *  0.468068 *  -2.87073    1.000000    
    209 O2    s    0.217048 *  0.085783 *  0.798563 *  -2.87073    1.000000    
    210 O2    s    0.896513 *  0.125941 *  0.137238 *  -2.87073    1.000000    
    211 O2    s    0.216121 *  0.120719 *  0.361783 *  -2.87073    1.000000    
    212 O3    s    0.915045 *  0.787553 *  0.026142 *  -3.33043    1.000000    
    213 O2    s    0.877674 *  0.092832 *  0.692172 *  -2.87073    1.000000    
    214 O2    s    0.803303 *  0.880798 *  0.861833 *  -2.87073    1.000000    
    215 O2    s    0.093974 *  0.215912 *  0.527906 *  -2.87073    1.000000    
    216 O2    s    0.118065 *  0.905772 *  0.196408 *  -2.87073    1.000000    
    217 O2    s    0.924933 *  0.855080 *  0.248434 *  -2.87073    1.000000    
    218 O2    s    0.141010 *  0.066550 *  0.579407 *  -2.87073    1.000000    
    219 O2    s    0.937641 *  0.079611 *  0.911802 *  -2.87073    1.000000    
    220 O2    s    0.068538 *  0.129495 *  0.744582 *  -2.87073    1.000000    
    221 O3    s    0.860428 *  0.942399 *  0.084431 *  -3.33043    1.000000    
    222 O2    s    0.068473 *  0.927866 *  0.414443 *  -2.87073    1.000000    
    223 O2    s    0.907001 *  0.200857 *  0.979781 *  -2.87073    1.000000    
    224 O2    s    0.794641 *  0.702888 *  0.314521 *  -2.87073    1.000000    
    225 O2    s    0.295797 *  0.088711 *  0.645496 *  -2.87073    1.000000    
    226 O2    s    0.089793 *  0.794503 *  0.480417 *  -2.87073    1.000000    
    227 O2    s    0.210189 *  0.289012 *  0.807220 *  -2.87073    1.000000    
    228 O2    s    0.699420 *  0.910271 *  0.148606 *  -2.87073    1.000000    
    229 O2    s    0.205508 *  0.908168 *  0.350504 *  -2.87073    1.000000    
    230 O3    s    0.692689 *  0.792075 *  0.014737 *  -3.33043    1.000000    
    231 O2    s    0.091198 *  0.293146 *  0.681544 *  -2.87073    1.000000    
    232 O2    s    0.797774 *  0.086403 *  0.846303 *  -2.87073    1.000000    
    233 O2    s    0.295783 *  0.206172 *  0.515236 *  -2.87073    1.000000    
    234 O2    s    0.902322 *  0.707661 *  0.179902 *  -2.87073    1.000000    
    235 O2    s    0.326000 *  0.656182 *  0.248434 *  -2.87073    1.000000    
    236 O2    s    0.343520 *  0.669569 *  0.580871 *  -2.87073    1.000000    
    237 O3    s    0.315208 *  0.678764 *  0.917102 *  -3.33043    1.000000    
    238 O2    s    0.672385 *  0.342230 *  0.746952 *  -2.87073    1.000000    
    239 O3    s    0.626476 *  0.312510 *  0.086592 *  -3.33043    1.000000    
    240 O2    s    0.672183 *  0.329655 *  0.415664 *  -2.87073    1.000000    
    241 O2    s    0.376271 *  0.346186 *  0.959827 *  -2.87073    1.000000    
    242 O2    s    0.659555 *  0.035411 *  0.301737 *  -2.87073    1.000000    
    243 O2    s    0.962785 *  0.621439 *  0.632689 *  -2.87073    1.000000    
    244 O2    s    0.621870 *  0.660084 *  0.466180 *  -2.87073    1.000000    
    245 O2    s    0.341921 *  0.958504 *  0.797187 *  -2.87073    1.000000    
    246 O2    s    0.026182 *  0.379174 *  0.132691 *  -2.87073    1.000000    
    247 O2    s    0.339279 *  0.376033 *  0.362592 *  -2.87073    1.000000    
    248 O2    s    0.026367 *  0.649372 *  0.028714 *  -2.87073    1.000000    
    249 O2    s    0.623651 *  0.962289 *  0.694396 *  -2.87073    1.000000    
    250 O2    s    0.664082 *  0.623706 *  0.861544 *  -2.87073    1.000000    
    251 O2    s    0.962911 *  0.339972 *  0.529467 *  -2.87073    1.000000    
    252 O2    s    0.373189 *  0.036115 *  0.198850 *  -2.87073    1.000000    
    253 O3    s    0.767775 *  0.292462 *  0.007242 *  -3.33043    1.000000    
    254 O2    s    0.688866 *  0.465788 *  0.345781 *  -2.87073    1.000000    
    255 O2    s    0.534205 *  0.220960 *  0.676812 *  -2.87073    1.000000    
    256 O2    s    0.221190 *  0.687161 *  0.511575 *  -2.87073    1.000000    
    257 O3    s    0.303827 *  0.521410 *  0.835967 *  -3.33043    1.000000    
    258 O2    s    0.461293 *  0.778821 *  0.179186 *  -2.87073    1.000000    
    259 O2    s    0.309212 *  0.775377 *  0.318150 *  -2.87073    1.000000    
    260 O2    s    0.463405 *  0.694881 *  0.979917 *  -2.87073    1.000000    
    261 O2    s    0.223917 *  0.531309 *  0.650241 *  -2.87073    1.000000    
    262 O2    s    0.691697 *  0.220448 *  0.815765 *  -2.87073    1.000000    
    263 O2    s    0.533146 *  0.311789 *  0.484307 *  -2.87073    1.000000    
    264 O2    s    0.764413 *  0.468625 *  0.148786 *  -2.87073    1.000000    
    265 O3    s    0.779912 *  0.546279 *  0.023051 *  -3.33043    1.000000    
    266 O2    s    0.467472 *  0.257029 *  0.362402 *  -2.87073    1.000000    
    267 O2    s    0.744259 *  0.210086 *  0.693980 *  -2.87073    1.000000    
    268 O2    s    0.210301 *  0.466379 *  0.528573 *  -2.87073    1.000000    
    269 O3    s    0.560817 *  0.762946 *  0.857192 *  -3.33043    1.000000    
    270 O2    s    0.251408 *  0.788896 *  0.197115 *  -2.87073    1.000000    
    271 O2    s    0.530592 *  0.788920 *  0.301428 *  -2.87073    1.000000    
    272 O2    s    0.257499 *  0.474378 *  0.961620 *  -2.87073    1.000000    
    273 O2    s    0.209863 *  0.739247 *  0.633528 *  -2.87073    1.000000    
    274 O2    s    0.469398 *  0.206386 *  0.799287 *  -2.87073    1.000000    
    275 O2    s    0.741217 *  0.532731 *  0.468056 *  -2.87073    1.000000    
    276 O2    s    0.780729 *  0.262088 *  0.133512 *  -2.87073    1.000000    
    277 O2    s    0.240386 *  0.339763 *  0.891521 *  -2.87073    1.000000    
    278 O2    s    0.664151 *  0.907694 *  0.231545 *  -2.87073    1.000000    
    279 O2    s    0.090808 *  0.757106 *  0.563301 *  -2.87073    1.000000    
    280 O2    s    0.758630 *  0.666510 *  0.397371 *  -2.87073    1.000000    
    281 O2    s    0.334499 *  0.089386 *  0.728308 *  -2.87073    1.000000    
    282 O2    s    0.895447 *  0.238366 *  0.064526 *  -2.87073    1.000000    
    283 O2    s    0.332220 *  0.241663 *  0.432296 *  -2.87073    1.000000    
    284 O2    s    0.892312 *  0.661636 *  0.096334 *  -2.87073    1.000000    
    285 O2    s    0.760559 *  0.089697 *  0.763632 *  -2.87073    1.000000    
    286 O2    s    0.668257 *  0.760336 *  0.931037 *  -2.87073    1.000000    
    287 O2    s    0.091890 *  0.331566 *  0.598841 *  -2.87073    1.000000    
    288 O2    s    0.239362 *  0.908556 *  0.267699 *  -2.87073    1.000000    
    289 O2    s    0.572752 *  0.559278 *  0.980831 *  -2.87073    1.000000    
    290 O2    s    0.441222 *  0.021159 *  0.320902 *  -2.87073    1.000000    
    291 O2    s    0.977323 *  0.416581 *  0.651632 *  -2.87073    1.000000    
    292 O2    s    0.416607 *  0.441505 *  0.484749 *  -2.87073    1.000000    
    293 O2    s    0.561632 *  0.974498 *  0.816501 *  -2.87073    1.000000    
    294 O2    s    0.010278 *  0.580108 *  0.148129 *  -2.87073    1.000000    
    295 O2    s    0.558320 *  0.582696 *  0.344221 *  -2.87073    1.000000    
    296 O2    s    0.014529 *  0.434914 *  0.012182 *  -2.87073    1.000000    
    297 O2    s    0.416650 *  0.973194 *  0.675988 *  -2.87073    1.000000    
    298 O2    s    0.445368 *  0.422662 *  0.841916 *  -2.87073    1.000000    
    299 O2    s    0.974123 *  0.558405 *  0.510750 *  -2.87073    1.000000    
    300 O2    s    0.581000 *  0.026357 *  0.179743 *  -2.87073    1.000000    
    301 O2    s    0.575178 *  0.153376 *  0.251358 *  -2.87073    1.000000    
    302 O2    s    0.844788 *  0.421677 *  0.581414 *  -2.87073    1.000000    
    303 O2    s    0.578532 *  0.427770 *  0.912559 *  -2.87073    1.000000    
    304 O2    s    0.425242 *  0.842288 *  0.746018 *  -2.87073    1.000000    
    305 O2    s    0.143220 *  0.572479 *  0.081988 *  -2.87073    1.000000    
    306 O2    s    0.421108 *  0.576610 *  0.414337 *  -2.87073    1.000000    
    307 F     s    0.448703 *  0.902264 *  0.248084 *  -1.56000    1.000000    
    308 F     s    0.096074 *  0.546304 *  0.580133 *  -1.56000    1.000000    
    309 F     s    0.437602 *  0.583549 *  0.900500 *  -1.56000    1.000000    
    310 F     s    0.552322 *  0.100061 *  0.745221 *  -1.56000    1.000000    
    311 F     s    0.843925 *  0.432591 *  0.069260 *  -1.56000    1.000000    
    312 F     s    0.547751 *  0.451851 *  0.413597 *  -1.56000    1.000000    
--------------------------------------------------------------------------------



********************************************************************************
*  General input information                                                   *
********************************************************************************

  Species output for all configurations : 

--------------------------------------------------------------------------------
  Species    Type    Atomic    Atomic    Charge       Radii (Angs)     Library
                     Number     Mass       (e)     Cova   Ionic  VDW   Symbol
--------------------------------------------------------------------------------
    Si       Core       14      28.09   4.000000   1.200  0.000  2.100          
    O1       Core        8      16.00   1.733957   0.730  0.000  1.360          
    O1       Shell       8       0.00  -3.733957   0.730  0.000  1.360          
    O2       Core        8      16.00   0.870733   0.730  0.000  1.360          
    O2       Shell       8       0.00  -2.870733   0.730  0.000  1.360          
    O3       Core        8      16.00   1.330431   0.730  0.000  1.360          
    O3       Shell       8       0.00  -3.330431   0.730  0.000  1.360          
    F        Core        9      19.00   0.560000   0.710  0.000  1.300          
    F        Shell       9       0.00  -1.560000   0.710  0.000  1.300          
    Ge       Core       32      72.61   4.000000   1.170  0.000  1.750          
--------------------------------------------------------------------------------


  Lattice summation method               =    Ewald          (3-D)
                                         =    Parry          (2-D)
                                         =    Saunders et al (1-D)
  Accuracy factor for lattice sums       =   12.000


  Time limit = Infinity

  Maximum range for interatomic potentials =        16.000000 Angstroms

  Taper potentials to zero over   1.0000 Angstroms using polynomial

  General interatomic potentials :

--------------------------------------------------------------------------------
Atom  Types   Potential         A         B         C         D     Cutoffs(Ang)
  1     2                                                            Min    Max 
--------------------------------------------------------------------------------
Si   c O1   s Buckingham    0.132E+04 0.318      10.1      0.00     0.000 16.000
Si   c O2   s Buckingham    0.132E+04 0.318      10.1      0.00     0.000 16.000
Si   c O3   s Buckingham    0.132E+04 0.318      10.1      0.00     0.000 16.000
Ge   c O1   s Buckingham    0.150E+04 0.326      16.8      0.00     0.000 16.000
Ge   c O2   s Buckingham    0.150E+04 0.326      16.8      0.00     0.000 16.000
Ge   c O3   s Buckingham    0.150E+04 0.326      16.8      0.00     0.000 16.000
O1   s O1   s Buckingham    0.228E+05 0.149      10.9      0.00     0.000 16.000
O1   s O2   s Buckingham    0.228E+05 0.149      10.9      0.00     0.000 16.000
O1   s O3   s Buckingham    0.228E+05 0.149      10.9      0.00     0.000 16.000
O2   s O2   s Buckingham    0.228E+05 0.149      10.9      0.00     0.000 16.000
O2   s O3   s Buckingham    0.228E+05 0.149      10.9      0.00     0.000 16.000
O3   s O3   s Buckingham    0.228E+05 0.149      10.9      0.00     0.000 16.000
Si   c F    s Buckingham     977.     0.282      0.00      0.00     0.000 16.000
Ge   c F    s Buckingham     681.     0.320      0.00      0.00     0.000 16.000
F    s F    s Buckingham     540.     0.262      0.00      0.00     0.000 16.000
O1   s F    s Buckingham    0.168E+04 0.268      0.00      0.00     0.000 16.000
O2   s F    s Buckingham    0.168E+04 0.268      0.00      0.00     0.000 16.000
O3   s F    s Buckingham    0.168E+04 0.268      0.00      0.00     0.000 16.000
O2   c O2   s Spring (c-s)   76.0      0.00      0.00      0.00     0.000  0.800
O3   c O3   s Spring (c-s)   128.      0.00      0.00      0.00     0.000  0.800
O1   c O1   s Spring (c-s)   180.      0.00      0.00      0.00     0.000  0.800
F    c F    s Spring (c-s)   33.5      0.00      0.00      0.00     0.000  0.800
--------------------------------------------------------------------------------

  General Three-body potentials :

  Harmonic form:

--------------------------------------------------------------------------------
Atom    Atom    Atom           Force Constants            Theta     Cutoffs  
  1       2       3     (eVrad**-2/eVrad**-3/eVrad**-4)   (deg)  1-2  1-3  2-3
--------------------------------------------------------------------------------
Si    c O1    s O1    s  1.261        0.0000    0.0000   109.470 0.00 0.00 0.00
                                                                 1.90 1.90 3.50
Si    c O1    s O2    s  1.261        0.0000    0.0000   109.470 0.00 0.00 0.00
                                                                 1.90 1.90 3.50
Si    c O2    s O2    s  1.261        0.0000    0.0000   109.470 0.00 0.00 0.00
                                                                 1.90 1.90 3.50
--------------------------------------------------------------------------------

********************************************************************************
*  Output for configuration   1                                                *
********************************************************************************


  Components of energy : 

--------------------------------------------------------------------------------
  Interatomic potentials     =        2062.83880459 eV
  Three-body potentials      =           0.45170238 eV
  Monopole - monopole (real) =       -6614.29972329 eV
  Monopole - monopole (recip)=       -3169.36878276 eV
  Monopole - monopole (total)=       -9783.66850605 eV
  Neutralising energy        =          -6.45600463 eV
--------------------------------------------------------------------------------
  Total lattice energy       =       -7726.83400372 eV
--------------------------------------------------------------------------------
  Total lattice energy       =         -745521.3659 kJ/(mole unit cells)
--------------------------------------------------------------------------------


  Number of variables =      939

  Maximum number of calculations  =          1000
  Maximum Hessian update interval =            10
  Maximum step size               =   1.000000000
  Maximum parameter tolerance     =   0.000010000
  Maximum function  tolerance     =   0.000010000
  Maximum gradient  tolerance     =   0.001000000
  Maximum gradient  component     =   0.010000000

  Symmetry not applied to optimisation

  Cell parameters to be optimised using strains

  Newton-Raphson optimiser to be used

  BFGS hessian update to be used

  Dumpfile to be written after every cycle

  Start of bulk optimisation :

  Cycle:      0 Energy:     -7726.834004  Gnorm:      0.013674  CPU:    1.059
  ** Hessian calculated **
  Cycle:      1 Energy:     -7726.834375  Gnorm:      0.003153  CPU:    2.647
  Cycle:      2 Energy:     -7726.834617  Gnorm:      0.007015  CPU:    4.375
  Cycle:      3 Energy:     -7726.835872  Gnorm:      0.010519  CPU:    6.773
  Cycle:      4 Energy:     -7726.837879  Gnorm:      0.009399  CPU:    8.836
  Cycle:      5 Energy:     -7726.840518  Gnorm:      0.008601  CPU:   10.899
  Cycle:      6 Energy:     -7726.843597  Gnorm:      0.009060  CPU:   12.961
  Cycle:      7 Energy:     -7726.846200  Gnorm:      0.011320  CPU:   14.689
  Cycle:      8 Energy:     -7726.848567  Gnorm:      0.013775  CPU:   16.416
  Cycle:      9 Energy:     -7726.851348  Gnorm:      0.015361  CPU:   17.809
  Cycle:     10 Energy:     -7726.854250  Gnorm:      0.013161  CPU:   19.202
  ** Hessian calculated **
  Cycle:     11 Energy:     -7726.855372  Gnorm:      0.007291  CPU:   21.615
  Cycle:     12 Energy:     -7726.856367  Gnorm:      0.011143  CPU:   23.007
  Cycle:     13 Energy:     -7726.857920  Gnorm:      0.010117  CPU:   24.400
  Cycle:     14 Energy:     -7726.859106  Gnorm:      0.009817  CPU:   25.934
  Cycle:     15 Energy:     -7726.860220  Gnorm:      0.008952  CPU:   27.327
  Cycle:     16 Energy:     -7726.861109  Gnorm:      0.008469  CPU:   28.721
  Cycle:     17 Energy:     -7726.861816  Gnorm:      0.007510  CPU:   30.114
  Cycle:     18 Energy:     -7726.862351  Gnorm:      0.006654  CPU:   31.507
  Cycle:     19 Energy:     -7726.862855  Gnorm:      0.007320  CPU:   32.900
  Cycle:     20 Energy:     -7726.863325  Gnorm:      0.006893  CPU:   34.292
  ** Hessian calculated **
  Cycle:     21 Energy:     -7726.866228  Gnorm:      0.006788  CPU:   37.874
  Cycle:     22 Energy:     -7726.870752  Gnorm:      0.006620  CPU:   40.271
  Cycle:     23 Energy:     -7726.876337  Gnorm:      0.006406  CPU:   42.333
  Cycle:     24 Energy:     -7726.885474  Gnorm:      0.006038  CPU:   44.730
  Cycle:     25 Energy:     -7726.896505  Gnorm:      0.005558  CPU:   46.792
  Cycle:     26 Energy:     -7726.913395  Gnorm:      0.004726  CPU:   49.189
  Cycle:     27 Energy:     -7726.931203  Gnorm:      0.003657  CPU:   51.251
  Cycle:     28 Energy:     -7726.948462  Gnorm:      0.002255  CPU:   53.314
  Cycle:     29 Energy:     -7726.956605  Gnorm:      0.001108  CPU:   55.042
  Cycle:     30 Energy:     -7726.956774  Gnorm:      0.000120  CPU:   56.434
  ** Hessian calculated **


  **** Optimisation achieved ****


  Final energy =   -7726.95677614 eV
  Final Gnorm  =       0.00000066

  Components of energy : 

--------------------------------------------------------------------------------
  Interatomic potentials     =        2063.19281268 eV
  Three-body potentials      =           0.46021617 eV
  Monopole - monopole (real) =       -6615.44919254 eV
  Monopole - monopole (recip)=       -3168.70595518 eV
  Monopole - monopole (total)=       -9784.15514772 eV
  Neutralising energy        =          -6.45465728 eV
--------------------------------------------------------------------------------
  Total lattice energy       =       -7726.95677614 eV
--------------------------------------------------------------------------------
  Total lattice energy       =         -745533.2115 kJ/(mole unit cells)
--------------------------------------------------------------------------------

  Final fractional coordinates of atoms :

--------------------------------------------------------------------------------
   No.  Atomic        x           y          z          Radius
        Label       (Frac)      (Frac)     (Frac)       (Angs) 
--------------------------------------------------------------------------------
     1  Ge    c     0.699600    0.375700    0.033890    0.000000
     2  Si    c     0.597718    0.308180    0.364673    0.000000
     3  Si    c     0.663167    0.283721    0.695899    0.000000
     4  Si    c     0.277169    0.604175    0.530476    0.000000
     5  Ge    c     0.377872    0.659609    0.864918    0.000000
     6  Si    c     0.297767    0.690186    0.198732    0.000000
     7  Si    c     0.354746    0.686138    0.299092    0.000000
     8  Si    c     0.303470    0.619118    0.962231    0.000000
     9  Si    c     0.283489    0.661251    0.631017    0.000000
    10  Si    c     0.612694    0.286313    0.796266    0.000000
    11  Si    c     0.656137    0.364451    0.465154    0.000000
    12  Si    c     0.662872    0.305828    0.132099    0.000000
    13  Si    c     0.526461    0.413755    0.963241    0.000000
    14  Si    c     0.559203    0.096712    0.300854    0.000000
    15  Si    c     0.872148    0.456135    0.631826    0.000000
    16  Si    c     0.446955    0.565939    0.465124    0.000000
    17  Si    c     0.409473    0.871168    0.797965    0.000000
    18  Si    c     0.086080    0.515842    0.133159    0.000000
    19  Si    c     0.392570    0.511795    0.363422    0.000000
    20  Si    c     0.093618    0.567056    0.030171    0.000000
    21  Si    c     0.458562    0.873675    0.695358    0.000000
    22  Si    c     0.578758    0.465012    0.859900    0.000000
    23  Si    c     0.869432    0.403613    0.530161    0.000000
    24  Si    c     0.502534    0.097563    0.199261    0.000000
    25  Si    c     0.290399    0.389637    0.841283    0.000000
    26  Si    c     0.574381    0.890143    0.183588    0.000000
    27  Si    c     0.075812    0.682068    0.515701    0.000000
    28  Si    c     0.673145    0.583867    0.349509    0.000000
    29  Si    c     0.386448    0.082325    0.680652    0.000000
    30  Si    c     0.881156    0.282286    0.013357    0.000000
    31  Si    c     0.376988    0.286444    0.479116    0.000000
    32  Si    c     0.870434    0.588743    0.143673    0.000000
    33  Si    c     0.690900    0.085667    0.810301    0.000000
    34  Si    c     0.588334    0.696809    0.975219    0.000000
    35  Si    c     0.083311    0.384376    0.645841    0.000000
    36  Si    c     0.278543    0.887742    0.314183    0.000000
    37  Si    c     0.244645    0.340145    0.943943    0.000000
    38  Si    c     0.635241    0.895030    0.284314    0.000000
    39  Si    c     0.072496    0.733267    0.616372    0.000000
    40  Si    c     0.726571    0.644064    0.450111    0.000000
    41  Si    c     0.333586    0.074588    0.781077    0.000000
    42  Si    c     0.880432    0.236551    0.117052    0.000000
    43  Si    c     0.315996    0.234714    0.378334    0.000000
    44  Si    c     0.892802    0.654471    0.041221    0.000000
    45  Si    c     0.737141    0.076865    0.709683    0.000000
    46  Si    c     0.661124    0.749064    0.873619    0.000000
    47  Si    c     0.071046    0.325105    0.545097    0.000000
    48  Si    c     0.224353    0.896493    0.213585    0.000000
    49  Si    c     0.971092    0.119598    0.962037    0.000000
    50  Si    c     0.852363    0.829930    0.298970    0.000000
    51  Si    c     0.135586    0.012644    0.629858    0.000000
    52  Si    c     0.006743    0.862296    0.464803    0.000000
    53  Si    c     0.115169    0.134363    0.794293    0.000000
    54  Si    c     0.822512    0.961299    0.133573    0.000000
    55  Si    c     0.098584    0.954866    0.364165    0.000000
    56  Ge    c     0.840286    0.879468    0.029190    0.000000
    57  Si    c     0.015541    0.135240    0.694418    0.000000
    58  Si    c     0.878478    0.022924    0.861063    0.000000
    59  Si    c     0.130862    0.105954    0.529342    0.000000
    60  Si    c     0.943089    0.834478    0.197608    0.000000
    61  O3    c     0.939934    0.007033    0.996498    0.000000
    62  O2    c     0.976684    0.911192    0.330717    0.000000
    63  O2    c     0.055926    0.057160    0.660837    0.000000
    64  O2    c     0.049442    0.985905    0.496127    0.000000
    65  O2    c     0.000211    0.066338    0.829431    0.000000
    66  O2    c     0.902634    0.919162    0.166818    0.000000
    67  O2    c     0.316074    0.562570    0.330897    0.000000
    68  O2    c     0.408300    0.747382    0.663206    0.000000
    69  O2    c     0.221839    0.644579    0.000579    0.000000
    70  O2    c     0.651685    0.410012    0.828870    0.000000
    71  O2    c     0.551361    0.225305    0.168677    0.000000
    72  O2    c     0.742066    0.326606    0.497856    0.000000
    73  O3    c     0.567287    0.337657    0.996179    0.000000
    74  O2    c     0.747352    0.407412    0.663802    0.000000
    75  O2    c     0.636341    0.221989    0.332972    0.000000
    76  O2    c     0.398870    0.642256    0.497401    0.000000
    77  O2    c     0.209700    0.565504    0.166690    0.000000
    78  O3    c     0.334990    0.752315    0.829555    0.000000
    79  O2    c     0.123815    0.215935    0.965726    0.000000
    80  O2    c     0.762338    0.894426    0.304174    0.000000
    81  O2    c     0.072895    0.859494    0.636125    0.000000
    82  O2    c     0.852532    0.771146    0.469970    0.000000
    83  O2    c     0.204834    0.070206    0.800853    0.000000
    84  O2    c     0.880827    0.114444    0.140085    0.000000
    85  O2    c     0.188615    0.108223    0.358582    0.000000
    86  O3    c     0.916623    0.790875    0.024750    0.000000
    87  O2    c     0.861584    0.075110    0.688847    0.000000
    88  O2    c     0.797670    0.868807    0.857548    0.000000
    89  O2    c     0.068193    0.197808    0.525033    0.000000
    90  O2    c     0.097373    0.896812    0.193217    0.000000
    91  O2    c     0.901445    0.839009    0.248300    0.000000
    92  O2    c     0.120374    0.049309    0.578923    0.000000
    93  O2    c     0.928480    0.064348    0.912028    0.000000
    94  O2    c     0.053919    0.114098    0.744475    0.000000
    95  O3    c     0.843571    0.932072    0.083381    0.000000
    96  O2    c     0.044827    0.913899    0.414151    0.000000
    97  O2    c     0.893095    0.191460    0.976065    0.000000
    98  O2    c     0.770652    0.679799    0.311319    0.000000
    99  O2    c     0.287546    0.082402    0.642032    0.000000
   100  O2    c     0.076689    0.780606    0.477434    0.000000
   101  O2    c     0.200807    0.285907    0.803275    0.000000
   102  O2    c     0.670110    0.889247    0.144964    0.000000
   103  O2    c     0.182268    0.886552    0.352690    0.000000
   104  O3    c     0.679955    0.792320    0.014653    0.000000
   105  O2    c     0.086014    0.287259    0.683874    0.000000
   106  O2    c     0.791736    0.087398    0.848469    0.000000
   107  O2    c     0.282038    0.188352    0.517097    0.000000
   108  O2    c     0.872954    0.685825    0.182180    0.000000
   109  O2    c     0.298909    0.630867    0.248299    0.000000
   110  O2    c     0.338133    0.661169    0.580535    0.000000
   111  O3    c     0.294924    0.674116    0.914376    0.000000
   112  O2    c     0.665779    0.343444    0.745900    0.000000
   113  O3    c     0.602177    0.299734    0.083305    0.000000
   114  O2    c     0.656601    0.308438    0.414842    0.000000
   115  O2    c     0.369377    0.333567    0.960967    0.000000
   116  O2    c     0.646632    0.027312    0.302789    0.000000
   117  O2    c     0.940968    0.611728    0.634592    0.000000
   118  O2    c     0.603476    0.653411    0.467747    0.000000
   119  O2    c     0.324332    0.943865    0.798818    0.000000
   120  O2    c     0.012160    0.360891    0.134773    0.000000
   121  O2    c     0.305000    0.356362    0.359522    0.000000
   122  O2    c     0.023292    0.651937    0.027674    0.000000
   123  O2    c     0.614878    0.944824    0.691215    0.000000
   124  O2    c     0.664155    0.620225    0.857856    0.000000
   125  O2    c     0.937948    0.315938    0.526610    0.000000
   126  O2    c     0.345780    0.027760    0.195087    0.000000
   127  O3    c     0.749906    0.279817    0.002905    0.000000
   128  O2    c     0.672055    0.449687    0.341617    0.000000
   129  O2    c     0.519920    0.215406    0.672337    0.000000
   130  O2    c     0.208850    0.679787    0.507819    0.000000
   131  O3    c     0.285961    0.516444    0.831588    0.000000
   132  O2    c     0.438885    0.757900    0.175106    0.000000
   133  O2    c     0.279082    0.754146    0.320770    0.000000
   134  O2    c     0.453290    0.696027    0.980925    0.000000
   135  O2    c     0.217041    0.518473    0.653054    0.000000
   136  O2    c     0.691160    0.219807    0.818098    0.000000
   137  O2    c     0.512691    0.288558    0.486635    0.000000
   138  O2    c     0.737852    0.454862    0.150619    0.000000
   139  O3    c     0.766109    0.542720    0.018697    0.000000
   140  O2    c     0.441078    0.232854    0.358915    0.000000
   141  O2    c     0.739745    0.204061    0.690364    0.000000
   142  O2    c     0.196918    0.448759    0.525283    0.000000
   143  O3    c     0.547053    0.760957    0.851358    0.000000
   144  O2    c     0.219670    0.768710    0.193789    0.000000
   145  O2    c     0.510852    0.769930    0.303880    0.000000
   146  O2    c     0.242200    0.463884    0.963411    0.000000
   147  O2    c     0.199707    0.733584    0.635745    0.000000
   148  O2    c     0.456855    0.202838    0.801383    0.000000
   149  O2    c     0.728109    0.519600    0.469885    0.000000
   150  O2    c     0.756507    0.242475    0.134271    0.000000
   151  O2    c     0.225009    0.324991    0.889694    0.000000
   152  O2    c     0.649926    0.892540    0.229929    0.000000
   153  O2    c     0.072363    0.751927    0.562028    0.000000
   154  O2    c     0.744664    0.659206    0.395783    0.000000
   155  O2    c     0.313852    0.080050    0.726834    0.000000
   156  O2    c     0.880707    0.218974    0.062768    0.000000
   157  O2    c     0.300917    0.216960    0.432555    0.000000
   158  O2    c     0.875514    0.658334    0.096399    0.000000
   159  O2    c     0.759528    0.079960    0.763973    0.000000
   160  O2    c     0.664841    0.763085    0.929111    0.000000
   161  O2    c     0.076335    0.309401    0.599353    0.000000
   162  O2    c     0.207496    0.894792    0.267852    0.000000
   163  O2    c     0.569264    0.556272    0.982273    0.000000
   164  O2    c     0.418904    0.010682    0.323458    0.000000
   165  O2    c     0.959011    0.400485    0.654536    0.000000
   166  O2    c     0.391820    0.425522    0.487778    0.000000
   167  O2    c     0.552845    0.963117    0.819775    0.000000
   168  O2    c     0.993047    0.567884    0.150703    0.000000
   169  O2    c     0.533186    0.570280    0.340112    0.000000
   170  O2    c     0.006036    0.425453    0.008942    0.000000
   171  O2    c     0.398738    0.956171    0.672212    0.000000
   172  O2    c     0.436497    0.412710    0.838064    0.000000
   173  O2    c     0.949992    0.543589    0.506567    0.000000
   174  O2    c     0.561587    0.016504    0.175272    0.000000
   175  O2    c     0.555670    0.148753    0.250202    0.000000
   176  O2    c     0.817912    0.403651    0.580828    0.000000
   177  O2    c     0.577759    0.420473    0.911811    0.000000
   178  O2    c     0.411873    0.823375    0.746224    0.000000
   179  O2    c     0.136447    0.562630    0.082328    0.000000
   180  O2    c     0.392082    0.564366    0.414077    0.000000
   181  F     c     0.425044    0.887639    0.247294    0.000000
   182  F     c     0.079563    0.532817    0.579490    0.000000
   183  F     c     0.431592    0.570106    0.902123    0.000000
   184  F     c     0.541441    0.089542    0.744517    0.000000
   185  F     c     0.843532    0.428709    0.071460    0.000000
   186  F     c     0.524694    0.435217    0.412893    0.000000
   187  O3    s     0.934492    0.007934    0.995680    0.000000
   188  O2    s     0.976291    0.906919    0.330874    0.000000
   189  O2    s     0.060386    0.060908    0.661112    0.000000
   190  O2    s     0.053667    0.985351    0.496294    0.000000
   191  O2    s     0.999290    0.069116    0.829067    0.000000
   192  O2    s     0.898349    0.914305    0.166619    0.000000
   193  O2    s     0.327870    0.570293    0.330871    0.000000
   194  O2    s     0.400431    0.751218    0.663107    0.000000
   195  O2    s     0.216300    0.633649    0.999876    0.000000
   196  O2    s     0.640217    0.403311    0.828808    0.000000
   197  O2    s     0.557848    0.220430    0.168042    0.000000
   198  O2    s     0.746099    0.338443    0.497726    0.000000
   199  O3    s     0.571852    0.348699    0.995137    0.000000
   200  O2    s     0.751854    0.399987    0.663722    0.000000
   201  O2    s     0.624374    0.217620    0.332830    0.000000
   202  O2    s     0.391538    0.630405    0.497394    0.000000
   203  O2    s     0.205316    0.572708    0.166326    0.000000
   204  O3    s     0.346188    0.758734    0.828622    0.000000
   205  O2    s     0.119899    0.218577    0.963020    0.000000
   206  O2    s     0.758637    0.887631    0.301569    0.000000
   207  O2    s     0.079460    0.862607    0.633450    0.000000
   208  O2    s     0.855790    0.767629    0.467395    0.000000
   209  O2    s     0.208243    0.077626    0.798146    0.000000
   210  O2    s     0.874764    0.111492    0.137019    0.000000
   211  O2    s     0.192150    0.104993    0.361163    0.000000
   212  O3    s     0.907834    0.784377    0.026792    0.000000
   213  O2    s     0.865303    0.081765    0.691565    0.000000
   214  O2    s     0.792340    0.873004    0.859562    0.000000
   215  O2    s     0.075156    0.201102    0.527522    0.000000
   216  O2    s     0.094058    0.890122    0.195769    0.000000
   217  O2    s     0.900685    0.837474    0.248209    0.000000
   218  O2    s     0.123286    0.051687    0.578967    0.000000
   219  O2    s     0.927764    0.066062    0.912055    0.000000
   220  O2    s     0.056509    0.118783    0.744454    0.000000
   221  O3    s     0.840950    0.930733    0.084225    0.000000
   222  O2    s     0.046703    0.912807    0.414109    0.000000
   223  O2    s     0.900202    0.193510    0.978585    0.000000
   224  O2    s     0.769484    0.686099    0.313877    0.000000
   225  O2    s     0.281249    0.074897    0.644635    0.000000
   226  O2    s     0.069126    0.779376    0.479947    0.000000
   227  O2    s     0.200997    0.280379    0.806324    0.000000
   228  O2    s     0.676289    0.896812    0.147668    0.000000
   229  O2    s     0.183391    0.893905    0.349913    0.000000
   230  O3    s     0.684667    0.790477    0.012072    0.000000
   231  O2    s     0.078383    0.281243    0.681114    0.000000
   232  O2    s     0.790855    0.080298    0.845954    0.000000
   233  O2    s     0.275854    0.189786    0.514458    0.000000
   234  O2    s     0.880121    0.691445    0.179788    0.000000
   235  O2    s     0.304486    0.642645    0.248322    0.000000
   236  O2    s     0.326340    0.655325    0.580517    0.000000
   237  O3    s     0.300890    0.667392    0.916410    0.000000
   238  O2    s     0.660102    0.331592    0.745965    0.000000
   239  O3    s     0.614692    0.305225    0.085188    0.000000
   240  O2    s     0.650469    0.314134    0.414781    0.000000
   241  O2    s     0.371529    0.342441    0.959302    0.000000
   242  O2    s     0.636456    0.020610    0.300646    0.000000
   243  O2    s     0.947714    0.608556    0.632390    0.000000
   244  O2    s     0.600336    0.643430    0.465607    0.000000
   245  O2    s     0.333858    0.951060    0.796759    0.000000
   246  O2    s     0.006207    0.364215    0.132755    0.000000
   247  O2    s     0.315073    0.359650    0.361868    0.000000
   248  O2    s     0.017464    0.642997    0.029347    0.000000
   249  O2    s     0.611642    0.951368    0.693580    0.000000
   250  O2    s     0.655032    0.617035    0.859647    0.000000
   251  O2    s     0.944833    0.325938    0.528918    0.000000
   252  O2    s     0.349135    0.021182    0.197449    0.000000
   253  O3    s     0.760535    0.286476    0.006149    0.000000
   254  O2    s     0.664571    0.449236    0.344821    0.000000
   255  O2    s     0.520626    0.208491    0.675643    0.000000
   256  O2    s     0.201846    0.672277    0.511000    0.000000
   257  O3    s     0.292538    0.512361    0.834889    0.000000
   258  O2    s     0.438475    0.764672    0.178425    0.000000
   259  O2    s     0.286824    0.761225    0.317802    0.000000
   260  O2    s     0.452792    0.688587    0.978453    0.000000
   261  O2    s     0.209804    0.518987    0.650014    0.000000
   262  O2    s     0.683127    0.212847    0.815037    0.000000
   263  O2    s     0.513140    0.296179    0.483582    0.000000
   264  O2    s     0.744619    0.454636    0.148068    0.000000
   265  O3    s     0.775315    0.543815    0.022019    0.000000
   266  O2    s     0.443794    0.240896    0.361551    0.000000
   267  O2    s     0.731444    0.198519    0.692991    0.000000
   268  O2    s     0.191574    0.451510    0.527919    0.000000
   269  O3    s     0.548565    0.753003    0.854618    0.000000
   270  O2    s     0.228316    0.774205    0.196375    0.000000
   271  O2    s     0.507958    0.774815    0.301276    0.000000
   272  O2    s     0.248728    0.466199    0.961173    0.000000
   273  O2    s     0.194507    0.725893    0.633167    0.000000
   274  O2    s     0.460055    0.197942    0.798740    0.000000
   275  O2    s     0.720337    0.516985    0.467264    0.000000
   276  O2    s     0.760866    0.248316    0.132137    0.000000
   277  O2    s     0.233561    0.333029    0.890698    0.000000
   278  O2    s     0.640410    0.892547    0.230784    0.000000
   279  O2    s     0.072732    0.742578    0.562867    0.000000
   280  O2    s     0.735215    0.649666    0.396641    0.000000
   281  O2    s     0.323581    0.079761    0.727643    0.000000
   282  O2    s     0.880684    0.226963    0.063673    0.000000
   283  O2    s     0.310485    0.226136    0.431618    0.000000
   284  O2    s     0.876519    0.650426    0.096212    0.000000
   285  O2    s     0.750043    0.080238    0.763049    0.000000
   286  O2    s     0.656553    0.754866    0.928553    0.000000
   287  O2    s     0.076498    0.318886    0.598415    0.000000
   288  O2    s     0.216708    0.894252    0.266893    0.000000
   289  O2    s     0.566841    0.557187    0.979530    0.000000
   290  O2    s     0.418477    0.006247    0.320067    0.000000
   291  O2    s     0.963571    0.404744    0.651215    0.000000
   292  O2    s     0.396171    0.425178    0.484455    0.000000
   293  O2    s     0.553669    0.967697    0.816487    0.000000
   294  O2    s     0.989787    0.564411    0.148054    0.000000
   295  O2    s     0.533602    0.565499    0.343537    0.000000
   296  O2    s     0.002592    0.426101    0.011681    0.000000
   297  O2    s     0.403783    0.961325    0.675516    0.000000
   298  O2    s     0.436776    0.416131    0.840747    0.000000
   299  O2    s     0.955324    0.543969    0.509982    0.000000
   300  O2    s     0.556690    0.011299    0.178630    0.000000
   301  O2    s     0.550410    0.137908    0.250099    0.000000
   302  O2    s     0.828918    0.409076    0.580787    0.000000
   303  O2    s     0.572729    0.424489    0.911558    0.000000
   304  O2    s     0.416654    0.833528    0.745937    0.000000
   305  O2    s     0.126651    0.558115    0.082313    0.000000
   306  O2    s     0.397777    0.559033    0.414044    0.000000
   307  F     s     0.424664    0.887068    0.247084    0.000000
   308  F     s     0.080021    0.533011    0.579334    0.000000
   309  F     s     0.427587    0.577063    0.899453    0.000000
   310  F     s     0.541987    0.090675    0.744355    0.000000
   311  F     s     0.832911    0.424983    0.068733    0.000000
   312  F     s     0.524884    0.434973    0.412722    0.000000
--------------------------------------------------------------------------------

  Final Cartesian lattice vectors (Angstroms) :

       11.924489    0.008011   -0.021596
       -5.963996   10.425199    0.009145
       -0.373860   -0.132286   29.478510


  Final cell parameters and derivatives :

--------------------------------------------------------------------------------
       a           11.924511 Angstrom     dE/de1(xx)    -0.000117 eV/strain
       b           12.010583 Angstrom     dE/de2(yy)     0.000025 eV/strain
       c           29.481177 Angstrom     dE/de3(zz)    -0.000077 eV/strain
       alpha       89.818741 Degrees      dE/de4(yz)     0.000004 eV/strain
       beta        90.830544 Degrees      dE/de5(xz)    -0.000072 eV/strain
       gamma      119.734331 Degrees      dE/de6(xy)     0.000023 eV/strain
--------------------------------------------------------------------------------

  Primitive cell volume =          3665.947761 Angs**3

  Density of cell =      1.745276 g/cm**3

  Non-primitive cell volume =          3665.947761 Angs**3


  Final internal derivatives :

--------------------------------------------------------------------------------
   No.  Atomic          a             b             c           Radius
        Label          (eV)          (eV)          (eV)        (eV/Angs)
--------------------------------------------------------------------------------
      1 Ge    c       0.000000      0.000000      0.000000      0.000000
      2 Si    c       0.000002     -0.000002      0.000056      0.000000
      3 Si    c      -0.000005     -0.000003      0.000015      0.000000
      4 Si    c      -0.000013      0.000018      0.000016      0.000000
      5 Ge    c      -0.000008      0.000007      0.000015      0.000000
      6 Si    c      -0.000006     -0.000001      0.000020      0.000000
      7 Si    c       0.000003     -0.000009     -0.000018      0.000000
      8 Si    c       0.000003      0.000009     -0.000042      0.000000
      9 Si    c      -0.000002      0.000012      0.000008      0.000000
     10 Si    c       0.000012     -0.000013     -0.000016      0.000000
     11 Si    c       0.000022     -0.000018      0.000013      0.000000
     12 Si    c       0.000010     -0.000006     -0.000044      0.000000
     13 Si    c       0.000012     -0.000021      0.000021      0.000000
     14 Si    c       0.000003      0.000001     -0.000044      0.000000
     15 Si    c       0.000014     -0.000017     -0.000018      0.000000
     16 Si    c      -0.000000      0.000000     -0.000045      0.000000
     17 Si    c      -0.000000      0.000009     -0.000002      0.000000
     18 Si    c       0.000009      0.000010      0.000021      0.000000
     19 Si    c      -0.000014      0.000022     -0.000010      0.000000
     20 Si    c      -0.000010      0.000009      0.000036      0.000000
     21 Si    c      -0.000009      0.000010      0.000005      0.000000
     22 Si    c      -0.000009     -0.000007      0.000028      0.000000
     23 Si    c      -0.000010     -0.000007     -0.000020      0.000000
     24 Si    c       0.000001     -0.000002      0.000034      0.000000
     25 Si    c       0.000010     -0.000011      0.000007      0.000000
     26 Si    c       0.000009     -0.000001      0.000037      0.000000
     27 Si    c       0.000001      0.000010     -0.000013      0.000000
     28 Si    c      -0.000008      0.000011      0.000033      0.000000
     29 Si    c      -0.000022      0.000005     -0.000027      0.000000
     30 Si    c      -0.000025      0.000008      0.000024      0.000000
     31 Si    c       0.000006     -0.000009     -0.000035      0.000000
     32 Si    c       0.000013      0.000001     -0.000028      0.000000
     33 Si    c       0.000024     -0.000015      0.000048      0.000000
     34 Si    c       0.000003      0.000007      0.000004      0.000000
     35 Si    c      -0.000005     -0.000006      0.000006      0.000000
     36 Si    c      -0.000009      0.000004     -0.000049      0.000000
     37 Si    c       0.000028     -0.000019     -0.000025      0.000000
     38 Si    c       0.000019     -0.000010     -0.000026      0.000000
     39 Si    c       0.000019     -0.000010     -0.000023      0.000000
     40 Si    c       0.000002     -0.000001     -0.000028      0.000000
     41 Si    c      -0.000003     -0.000002     -0.000024      0.000000
     42 Si    c      -0.000009     -0.000001     -0.000010      0.000000
     43 Si    c      -0.000001      0.000002      0.000031      0.000000
     44 Si    c      -0.000008      0.000012      0.000003      0.000000
     45 Si    c      -0.000003      0.000006      0.000029      0.000000
     46 Si    c      -0.000022      0.000010      0.000020      0.000000
     47 Si    c      -0.000018      0.000007      0.000024      0.000000
     48 Si    c      -0.000019      0.000007      0.000020      0.000000
     49 Si    c      -0.000024      0.000122     -0.000023      0.000000
     50 Si    c       0.000000      0.000012      0.000025      0.000000
     51 Si    c       0.000013      0.000005     -0.000021      0.000000
     52 Si    c       0.000011     -0.000011     -0.000006      0.000000
     53 Si    c       0.000025     -0.000018     -0.000080      0.000000
     54 Si    c      -0.000014     -0.000004      0.000196      0.000000
     55 Si    c      -0.000015     -0.000005     -0.000017      0.000000
     56 Ge    c      -0.000008     -0.000134     -0.000051      0.000000
     57 Si    c      -0.000001     -0.000000      0.000043      0.000000
     58 Si    c      -0.000057      0.000061     -0.000177      0.000000
     59 Si    c      -0.000003     -0.000001      0.000018      0.000000
     60 Si    c       0.000001      0.000011     -0.000009      0.000000
     61 O3    c       0.000111     -0.000051      0.000115      0.000000
     62 O2    c       0.000007     -0.000005      0.000010      0.000000
     63 O2    c      -0.000000      0.000001      0.000002      0.000000
     64 O2    c       0.000000      0.000001      0.000005      0.000000
     65 O2    c       0.000004     -0.000013      0.000027      0.000000
     66 O2    c      -0.000007      0.000006     -0.000018      0.000000
     67 O2    c       0.000015     -0.000010      0.000022      0.000000
     68 O2    c      -0.000008     -0.000003     -0.000020      0.000000
     69 O2    c      -0.000001      0.000003      0.000006      0.000000
     70 O2    c      -0.000000      0.000002      0.000007      0.000000
     71 O2    c      -0.000002     -0.000002     -0.000000      0.000000
     72 O2    c      -0.000006      0.000016     -0.000006      0.000000
     73 O3    c       0.000003      0.000019     -0.000007      0.000000
     74 O2    c      -0.000002      0.000000      0.000001      0.000000
     75 O2    c       0.000002     -0.000005     -0.000006      0.000000
     76 O2    c       0.000001     -0.000001     -0.000001      0.000000
     77 O2    c      -0.000014      0.000003     -0.000025      0.000000
     78 O3    c       0.000004     -0.000009      0.000006      0.000000
     79 O2    c       0.000015     -0.000008      0.000037      0.000000
     80 O2    c      -0.000011      0.000002     -0.000018      0.000000
     81 O2    c      -0.000001      0.000000      0.000004      0.000000
     82 O2    c      -0.000001     -0.000003     -0.000003      0.000000
     83 O2    c      -0.000012      0.000012     -0.000004      0.000000
     84 O2    c      -0.000006      0.000025     -0.000002      0.000000
     85 O2    c       0.000002      0.000007      0.000000      0.000000
     86 O3    c      -0.000012      0.000013      0.000024      0.000000
     87 O2    c       0.000009     -0.000000      0.000001      0.000000
     88 O2    c       0.000004     -0.000062     -0.000011      0.000000
     89 O2    c       0.000008     -0.000010     -0.000002      0.000000
     90 O2    c       0.000013     -0.000009      0.000015      0.000000
     91 O2    c       0.000004     -0.000002     -0.000027      0.000000
     92 O2    c       0.000004     -0.000004      0.000028      0.000000
     93 O2    c       0.000013     -0.000048     -0.000035      0.000000
     94 O2    c      -0.000004      0.000006     -0.000016      0.000000
     95 O3    c       0.000018      0.000055      0.000128      0.000000
     96 O2    c       0.000000     -0.000002      0.000012      0.000000
     97 O2    c      -0.000020      0.000006     -0.000024      0.000000
     98 O2    c      -0.000001     -0.000004      0.000003      0.000000
     99 O2    c       0.000008     -0.000009      0.000040      0.000000
    100 O2    c      -0.000007      0.000002      0.000017      0.000000
    101 O2    c       0.000002      0.000023      0.000019      0.000000
    102 O2    c       0.000000      0.000003     -0.000009      0.000000
    103 O2    c      -0.000003      0.000004      0.000004      0.000000
    104 O3    c      -0.000032     -0.000001      0.000002      0.000000
    105 O2    c      -0.000005      0.000012     -0.000024      0.000000
    106 O2    c      -0.000007     -0.000003     -0.000022      0.000000
    107 O2    c       0.000000      0.000000      0.000002      0.000000
    108 O2    c       0.000001     -0.000006     -0.000005      0.000000
    109 O2    c      -0.000000      0.000010      0.000005      0.000000
    110 O2    c      -0.000004     -0.000003     -0.000028      0.000000
    111 O3    c       0.000008     -0.000014      0.000062      0.000000
    112 O2    c      -0.000000     -0.000006      0.000006      0.000000
    113 O3    c       0.000005     -0.000010      0.000093      0.000000
    114 O2    c      -0.000012      0.000009     -0.000036      0.000000
    115 O2    c      -0.000014      0.000010     -0.000012      0.000000
    116 O2    c      -0.000010      0.000011      0.000004      0.000000
    117 O2    c      -0.000002      0.000002      0.000002      0.000000
    118 O2    c      -0.000002     -0.000002     -0.000002      0.000000
    119 O2    c       0.000006     -0.000001     -0.000006      0.000000
    120 O2    c       0.000002     -0.000001      0.000009      0.000000
    121 O2    c       0.000003     -0.000010      0.000004      0.000000
    122 O2    c       0.000012     -0.000010     -0.000003      0.000000
    123 O2    c      -0.000004      0.000002      0.000002      0.000000
    124 O2    c       0.000002     -0.000002     -0.000006      0.000000
    125 O2    c       0.000012     -0.000001      0.000016      0.000000
    126 O2    c       0.000008      0.000002     -0.000006      0.000000
    127 O3    c       0.000028     -0.000013      0.000002      0.000000
    128 O2    c       0.000001     -0.000001     -0.000002      0.000000
    129 O2    c       0.000015      0.000003      0.000012      0.000000
    130 O2    c       0.000006     -0.000011      0.000020      0.000000
    131 O3    c      -0.000002      0.000002     -0.000005      0.000000
    132 O2    c      -0.000000      0.000001     -0.000001      0.000000
    133 O2    c       0.000000      0.000001     -0.000002      0.000000
    134 O2    c      -0.000009      0.000002     -0.000001      0.000000
    135 O2    c       0.000001      0.000000      0.000001      0.000000
    136 O2    c      -0.000015      0.000015     -0.000012      0.000000
    137 O2    c      -0.000012      0.000006      0.000000      0.000000
    138 O2    c      -0.000000     -0.000001      0.000006      0.000000
    139 O3    c       0.000003     -0.000004     -0.000007      0.000000
    140 O2    c       0.000005      0.000000      0.000001      0.000000
    141 O2    c      -0.000002     -0.000002      0.000007      0.000000
    142 O2    c       0.000001     -0.000001     -0.000004      0.000000
    143 O3    c       0.000038     -0.000001     -0.000009      0.000000
    144 O2    c       0.000010     -0.000012     -0.000005      0.000000
    145 O2    c      -0.000008     -0.000003      0.000005      0.000000
    146 O2    c      -0.000003      0.000005      0.000012      0.000000
    147 O2    c      -0.000011      0.000002     -0.000018      0.000000
    148 O2    c      -0.000001     -0.000001     -0.000000      0.000000
    149 O2    c      -0.000002      0.000010     -0.000001      0.000000
    150 O2    c      -0.000008      0.000007     -0.000004      0.000000
    151 O2    c       0.000007      0.000002      0.000031      0.000000
    152 O2    c      -0.000015      0.000007     -0.000024      0.000000
    153 O2    c       0.000001     -0.000004      0.000028      0.000000
    154 O2    c      -0.000005     -0.000006      0.000002      0.000000
    155 O2    c       0.000003     -0.000002      0.000047      0.000000
    156 O2    c      -0.000010      0.000015     -0.000036      0.000000
    157 O2    c       0.000006      0.000006     -0.000001      0.000000
    158 O2    c       0.000006     -0.000005      0.000042      0.000000
    159 O2    c      -0.000004      0.000002     -0.000041      0.000000
    160 O2    c      -0.000002     -0.000002     -0.000032      0.000000
    161 O2    c      -0.000002      0.000004     -0.000031      0.000000
    162 O2    c       0.000015     -0.000009      0.000024      0.000000
    163 O2    c      -0.000002      0.000005      0.000002      0.000000
    164 O2    c      -0.000002     -0.000001      0.000003      0.000000
    165 O2    c      -0.000010      0.000011     -0.000023      0.000000
    166 O2    c      -0.000000      0.000004     -0.000001      0.000000
    167 O2    c      -0.000009     -0.000005     -0.000003      0.000000
    168 O2    c      -0.000013      0.000008     -0.000002      0.000000
    169 O2    c       0.000013     -0.000005      0.000002      0.000000
    170 O2    c       0.000001      0.000001     -0.000009      0.000000
    171 O2    c       0.000013     -0.000015      0.000017      0.000000
    172 O2    c       0.000006      0.000000      0.000017      0.000000
    173 O2    c      -0.000001      0.000000     -0.000003      0.000000
    174 O2    c       0.000002     -0.000003     -0.000003      0.000000
    175 O2    c       0.000001     -0.000011      0.000007      0.000000
    176 O2    c       0.000004      0.000003      0.000025      0.000000
    177 O2    c      -0.000004      0.000007     -0.000027      0.000000
    178 O2    c      -0.000001      0.000005     -0.000005      0.000000
    179 O2    c      -0.000005      0.000003     -0.000034      0.000000
    180 O2    c       0.000010     -0.000007      0.000034      0.000000
    181 F     c      -0.000000     -0.000000     -0.000002      0.000000
    182 F     c       0.000000      0.000000      0.000001      0.000000
    183 F     c      -0.000005      0.000006     -0.000005      0.000000
    184 F     c      -0.000000      0.000001      0.000001      0.000000
    185 F     c      -0.000006      0.000002     -0.000026      0.000000
    186 F     c       0.000000     -0.000000      0.000001      0.000000
    187 O3    s      -0.000019     -0.000016      0.000009      0.000000
    188 O2    s      -0.000002      0.000001      0.000003      0.000000
    189 O2    s       0.000001      0.000000      0.000000      0.000000
    190 O2    s       0.000002     -0.000002     -0.000002      0.000000
    191 O2    s       0.000012      0.000009     -0.000076      0.000000
    192 O2    s       0.000004     -0.000008      0.000036      0.000000
    193 O2    s      -0.000004      0.000004     -0.000007      0.000000
    194 O2    s      -0.000002      0.000006      0.000005      0.000000
    195 O2    s      -0.000000      0.000001     -0.000002      0.000000
    196 O2    s      -0.000006      0.000002     -0.000001      0.000000
    197 O2    s       0.000004     -0.000000      0.000006      0.000000
    198 O2    s       0.000003     -0.000007      0.000003      0.000000
    199 O3    s      -0.000008     -0.000004     -0.000005      0.000000
    200 O2    s       0.000006     -0.000005      0.000002      0.000000
    201 O2    s      -0.000005      0.000003     -0.000005      0.000000
    202 O2    s      -0.000002      0.000000     -0.000004      0.000000
    203 O2    s       0.000004     -0.000001      0.000009      0.000000
    204 O3    s      -0.000008      0.000009     -0.000015      0.000000
    205 O2    s       0.000025      0.000037     -0.000019      0.000000
    206 O2    s       0.000003      0.000001     -0.000001      0.000000
    207 O2    s       0.000002     -0.000001     -0.000010      0.000000
    208 O2    s       0.000001      0.000000     -0.000009      0.000000
    209 O2    s       0.000011     -0.000009     -0.000013      0.000000
    210 O2    s      -0.000001      0.000005      0.000002      0.000000
    211 O2    s       0.000002     -0.000004      0.000013      0.000000
    212 O3    s       0.000022     -0.000034     -0.000038      0.000000
    213 O2    s      -0.000002     -0.000001      0.000012      0.000000
    214 O2    s      -0.000007     -0.000018     -0.000009      0.000000
    215 O2    s      -0.000001      0.000004      0.000012      0.000000
    216 O2    s      -0.000003      0.000001      0.000011      0.000000
    217 O2    s      -0.000002      0.000002      0.000012      0.000000
    218 O2    s      -0.000000      0.000002     -0.000008      0.000000
    219 O2    s      -0.000007      0.000010     -0.000081      0.000000
    220 O2    s      -0.000002     -0.000005     -0.000032      0.000000
    221 O3    s      -0.000002     -0.000010     -0.000009      0.000000
    222 O2    s       0.000000     -0.000000     -0.000005      0.000000
    223 O2    s      -0.000026      0.000055      0.000081      0.000000
    224 O2    s      -0.000000      0.000000      0.000010      0.000000
    225 O2    s      -0.000006      0.000004     -0.000013      0.000000
    226 O2    s       0.000001      0.000002     -0.000003      0.000000
    227 O2    s       0.000007      0.000000      0.000018      0.000000
    228 O2    s      -0.000005     -0.000007      0.000041      0.000000
    229 O2    s      -0.000001      0.000000     -0.000016      0.000000
    230 O3    s      -0.000008     -0.000018     -0.000021      0.000000
    231 O2    s      -0.000002     -0.000004     -0.000003      0.000000
    232 O2    s      -0.000017      0.000026     -0.000057      0.000000
    233 O2    s      -0.000004      0.000002     -0.000018      0.000000
    234 O2    s      -0.000001      0.000000     -0.000011      0.000000
    235 O2    s      -0.000000     -0.000003     -0.000002      0.000000
    236 O2    s      -0.000004      0.000003      0.000007      0.000000
    237 O3    s       0.000004      0.000002     -0.000025      0.000000
    238 O2    s       0.000001      0.000002     -0.000003      0.000000
    239 O3    s       0.000006      0.000004     -0.000045      0.000000
    240 O2    s       0.000000      0.000000      0.000010      0.000000
    241 O2    s       0.000004     -0.000001     -0.000005      0.000000
    242 O2    s      -0.000001     -0.000002     -0.000014      0.000000
    243 O2    s       0.000005     -0.000004     -0.000004      0.000000
    244 O2    s      -0.000000     -0.000000     -0.000008      0.000000
    245 O2    s      -0.000001      0.000002     -0.000004      0.000000
    246 O2    s      -0.000001      0.000002     -0.000013      0.000000
    247 O2    s       0.000006      0.000002      0.000015      0.000000
    248 O2    s       0.000005      0.000002     -0.000005      0.000000
    249 O2    s       0.000000      0.000000      0.000005      0.000000
    250 O2    s      -0.000007      0.000004      0.000010      0.000000
    251 O2    s      -0.000004      0.000001      0.000003      0.000000
    252 O2    s       0.000002     -0.000006      0.000022      0.000000
    253 O3    s      -0.000017      0.000009      0.000034      0.000000
    254 O2    s      -0.000003      0.000002      0.000009      0.000000
    255 O2    s      -0.000001     -0.000006      0.000012      0.000000
    256 O2    s      -0.000002      0.000004      0.000002      0.000000
    257 O3    s       0.000015     -0.000012      0.000037      0.000000
    258 O2    s       0.000000     -0.000000      0.000013      0.000000
    259 O2    s      -0.000000      0.000000     -0.000009      0.000000
    260 O2    s       0.000000     -0.000003     -0.000012      0.000000
    261 O2    s      -0.000008      0.000004     -0.000021      0.000000
    262 O2    s       0.000002     -0.000004     -0.000015      0.000000
    263 O2    s       0.000001      0.000002     -0.000016      0.000000
    264 O2    s      -0.000001      0.000001     -0.000011      0.000000
    265 O3    s      -0.000006     -0.000008      0.000016      0.000000
    266 O2    s      -0.000002      0.000002      0.000009      0.000000
    267 O2    s      -0.000001      0.000000      0.000002      0.000000
    268 O2    s      -0.000002      0.000002      0.000008      0.000000
    269 O3    s      -0.000010     -0.000016      0.000048      0.000000
    270 O2    s       0.000001      0.000005      0.000023      0.000000
    271 O2    s      -0.000004      0.000007     -0.000020      0.000000
    272 O2    s       0.000001     -0.000001     -0.000016      0.000000
    273 O2    s       0.000003     -0.000002     -0.000002      0.000000
    274 O2    s       0.000004     -0.000002     -0.000010      0.000000
    275 O2    s      -0.000007     -0.000001     -0.000021      0.000000
    276 O2    s      -0.000001     -0.000002      0.000010      0.000000
    277 O2    s      -0.000011      0.000000     -0.000024      0.000000
    278 O2    s       0.000001      0.000000      0.000007      0.000000
    279 O2    s       0.000004     -0.000003     -0.000005      0.000000
    280 O2    s       0.000000      0.000001     -0.000001      0.000000
    281 O2    s       0.000007     -0.000002     -0.000014      0.000000
    282 O2    s       0.000015     -0.000020      0.000010      0.000000
    283 O2    s      -0.000002     -0.000003     -0.000001      0.000000
    284 O2    s      -0.000003     -0.000002      0.000023      0.000000
    285 O2    s      -0.000004      0.000001      0.000001      0.000000
    286 O2    s       0.000012      0.000002     -0.000007      0.000000
    287 O2    s      -0.000002      0.000002      0.000008      0.000000
    288 O2    s      -0.000002      0.000001     -0.000007      0.000000
    289 O2    s       0.000001     -0.000003     -0.000006      0.000000
    290 O2    s       0.000001      0.000000     -0.000014      0.000000
    291 O2    s       0.000004     -0.000004     -0.000001      0.000000
    292 O2    s      -0.000000     -0.000002     -0.000011      0.000000
    293 O2    s      -0.000002      0.000008     -0.000029      0.000000
    294 O2    s      -0.000000     -0.000002     -0.000016      0.000000
    295 O2    s      -0.000002     -0.000003      0.000019      0.000000
    296 O2    s       0.000007     -0.000005      0.000011      0.000000
    297 O2    s      -0.000001      0.000005      0.000006      0.000000
    298 O2    s      -0.000003      0.000003      0.000001      0.000000
    299 O2    s       0.000007     -0.000004      0.000026      0.000000
    300 O2    s      -0.000000     -0.000001      0.000020      0.000000
    301 O2    s       0.000001      0.000005      0.000001      0.000000
    302 O2    s       0.000004     -0.000003     -0.000008      0.000000
    303 O2    s      -0.000003      0.000002     -0.000001      0.000000
    304 O2    s       0.000003     -0.000002     -0.000002      0.000000
    305 O2    s      -0.000001     -0.000002      0.000012      0.000000
    306 O2    s       0.000000     -0.000001     -0.000012      0.000000
    307 F     s      -0.000000     -0.000000      0.000004      0.000000
    308 F     s      -0.000000     -0.000000     -0.000003      0.000000
    309 F     s      -0.000001     -0.000003     -0.000019      0.000000
    310 F     s       0.000000     -0.000001     -0.000003      0.000000
    311 F     s      -0.000008      0.000001     -0.000003      0.000000
    312 F     s      -0.000000      0.000001     -0.000002      0.000000
--------------------------------------------------------------------------------
  Maximum abs         0.000111      0.000134      0.000196      0.000000
--------------------------------------------------------------------------------


  Time to end of optimisation =      58.8293 seconds


  Peak dynamic memory used =      19.13 MB 


  Timing analysis for GULP :

--------------------------------------------------------------------------------
  Task / Subroutine                                          Time (Seconds)
--------------------------------------------------------------------------------
  Calculation of reciprocal space energy and derivatives          1.8891
  Calculation of real space energy and derivatives               49.8706
  Calculation of three-body energy and derivatives                5.9552
  Calculation of matrix inversion                                 0.7911
--------------------------------------------------------------------------------
  Total CPU time                                                 58.8294
--------------------------------------------------------------------------------


  Dump file written as out.res                                                 
  CIF file written as out.cif                                                 


  Job Finished at 22:41.00  3rd December   2016                               

