********************************************************************************
*                       GENERAL UTILITY LATTICE PROGRAM                        *
*                                 Julian Gale                                  *
*                      Nanochemistry Research Institute                        *
*                           Department of Chemistry                            *
*                    Curtin University, Western Australia                      *
********************************************************************************
* Version = 4.2.0 * Last modified =  20th January 2014                         *
********************************************************************************
*  optimise     - perform optimisation run                                     *
*  conp         - constant pressure calculation                                *
*  qok          - running with non charge neutral cell is OK                   *
********************************************************************************

  Job Started  at 20:42.54  3rd December   2016                               

  Number of CPUs =     1


  Total number of configurations input =   1

********************************************************************************
*  Input for Configuration =   1                                               *
********************************************************************************

  Formula = Ge3Si57O120F6                                               

  Number of irreducible atoms/shells =     312


  Total number atoms/shells =     312

  Dimensionality = 3               :  Bulk   


  Charge on solid   =  -6.000000 =>neutralising background added


  Cartesian lattice vectors (Angstroms) :

       11.954619    0.000000    0.000000
       -5.995259   10.375213    0.000000
        0.105775   -0.204936   29.487502

  Cell parameters (Angstroms/Degrees):

  a =      11.9546    alpha =  90.4476
  b =      11.9828    beta  =  89.7945
  c =      29.4884    gamma = 120.0212

  Initial cell volume =        3657.385468 Angs**3

  Temperature of configuration =  0.000     K 

  Pressure of configuration =         0.000 GPa 

  Fractional coordinates of asymmetric unit :

--------------------------------------------------------------------------------
   No.  Atomic       x           y          z         Charge      Occupancy
        Label      (Frac)      (Frac)     (Frac)        (e)         (Frac)  
--------------------------------------------------------------------------------
      1 Ge    c    0.699600    0.375700    0.033890     4.00000    1.000000    
      2 Si    c    0.621864 *  0.321098 *  0.364819 *   4.00000    1.000000    
      3 Si    c    0.677500 *  0.302107 *  0.697751 *   4.00000    1.000000    
      4 Si    c    0.291034 *  0.618261 *  0.525286 *   4.00000    1.000000    
      5 Si    c    0.370107 *  0.691650 *  0.859704 *   4.00000    1.000000    
      6 Si    c    0.320117 *  0.702031 *  0.194935 *   4.00000    1.000000    
      7 Si    c    0.375557 *  0.697307 *  0.295215 *   4.00000    1.000000    
      8 Ge    c    0.329413 *  0.619180 *  0.957900 *   4.00000    1.000000    
      9 Si    c    0.297883 *  0.677308 *  0.625672 *   4.00000    1.000000    
     10 Si    c    0.619687 *  0.301100 *  0.799750 *   4.00000    1.000000    
     11 Si    c    0.672708 *  0.381105 *  0.465229 *   4.00000    1.000000    
     12 Si    c    0.686716 *  0.318494 *  0.132546 *   4.00000    1.000000    
     13 Si    c    0.527028 *  0.420486 *  0.967960 *   4.00000    1.000000    
     14 Si    c    0.581896 *  0.106617 *  0.301654 *   4.00000    1.000000    
     15 Si    c    0.888488 *  0.472852 *  0.631839 *   4.00000    1.000000    
     16 Si    c    0.465642 *  0.582103 *  0.460902 *   4.00000    1.000000    
     17 Ge    c    0.431313 *  0.907757 *  0.790590 *   4.00000    1.000000    
     18 Si    c    0.109222 *  0.531865 *  0.127523 *   4.00000    1.000000    
     19 Si    c    0.415794 *  0.526141 *  0.359360 *   4.00000    1.000000    
     20 Si    c    0.109188 *  0.580104 *  0.023649 *   4.00000    1.000000    
     21 Si    c    0.469679 *  0.881272 *  0.691579 *   4.00000    1.000000    
     22 Si    c    0.577823 *  0.474665 *  0.864823 *   4.00000    1.000000    
     23 Si    c    0.881241 *  0.416920 *  0.530352 *   4.00000    1.000000    
     24 Si    c    0.529834 *  0.112133 *  0.200608 *   4.00000    1.000000    
     25 Si    c    0.292249 *  0.405505 *  0.850718 *   4.00000    1.000000    
     26 Si    c    0.600964 *  0.903937 *  0.182782 *   4.00000    1.000000    
     27 Si    c    0.089493 *  0.696623 *  0.514019 *   4.00000    1.000000    
     28 Si    c    0.698172 *  0.597433 *  0.347941 *   4.00000    1.000000    
     29 Si    c    0.396686 *  0.095837 *  0.681023 *   4.00000    1.000000    
     30 Si    c    0.889765 *  0.292857 *  0.011225 *   4.00000    1.000000    
     31 Si    c    0.393264 *  0.303366 *  0.477846 *   4.00000    1.000000    
     32 Si    c    0.893956 *  0.602561 *  0.142120 *   4.00000    1.000000    
     33 Si    c    0.703056 *  0.099951 *  0.816061 *   4.00000    1.000000    
     34 Si    c    0.600444 *  0.708180 *  0.982179 *   4.00000    1.000000    
     35 Si    c    0.097927 *  0.401341 *  0.643704 *   4.00000    1.000000    
     36 Si    c    0.299994 *  0.897955 *  0.313382 *   4.00000    1.000000    
     37 Si    c    0.241950 *  0.338621 *  0.952382 *   4.00000    1.000000    
     38 Si    c    0.658087 *  0.905561 *  0.283284 *   4.00000    1.000000    
     39 Si    c    0.088734 *  0.750783 *  0.614898 *   4.00000    1.000000    
     40 Si    c    0.745224 *  0.660439 *  0.448467 *   4.00000    1.000000    
     41 Si    c    0.332385 *  0.088704 *  0.782954 *   4.00000    1.000000    
     42 Si    c    0.902576 *  0.250009 *  0.113972 *   4.00000    1.000000    
     43 Si    c    0.339124 *  0.248659 *  0.377069 *   4.00000    1.000000    
     44 Si    c    0.901886 *  0.657523 *  0.039800 *   4.00000    1.000000    
     45 Si    c    0.748457 *  0.087466 *  0.712820 *   4.00000    1.000000    
     46 Si    c    0.654138 *  0.755890 *  0.879017 *   4.00000    1.000000    
     47 Si    c    0.082743 *  0.338859 *  0.543089 *   4.00000    1.000000    
     48 Si    c    0.249434 *  0.910960 *  0.213205 *   4.00000    1.000000    
     49 Si    c    0.970654 *  0.116246 *  0.964364 *   4.00000    1.000000    
     50 Si    c    0.877266 *  0.844523 *  0.297803 *   4.00000    1.000000    
     51 Si    c    0.150008 *  0.031175 *  0.630380 *   4.00000    1.000000    
     52 Si    c    0.024613 *  0.878504 *  0.463804 *   4.00000    1.000000    
     53 Si    c    0.118802 *  0.159166 *  0.797552 *   4.00000    1.000000    
     54 Si    c    0.850501 *  0.974921 *  0.132223 *   4.00000    1.000000    
     55 Si    c    0.120634 *  0.968121 *  0.363047 *   4.00000    1.000000    
     56 Si    c    0.854153 *  0.881618 *  0.031662 *   4.00000    1.000000    
     57 Si    c    0.030532 *  0.156229 *  0.695720 *   4.00000    1.000000    
     58 Si    c    0.880863 *  0.030885 *  0.863603 *   4.00000    1.000000    
     59 Si    c    0.146421 *  0.122352 *  0.529421 *   4.00000    1.000000    
     60 Si    c    0.970652 *  0.851892 *  0.196191 *   4.00000    1.000000    
     61 O2    c    0.928033 *  0.002763 *  0.999570 *   0.87073    1.000000    
     62 O2    c    0.999067 *  0.925931 *  0.330389 *   0.87073    1.000000    
     63 O2    c    0.071380 *  0.072482 *  0.664198 *   0.87073    1.000000    
     64 O2    c    0.067639 *  0.998550 *  0.497552 *   0.87073    1.000000    
     65 O2    c    0.998634 *  0.069217 *  0.829297 *   0.87073    1.000000    
     66 O2    c    0.932256 *  0.939232 *  0.166447 *   0.87073    1.000000    
     67 O2    c    0.338408 *  0.571926 *  0.326318 *   0.87073    1.000000    
     68 O2    c    0.428792 *  0.767473 *  0.654000 *   0.87073    1.000000    
     69 O3    c    0.230362 *  0.656763 *  0.993198 *   1.33043    1.000000    
     70 O2    c    0.652989 *  0.423842 *  0.831912 *   0.87073    1.000000    
     71 O2    c    0.579251 *  0.241135 *  0.171253 *   0.87073    1.000000    
     72 O2    c    0.753773 *  0.341172 *  0.498916 *   0.87073    1.000000    
     73 O3    c    0.566936 *  0.339432 *  0.998740 *   1.33043    1.000000    
     74 O2    c    0.764334 *  0.423844 *  0.665559 *   0.87073    1.000000    
     75 O2    c    0.660032 *  0.231843 *  0.334371 *   0.87073    1.000000    
     76 O2    c    0.412674 *  0.658295 *  0.491897 *   0.87073    1.000000    
     77 O2    c    0.234228 *  0.582784 *  0.160516 *   0.87073    1.000000    
     78 O3    c    0.341198 *  0.767304 *  0.822835 *   1.33043    1.000000    
     79 O2    c    0.124520 *  0.200908 *  0.969230 *   0.87073    1.000000    
     80 O2    c    0.783891 *  0.905019 *  0.303491 *   0.87073    1.000000    
     81 O2    c    0.088342 *  0.877130 *  0.635107 *   0.87073    1.000000    
     82 O2    c    0.869927 *  0.788985 *  0.468536 *   0.87073    1.000000    
     83 O2    c    0.213265 *  0.101665 *  0.801627 *   0.87073    1.000000    
     84 O2    c    0.908113 *  0.128718 *  0.135612 *   0.87073    1.000000    
     85 O2    c    0.213647 *  0.121619 *  0.356863 *   0.87073    1.000000    
     86 O2    c    0.921934 *  0.796565 *  0.024095 *   0.87073    1.000000    
     87 O2    c    0.876126 *  0.094211 *  0.690922 *   0.87073    1.000000    
     88 O2    c    0.779861 *  0.878765 *  0.857022 *   0.87073    1.000000    
     89 O2    c    0.080131 *  0.210403 *  0.523673 *   0.87073    1.000000    
     90 O2    c    0.125249 *  0.913848 *  0.192657 *   0.87073    1.000000    
     91 O2    c    0.928818 *  0.857004 *  0.247248 *   0.87073    1.000000    
     92 O2    c    0.136427 *  0.072630 *  0.580294 *   0.87073    1.000000    
     93 O2    c    0.932566 *  0.057053 *  0.914252 *   0.87073    1.000000    
     94 O2    c    0.068248 *  0.148179 *  0.746723 *   0.87073    1.000000    
     95 O2    c    0.868184 *  0.932267 *  0.082846 *   0.87073    1.000000    
     96 O2    c    0.067576 *  0.933544 *  0.413818 *   0.87073    1.000000    
     97 O2    c    0.902064 *  0.199985 *  0.973647 *   0.87073    1.000000    
     98 O2    c    0.797809 *  0.693027 *  0.309869 *   0.87073    1.000000    
     99 O2    c    0.302300 *  0.099603 *  0.642323 *   0.87073    1.000000    
    100 O2    c    0.090787 *  0.793485 *  0.475677 *   0.87073    1.000000    
    101 O2    c    0.196262 *  0.309157 *  0.811475 *   0.87073    1.000000    
    102 O2    c    0.698298 *  0.903655 *  0.144317 *   0.87073    1.000000    
    103 O2    c    0.201194 *  0.895989 *  0.351992 *   0.87073    1.000000    
    104 O2    c    0.702820 *  0.799553 *  0.020318 *   0.87073    1.000000    
    105 O2    c    0.101866 *  0.306134 *  0.681753 *   0.87073    1.000000    
    106 O2    c    0.812285 *  0.114661 *  0.852202 *   0.87073    1.000000    
    107 O2    c    0.297354 *  0.206966 *  0.516629 *   0.87073    1.000000    
    108 O2    c    0.899784 *  0.702894 *  0.180694 *   0.87073    1.000000    
    109 O2    c    0.319102 *  0.641772 *  0.244570 *   0.87073    1.000000    
    110 O2    c    0.350655 *  0.673771 *  0.575199 *   0.87073    1.000000    
    111 O3    c    0.314407 *  0.697206 *  0.908532 *   1.33043    1.000000    
    112 O2    c    0.673822 *  0.351908 *  0.748762 *   0.87073    1.000000    
    113 O3    c    0.613601 *  0.305095 *  0.085954 *   1.33043    1.000000    
    114 O2    c    0.676848 *  0.323362 *  0.415482 *   0.87073    1.000000    
    115 O2    c    0.370434 *  0.335638 *  0.967071 *   0.87073    1.000000    
    116 O2    c    0.668579 *  0.036864 *  0.303428 *   0.87073    1.000000    
    117 O2    c    0.957972 *  0.629013 *  0.634954 *   0.87073    1.000000    
    118 O2    c    0.621666 *  0.670999 *  0.465496 *   0.87073    1.000000    
    119 O3    c    0.315426 *  0.958747 *  0.801543 *   1.33043    1.000000    
    120 O2    c    0.034390 *  0.376053 *  0.130830 *   0.87073    1.000000    
    121 O2    c    0.329522 *  0.369671 *  0.357536 *   0.87073    1.000000    
    122 O2    c    0.033985 *  0.662150 *  0.024670 *   0.87073    1.000000    
    123 O2    c    0.628330 *  0.956513 *  0.692866 *   0.87073    1.000000    
    124 O2    c    0.660914 *  0.630054 *  0.861882 *   0.87073    1.000000    
    125 O2    c    0.948240 *  0.327844 *  0.526721 *   0.87073    1.000000    
    126 O2    c    0.373560 *  0.043247 *  0.196484 *   0.87073    1.000000    
    127 O3    c    0.753687 *  0.281779 *  0.002726 *   1.33043    1.000000    
    128 O2    c    0.698080 *  0.462871 *  0.341666 *   0.87073    1.000000    
    129 O2    c    0.532637 *  0.230075 *  0.677127 *   0.87073    1.000000    
    130 O2    c    0.221636 *  0.694004 *  0.505036 *   0.87073    1.000000    
    131 O2    c    0.296083 *  0.539329 *  0.842702 *   0.87073    1.000000    
    132 O2    c    0.464960 *  0.772284 *  0.173630 *   0.87073    1.000000    
    133 O2    c    0.299202 *  0.763011 *  0.319071 *   0.87073    1.000000    
    134 O3    c    0.473587 *  0.715051 *  0.990633 *   1.33043    1.000000    
    135 O2    c    0.231405 *  0.536885 *  0.650067 *   0.87073    1.000000    
    136 O2    c    0.695624 *  0.232406 *  0.820011 *   0.87073    1.000000    
    137 O2    c    0.528239 *  0.306316 *  0.486724 *   0.87073    1.000000    
    138 O2    c    0.762908 *  0.467639 *  0.151481 *   0.87073    1.000000    
    139 O3    c    0.773331 *  0.545471 *  0.018624 *   1.33043    1.000000    
    140 O2    c    0.465878 *  0.247462 *  0.358999 *   0.87073    1.000000    
    141 O2    c    0.740217 *  0.210766 *  0.696005 *   0.87073    1.000000    
    142 O2    c    0.206073 *  0.462210 *  0.521225 *   0.87073    1.000000    
    143 O2    c    0.527662 *  0.751381 *  0.859440 *   0.87073    1.000000    
    144 O2    c    0.246282 *  0.784315 *  0.192464 *   0.87073    1.000000    
    145 O2    c    0.531629 *  0.777817 *  0.301287 *   0.87073    1.000000    
    146 O3    c    0.228121 *  0.451626 *  0.974004 *   1.33043    1.000000    
    147 O2    c    0.217667 *  0.753432 *  0.632499 *   0.87073    1.000000    
    148 O2    c    0.464935 *  0.213474 *  0.801170 *   0.87073    1.000000    
    149 O2    c    0.746994 *  0.537393 *  0.469656 *   0.87073    1.000000    
    150 O2    c    0.778513 *  0.253126 *  0.133594 *   0.87073    1.000000    
    151 O2    c    0.223867 *  0.333750 *  0.897102 *   0.87073    1.000000    
    152 O2    c    0.675069 *  0.905713 *  0.228934 *   0.87073    1.000000    
    153 O2    c    0.086806 *  0.767540 *  0.560668 *   0.87073    1.000000    
    154 O2    c    0.767022 *  0.674670 *  0.394269 *   0.87073    1.000000    
    155 O2    c    0.323749 *  0.089264 *  0.727731 *   0.87073    1.000000    
    156 O2    c    0.898152 *  0.231735 *  0.059822 *   0.87073    1.000000    
    157 O2    c    0.320117 *  0.231656 *  0.431404 *   0.87073    1.000000    
    158 O2    c    0.891741 *  0.667123 *  0.095101 *   0.87073    1.000000    
    159 O2    c    0.763055 *  0.089140 *  0.767053 *   0.87073    1.000000    
    160 O2    c    0.668677 *  0.770784 *  0.933395 *   0.87073    1.000000    
    161 O2    c    0.091226 *  0.325493 *  0.597264 *   0.87073    1.000000    
    162 O2    c    0.230121 *  0.906475 *  0.267593 *   0.87073    1.000000    
    163 O2    c    0.575442 *  0.563074 *  0.988531 *   0.87073    1.000000    
    164 O2    c    0.439858 *  0.021373 *  0.324221 *   0.87073    1.000000    
    165 O2    c    0.971161 *  0.413236 *  0.653981 *   0.87073    1.000000    
    166 O2    c    0.406321 *  0.442822 *  0.485373 *   0.87073    1.000000    
    167 O3    c    0.571487 *  0.975178 *  0.827164 *   1.33043    1.000000    
    168 O2    c    0.018595 *  0.585246 *  0.147341 *   0.87073    1.000000    
    169 O2    c    0.558643 *  0.581959 *  0.337624 *   0.87073    1.000000    
    170 O2    c    0.010423 *  0.436559 *  0.004261 *   0.87073    1.000000    
    171 O2    c    0.419103 *  0.976262 *  0.672084 *   0.87073    1.000000    
    172 O2    c    0.434086 *  0.420798 *  0.844891 *   0.87073    1.000000    
    173 O2    c    0.963754 *  0.556702 *  0.506591 *   0.87073    1.000000    
    174 O2    c    0.588693 *  0.030811 *  0.176038 *   0.87073    1.000000    
    175 O2    c    0.581810 *  0.161865 *  0.251690 *   0.87073    1.000000    
    176 O2    c    0.830518 *  0.418505 *  0.581608 *   0.87073    1.000000    
    177 O2    c    0.578629 *  0.428392 *  0.915794 *   0.87073    1.000000    
    178 O3    c    0.411146 *  0.817862 *  0.738850 *   1.33043    1.000000    
    179 O2    c    0.153039 *  0.574593 *  0.076126 *   0.87073    1.000000    
    180 O2    c    0.414764 *  0.581193 *  0.409860 *   0.87073    1.000000    
    181 F     c    0.449574 *  0.900422 *  0.248691 *   0.56000    1.000000    
    182 F     c    0.091195 *  0.547152 *  0.579821 *   0.56000    1.000000    
    183 F     c    0.421412 *  0.563597 *  0.922543 *   0.56000    1.000000    
    184 F     c    0.524736 *  0.056048 *  0.755313 *   0.56000    1.000000    
    185 F     c    0.850326 *  0.433155 *  0.070112 *   0.56000    1.000000    
    186 F     c    0.547181 *  0.452521 *  0.413443 *   0.56000    1.000000    
    187 O2    s    0.924336 *  0.001912 *  0.999188 *  -2.87073    1.000000    
    188 O2    s    0.999112 *  0.921586 *  0.330424 *  -2.87073    1.000000    
    189 O2    s    0.075592 *  0.077113 *  0.663911 *  -2.87073    1.000000    
    190 O2    s    0.071689 *  0.999064 *  0.497369 *  -2.87073    1.000000    
    191 O2    s    0.998953 *  0.075025 *  0.829548 *  -2.87073    1.000000    
    192 O2    s    0.927600 *  0.933471 *  0.166009 *  -2.87073    1.000000    
    193 O2    s    0.350148 *  0.579900 *  0.326562 *  -2.87073    1.000000    
    194 O2    s    0.419366 *  0.769715 *  0.654869 *  -2.87073    1.000000    
    195 O3    s    0.223338 *  0.645613 *  0.994261 *  -3.33043    1.000000    
    196 O2    s    0.641898 *  0.416106 *  0.831851 *  -2.87073    1.000000    
    197 O2    s    0.585059 *  0.235308 *  0.170396 *  -2.87073    1.000000    
    198 O2    s    0.758747 *  0.353190 *  0.498730 *  -2.87073    1.000000    
    199 O3    s    0.572413 *  0.350746 *  0.998041 *  -3.33043    1.000000    
    200 O2    s    0.767550 *  0.415865 *  0.665608 *  -2.87073    1.000000    
    201 O2    s    0.648074 *  0.228217 *  0.334173 *  -2.87073    1.000000    
    202 O2    s    0.405352 *  0.646222 *  0.492211 *  -2.87073    1.000000    
    203 O2    s    0.230196 *  0.589733 *  0.160666 *  -2.87073    1.000000    
    204 O3    s    0.350909 *  0.769230 *  0.824527 *  -3.33043    1.000000    
    205 O2    s    0.119691 *  0.205798 *  0.966962 *  -2.87073    1.000000    
    206 O2    s    0.780774 *  0.898613 *  0.300819 *  -2.87073    1.000000    
    207 O2    s    0.094910 *  0.880434 *  0.632553 *  -2.87073    1.000000    
    208 O2    s    0.873548 *  0.785289 *  0.465995 *  -2.87073    1.000000    
    209 O2    s    0.215749 *  0.106806 *  0.799109 *  -2.87073    1.000000    
    210 O2    s    0.901417 *  0.124915 *  0.133047 *  -2.87073    1.000000    
    211 O2    s    0.216826 *  0.118545 *  0.359595 *  -2.87073    1.000000    
    212 O2    s    0.912455 *  0.791985 *  0.026483 *  -2.87073    1.000000    
    213 O2    s    0.879207 *  0.100120 *  0.693699 *  -2.87073    1.000000    
    214 O2    s    0.777639 *  0.882233 *  0.859942 *  -2.87073    1.000000    
    215 O2    s    0.087390 *  0.214326 *  0.526261 *  -2.87073    1.000000    
    216 O2    s    0.121656 *  0.906940 *  0.195146 *  -2.87073    1.000000    
    217 O2    s    0.927628 *  0.854998 *  0.247281 *  -2.87073    1.000000    
    218 O2    s    0.139056 *  0.073482 *  0.580276 *  -2.87073    1.000000    
    219 O2    s    0.930794 *  0.060611 *  0.913937 *  -2.87073    1.000000    
    220 O2    s    0.069571 *  0.150345 *  0.746538 *  -2.87073    1.000000    
    221 O2    s    0.864576 *  0.931603 *  0.082869 *  -2.87073    1.000000    
    222 O2    s    0.068631 *  0.931169 *  0.413803 *  -2.87073    1.000000    
    223 O2    s    0.908305 *  0.200354 *  0.976488 *  -2.87073    1.000000    
    224 O2    s    0.795982 *  0.699220 *  0.312504 *  -2.87073    1.000000    
    225 O2    s    0.296054 *  0.092078 *  0.645036 *  -2.87073    1.000000    
    226 O2    s    0.083568 *  0.792496 *  0.478385 *  -2.87073    1.000000    
    227 O2    s    0.197545 *  0.302600 *  0.813927 *  -2.87073    1.000000    
    228 O2    s    0.704292 *  0.911173 *  0.147005 *  -2.87073    1.000000    
    229 O2    s    0.202610 *  0.903774 *  0.349272 *  -2.87073    1.000000    
    230 O2    s    0.708696 *  0.798965 *  0.017559 *  -2.87073    1.000000    
    231 O2    s    0.093877 *  0.299943 *  0.679326 *  -2.87073    1.000000    
    232 O2    s    0.808390 *  0.104572 *  0.849725 *  -2.87073    1.000000    
    233 O2    s    0.290978 *  0.207752 *  0.514041 *  -2.87073    1.000000    
    234 O2    s    0.906802 *  0.708636 *  0.178404 *  -2.87073    1.000000    
    235 O2    s    0.324882 *  0.653442 *  0.244669 *  -2.87073    1.000000    
    236 O2    s    0.338822 *  0.668262 *  0.575254 *  -2.87073    1.000000    
    237 O3    s    0.320981 *  0.691371 *  0.907025 *  -3.33043    1.000000    
    238 O2    s    0.668783 *  0.341685 *  0.748602 *  -2.87073    1.000000    
    239 O3    s    0.626630 *  0.311077 *  0.087238 *  -3.33043    1.000000    
    240 O2    s    0.670776 *  0.329105 *  0.415399 *  -2.87073    1.000000    
    241 O2    s    0.372939 *  0.344789 *  0.965574 *  -2.87073    1.000000    
    242 O2    s    0.658530 *  0.030339 *  0.301139 *  -2.87073    1.000000    
    243 O2    s    0.964252 *  0.625426 *  0.632563 *  -2.87073    1.000000    
    244 O2    s    0.618496 *  0.660715 *  0.463231 *  -2.87073    1.000000    
    245 O3    s    0.325026 *  0.969605 *  0.798751 *  -3.33043    1.000000    
    246 O2    s    0.028430 *  0.379090 *  0.128738 *  -2.87073    1.000000    
    247 O2    s    0.339382 *  0.373055 *  0.359779 *  -2.87073    1.000000    
    248 O2    s    0.027384 *  0.653332 *  0.026196 *  -2.87073    1.000000    
    249 O2    s    0.625686 *  0.963131 *  0.694875 *  -2.87073    1.000000    
    250 O2    s    0.651504 *  0.626527 *  0.863929 *  -2.87073    1.000000    
    251 O2    s    0.955437 *  0.338146 *  0.528825 *  -2.87073    1.000000    
    252 O2    s    0.376404 *  0.036196 *  0.198708 *  -2.87073    1.000000    
    253 O3    s    0.764131 *  0.289102 *  0.005725 *  -3.33043    1.000000    
    254 O2    s    0.690269 *  0.462427 *  0.344729 *  -2.87073    1.000000    
    255 O2    s    0.533689 *  0.223701 *  0.679701 *  -2.87073    1.000000    
    256 O2    s    0.214775 *  0.686398 *  0.508126 *  -2.87073    1.000000    
    257 O2    s    0.302570 *  0.538652 *  0.845218 *  -2.87073    1.000000    
    258 O2    s    0.464179 *  0.778734 *  0.176809 *  -2.87073    1.000000    
    259 O2    s    0.307041 *  0.770390 *  0.316009 *  -2.87073    1.000000    
    260 O3    s    0.477455 *  0.707999 *  0.987527 *  -3.33043    1.000000    
    261 O2    s    0.224074 *  0.536875 *  0.646887 *  -2.87073    1.000000    
    262 O2    s    0.688394 *  0.226476 *  0.817461 *  -2.87073    1.000000    
    263 O2    s    0.528878 *  0.313737 *  0.483533 *  -2.87073    1.000000    
    264 O2    s    0.769307 *  0.467354 *  0.148609 *  -2.87073    1.000000    
    265 O3    s    0.782521 *  0.546859 *  0.021777 *  -3.33043    1.000000    
    266 O2    s    0.468351 *  0.255352 *  0.361539 *  -2.87073    1.000000    
    267 O2    s    0.734194 *  0.207394 *  0.698000 *  -2.87073    1.000000    
    268 O2    s    0.201456 *  0.465114 *  0.523983 *  -2.87073    1.000000    
    269 O2    s    0.526747 *  0.745940 *  0.861690 *  -2.87073    1.000000    
    270 O2    s    0.254432 *  0.789332 *  0.194943 *  -2.87073    1.000000    
    271 O2    s    0.529074 *  0.783344 *  0.298739 *  -2.87073    1.000000    
    272 O3    s    0.236105 *  0.450143 *  0.970719 *  -3.33043    1.000000    
    273 O2    s    0.211816 *  0.745323 *  0.629945 *  -2.87073    1.000000    
    274 O2    s    0.468380 *  0.210256 *  0.799165 *  -2.87073    1.000000    
    275 O2    s    0.738990 *  0.534399 *  0.466950 *  -2.87073    1.000000    
    276 O2    s    0.782972 *  0.259390 *  0.131329 *  -2.87073    1.000000    
    277 O2    s    0.232973 *  0.342002 *  0.897451 *  -2.87073    1.000000    
    278 O2    s    0.665516 *  0.905498 *  0.229910 *  -2.87073    1.000000    
    279 O2    s    0.087264 *  0.758331 *  0.561554 *  -2.87073    1.000000    
    280 O2    s    0.757513 *  0.665088 *  0.395199 *  -2.87073    1.000000    
    281 O2    s    0.332470 *  0.089889 *  0.728218 *  -2.87073    1.000000    
    282 O2    s    0.897764 *  0.239624 *  0.060948 *  -2.87073    1.000000    
    283 O2    s    0.329803 *  0.240990 *  0.430574 *  -2.87073    1.000000    
    284 O2    s    0.892843 *  0.658937 *  0.094968 *  -2.87073    1.000000    
    285 O2    s    0.755621 *  0.089962 *  0.765912 *  -2.87073    1.000000    
    286 O2    s    0.660504 *  0.763134 *  0.932345 *  -2.87073    1.000000    
    287 O2    s    0.091037 *  0.334922 *  0.596408 *  -2.87073    1.000000    
    288 O2    s    0.239424 *  0.906059 *  0.266624 *  -2.87073    1.000000    
    289 O2    s    0.572694 *  0.563131 *  0.985688 *  -2.87073    1.000000    
    290 O2    s    0.439664 *  0.016846 *  0.320714 *  -2.87073    1.000000    
    291 O2    s    0.976017 *  0.418329 *  0.650581 *  -2.87073    1.000000    
    292 O2    s    0.411209 *  0.442214 *  0.482029 *  -2.87073    1.000000    
    293 O3    s    0.576586 *  0.984516 *  0.823566 *  -3.33043    1.000000    
    294 O2    s    0.014774 *  0.581348 *  0.144687 *  -2.87073    1.000000    
    295 O2    s    0.558671 *  0.577585 *  0.341017 *  -2.87073    1.000000    
    296 O2    s    0.007502 *  0.436076 *  0.007022 *  -2.87073    1.000000    
    297 O2    s    0.421755 *  0.980281 *  0.675002 *  -2.87073    1.000000    
    298 O2    s    0.434574 *  0.424976 *  0.847603 *  -2.87073    1.000000    
    299 O2    s    0.968918 *  0.557239 *  0.509892 *  -2.87073    1.000000    
    300 O2    s    0.583755 *  0.025405 *  0.179309 *  -2.87073    1.000000    
    301 O2    s    0.576321 *  0.150749 *  0.251618 *  -2.87073    1.000000    
    302 O2    s    0.841755 *  0.424011 *  0.581601 *  -2.87073    1.000000    
    303 O2    s    0.573554 *  0.432644 *  0.915351 *  -2.87073    1.000000    
    304 O3    s    0.418782 *  0.830657 *  0.737189 *  -3.33043    1.000000    
    305 O2    s    0.144028 *  0.570382 *  0.076784 *  -2.87073    1.000000    
    306 O2    s    0.420199 *  0.575574 *  0.409967 *  -2.87073    1.000000    
    307 F     s    0.449278 *  0.899938 *  0.248767 *  -1.56000    1.000000    
    308 F     s    0.091396 *  0.547228 *  0.579946 *  -1.56000    1.000000    
    309 F     s    0.414494 *  0.567383 *  0.925075 *  -1.56000    1.000000    
    310 F     s    0.518464 *  0.045868 *  0.757713 *  -1.56000    1.000000    
    311 F     s    0.840254 *  0.429306 *  0.067991 *  -1.56000    1.000000    
    312 F     s    0.547505 *  0.452480 *  0.413526 *  -1.56000    1.000000    
--------------------------------------------------------------------------------



********************************************************************************
*  General input information                                                   *
********************************************************************************

  Species output for all configurations : 

--------------------------------------------------------------------------------
  Species    Type    Atomic    Atomic    Charge       Radii (Angs)     Library
                     Number     Mass       (e)     Cova   Ionic  VDW   Symbol
--------------------------------------------------------------------------------
    Si       Core       14      28.09   4.000000   1.200  0.000  2.100          
    O1       Core        8      16.00   1.733957   0.730  0.000  1.360          
    O1       Shell       8       0.00  -3.733957   0.730  0.000  1.360          
    O2       Core        8      16.00   0.870733   0.730  0.000  1.360          
    O2       Shell       8       0.00  -2.870733   0.730  0.000  1.360          
    O3       Core        8      16.00   1.330431   0.730  0.000  1.360          
    O3       Shell       8       0.00  -3.330431   0.730  0.000  1.360          
    F        Core        9      19.00   0.560000   0.710  0.000  1.300          
    F        Shell       9       0.00  -1.560000   0.710  0.000  1.300          
    Ge       Core       32      72.61   4.000000   1.170  0.000  1.750          
--------------------------------------------------------------------------------


  Lattice summation method               =    Ewald          (3-D)
                                         =    Parry          (2-D)
                                         =    Saunders et al (1-D)
  Accuracy factor for lattice sums       =   12.000


  Time limit = Infinity

  Maximum range for interatomic potentials =        16.000000 Angstroms

  Taper potentials to zero over   1.0000 Angstroms using polynomial

  General interatomic potentials :

--------------------------------------------------------------------------------
Atom  Types   Potential         A         B         C         D     Cutoffs(Ang)
  1     2                                                            Min    Max 
--------------------------------------------------------------------------------
Si   c O1   s Buckingham    0.132E+04 0.318      10.1      0.00     0.000 16.000
Si   c O2   s Buckingham    0.132E+04 0.318      10.1      0.00     0.000 16.000
Si   c O3   s Buckingham    0.132E+04 0.318      10.1      0.00     0.000 16.000
Ge   c O1   s Buckingham    0.150E+04 0.326      16.8      0.00     0.000 16.000
Ge   c O2   s Buckingham    0.150E+04 0.326      16.8      0.00     0.000 16.000
Ge   c O3   s Buckingham    0.150E+04 0.326      16.8      0.00     0.000 16.000
O1   s O1   s Buckingham    0.228E+05 0.149      10.9      0.00     0.000 16.000
O1   s O2   s Buckingham    0.228E+05 0.149      10.9      0.00     0.000 16.000
O1   s O3   s Buckingham    0.228E+05 0.149      10.9      0.00     0.000 16.000
O2   s O2   s Buckingham    0.228E+05 0.149      10.9      0.00     0.000 16.000
O2   s O3   s Buckingham    0.228E+05 0.149      10.9      0.00     0.000 16.000
O3   s O3   s Buckingham    0.228E+05 0.149      10.9      0.00     0.000 16.000
Si   c F    s Buckingham     977.     0.282      0.00      0.00     0.000 16.000
Ge   c F    s Buckingham     681.     0.320      0.00      0.00     0.000 16.000
F    s F    s Buckingham     540.     0.262      0.00      0.00     0.000 16.000
O1   s F    s Buckingham    0.168E+04 0.268      0.00      0.00     0.000 16.000
O2   s F    s Buckingham    0.168E+04 0.268      0.00      0.00     0.000 16.000
O3   s F    s Buckingham    0.168E+04 0.268      0.00      0.00     0.000 16.000
O2   c O2   s Spring (c-s)   76.0      0.00      0.00      0.00     0.000  0.800
O3   c O3   s Spring (c-s)   128.      0.00      0.00      0.00     0.000  0.800
O1   c O1   s Spring (c-s)   180.      0.00      0.00      0.00     0.000  0.800
F    c F    s Spring (c-s)   33.5      0.00      0.00      0.00     0.000  0.800
--------------------------------------------------------------------------------

  General Three-body potentials :

  Harmonic form:

--------------------------------------------------------------------------------
Atom    Atom    Atom           Force Constants            Theta     Cutoffs  
  1       2       3     (eVrad**-2/eVrad**-3/eVrad**-4)   (deg)  1-2  1-3  2-3
--------------------------------------------------------------------------------
Si    c O1    s O1    s  1.261        0.0000    0.0000   109.470 0.00 0.00 0.00
                                                                 1.90 1.90 3.50
Si    c O1    s O2    s  1.261        0.0000    0.0000   109.470 0.00 0.00 0.00
                                                                 1.90 1.90 3.50
Si    c O2    s O2    s  1.261        0.0000    0.0000   109.470 0.00 0.00 0.00
                                                                 1.90 1.90 3.50
--------------------------------------------------------------------------------

********************************************************************************
*  Output for configuration   1                                                *
********************************************************************************


  Components of energy : 

--------------------------------------------------------------------------------
  Interatomic potentials     =        2065.98400210 eV
  Three-body potentials      =           0.46196959 eV
  Monopole - monopole (real) =       -6616.42124732 eV
  Monopole - monopole (recip)=       -3171.18001995 eV
  Monopole - monopole (total)=       -9787.60126727 eV
  Neutralising energy        =          -6.45969035 eV
--------------------------------------------------------------------------------
  Total lattice energy       =       -7727.61498592 eV
--------------------------------------------------------------------------------
  Total lattice energy       =         -745596.7187 kJ/(mole unit cells)
--------------------------------------------------------------------------------


  Number of variables =      939

  Maximum number of calculations  =          1000
  Maximum Hessian update interval =            10
  Maximum step size               =   1.000000000
  Maximum parameter tolerance     =   0.000010000
  Maximum function  tolerance     =   0.000010000
  Maximum gradient  tolerance     =   0.001000000
  Maximum gradient  component     =   0.010000000

  Symmetry not applied to optimisation

  Cell parameters to be optimised using strains

  Newton-Raphson optimiser to be used

  BFGS hessian update to be used

  Dumpfile to be written after every cycle

  Start of bulk optimisation :

  Cycle:      0 Energy:     -7727.614986  Gnorm:      0.000997  CPU:    1.057
  ** Hessian calculated **
  Cycle:      1 Energy:     -7727.729778  Gnorm:      0.004216  CPU:    3.279
  Cycle:      2 Energy:     -7727.745089  Gnorm:      0.002864  CPU:    4.652
  Cycle:      3 Energy:     -7727.745236  Gnorm:      0.000255  CPU:    6.024
  Cycle:      4 Energy:     -7727.745244  Gnorm:      0.000100  CPU:    7.396


  **** Optimisation achieved ****


  Final energy =   -7727.74524393 eV
  Final Gnorm  =       0.00002129

  Components of energy : 

--------------------------------------------------------------------------------
  Interatomic potentials     =        2066.36128452 eV
  Three-body potentials      =           0.45868264 eV
  Monopole - monopole (real) =       -6618.46517780 eV
  Monopole - monopole (recip)=       -3169.64347076 eV
  Monopole - monopole (total)=       -9788.10864856 eV
  Neutralising energy        =          -6.45656254 eV
--------------------------------------------------------------------------------
  Total lattice energy       =       -7727.74524393 eV
--------------------------------------------------------------------------------
  Total lattice energy       =         -745609.2866 kJ/(mole unit cells)
--------------------------------------------------------------------------------

  Final fractional coordinates of atoms :

--------------------------------------------------------------------------------
   No.  Atomic        x           y          z          Radius
        Label       (Frac)      (Frac)     (Frac)       (Angs) 
--------------------------------------------------------------------------------
     1  Ge    c     0.699600    0.375700    0.033890    0.000000
     2  Si    c     0.590735    0.301330    0.364602    0.000000
     3  Si    c     0.651607    0.285264    0.697194    0.000000
     4  Si    c     0.259489    0.599781    0.524592    0.000000
     5  Si    c     0.352212    0.678330    0.859861    0.000000
     6  Si    c     0.297265    0.688388    0.195170    0.000000
     7  Si    c     0.347516    0.679828    0.295477    0.000000
     8  Ge    c     0.315387    0.606122    0.958277    0.000000
     9  Si    c     0.270968    0.662148    0.624980    0.000000
    10  Si    c     0.596289    0.285015    0.799383    0.000000
    11  Si    c     0.640744    0.361812    0.465047    0.000000
    12  Si    c     0.667010    0.305364    0.132048    0.000000
    13  Si    c     0.516554    0.409590    0.968050    0.000000
    14  Si    c     0.553164    0.088342    0.301381    0.000000
    15  Si    c     0.861423    0.457221    0.631460    0.000000
    16  Si    c     0.433110    0.561743    0.460319    0.000000
    17  Ge    c     0.408069    0.892360    0.790233    0.000000
    18  Si    c     0.089305    0.517637    0.128285    0.000000
    19  Si    c     0.384426    0.505380    0.358830    0.000000
    20  Si    c     0.097986    0.571992    0.024671    0.000000
    21  Si    c     0.444582    0.865481    0.690966    0.000000
    22  Si    c     0.560872    0.462481    0.864273    0.000000
    23  Si    c     0.850085    0.398793    0.530150    0.000000
    24  Si    c     0.505562    0.097303    0.199928    0.000000
    25  Si    c     0.275584    0.392902    0.850674    0.000000
    26  Si    c     0.577314    0.889288    0.182618    0.000000
    27  Si    c     0.057958    0.677934    0.513750    0.000000
    28  Si    c     0.666628    0.577247    0.347233    0.000000
    29  Si    c     0.371231    0.079763    0.680403    0.000000
    30  Si    c     0.880778    0.284790    0.010756    0.000000
    31  Si    c     0.361134    0.283384    0.477163    0.000000
    32  Si    c     0.874879    0.589062    0.142681    0.000000
    33  Si    c     0.679500    0.083901    0.815966    0.000000
    34  Si    c     0.586815    0.696246    0.981716    0.000000
    35  Si    c     0.070824    0.386142    0.643100    0.000000
    36  Si    c     0.271375    0.880039    0.313330    0.000000
    37  Si    c     0.230619    0.326429    0.952662    0.000000
    38  Si    c     0.629703    0.887655    0.283459    0.000000
    39  Si    c     0.060837    0.734742    0.614494    0.000000
    40  Si    c     0.713035    0.640933    0.447838    0.000000
    41  Si    c     0.309171    0.073184    0.782673    0.000000
    42  Si    c     0.883562    0.236974    0.113911    0.000000
    43  Si    c     0.307962    0.228493    0.376410    0.000000
    44  Si    c     0.895101    0.655210    0.040619    0.000000
    45  Si    c     0.723337    0.071255    0.712483    0.000000
    46  Si    c     0.636664    0.743027    0.878354    0.000000
    47  Si    c     0.051727    0.320591    0.542658    0.000000
    48  Si    c     0.225271    0.895959    0.212812    0.000000
    49  Si    c     0.958359    0.106527    0.963581    0.000000
    50  Si    c     0.847454    0.824728    0.297675    0.000000
    51  Si    c     0.123508    0.015221    0.630267    0.000000
    52  Si    c     0.992216    0.859559    0.463688    0.000000
    53  Si    c     0.098855    0.147816    0.797218    0.000000
    54  Si    c     0.827993    0.961337    0.132444    0.000000
    55  Si    c     0.090492    0.948350    0.362980    0.000000
    56  Si    c     0.839771    0.873385    0.031731    0.000000
    57  Si    c     0.006515    0.142485    0.695640    0.000000
    58  Si    c     0.861025    0.018856    0.863392    0.000000
    59  Si    c     0.114344    0.103190    0.529124    0.000000
    60  Si    c     0.946267    0.836161    0.196559    0.000000
    61  O2    c     0.912307    0.994286    0.999529    0.000000
    62  O2    c     0.968004    0.903902    0.330773    0.000000
    63  O2    c     0.047164    0.057942    0.664547    0.000000
    64  O2    c     0.033589    0.978503    0.497833    0.000000
    65  O2    c     0.978117    0.059176    0.828784    0.000000
    66  O2    c     0.907430    0.922890    0.166653    0.000000
    67  O2    c     0.308167    0.552957    0.325981    0.000000
    68  O2    c     0.402236    0.752135    0.653096    0.000000
    69  O3    c     0.219540    0.646194    0.994310    0.000000
    70  O2    c     0.632872    0.409124    0.831020    0.000000
    71  O2    c     0.557296    0.226249    0.170108    0.000000
    72  O2    c     0.722061    0.322808    0.499050    0.000000
    73  O3    c     0.564069    0.335226    0.998391    0.000000
    74  O2    c     0.737757    0.407859    0.665330    0.000000
    75  O2    c     0.629995    0.212792    0.334349    0.000000
    76  O2    c     0.380364    0.638507    0.490967    0.000000
    77  O2    c     0.213204    0.567751    0.161402    0.000000
    78  O3    c     0.320783    0.752463    0.822988    0.000000
    79  O2    c     0.112342    0.187412    0.968479    0.000000
    80  O2    c     0.754851    0.885892    0.303640    0.000000
    81  O2    c     0.061424    0.861207    0.634899    0.000000
    82  O2    c     0.837402    0.769888    0.467639    0.000000
    83  O2    c     0.190445    0.087023    0.801094    0.000000
    84  O2    c     0.886480    0.114948    0.136111    0.000000
    85  O2    c     0.182961    0.101512    0.356147    0.000000
    86  O2    c     0.914383    0.794086    0.025678    0.000000
    87  O2    c     0.851960    0.078941    0.691093    0.000000
    88  O2    c     0.762115    0.866705    0.856625    0.000000
    89  O2    c     0.048403    0.191662    0.523529    0.000000
    90  O2    c     0.100865    0.899403    0.192767    0.000000
    91  O2    c     0.901931    0.839826    0.247402    0.000000
    92  O2    c     0.107341    0.055684    0.580243    0.000000
    93  O2    c     0.915587    0.046442    0.913784    0.000000
    94  O2    c     0.047819    0.138760    0.746546    0.000000
    95  O2    c     0.847630    0.922089    0.082814    0.000000
    96  O2    c     0.038125    0.915875    0.413932    0.000000
    97  O2    c     0.894563    0.194532    0.972841    0.000000
    98  O2    c     0.766366    0.672836    0.309089    0.000000
    99  O2    c     0.275949    0.082794    0.641818    0.000000
   100  O2    c     0.058008    0.774318    0.475454    0.000000
   101  O2    c     0.178587    0.297026    0.811619    0.000000
   102  O2    c     0.675696    0.890367    0.144293    0.000000
   103  O2    c     0.171662    0.876920    0.351815    0.000000
   104  O2    c     0.690038    0.787684    0.019483    0.000000
   105  O2    c     0.076336    0.291687    0.681103    0.000000
   106  O2    c     0.789062    0.099546    0.852195    0.000000
   107  O2    c     0.264677    0.186564    0.515738    0.000000
   108  O2    c     0.877578    0.687335    0.181354    0.000000
   109  O2    c     0.293704    0.626342    0.244622    0.000000
   110  O2    c     0.320929    0.656792    0.574189    0.000000
   111  O3    c     0.297963    0.683530    0.908994    0.000000
   112  O2    c     0.648172    0.334727    0.748143    0.000000
   113  O3    c     0.603369    0.299664    0.084510    0.000000
   114  O2    c     0.645187    0.303815    0.415415    0.000000
   115  O2    c     0.359390    0.324173    0.967597    0.000000
   116  O2    c     0.640023    0.018851    0.303399    0.000000
   117  O2    c     0.930429    0.613146    0.634737    0.000000
   118  O2    c     0.589013    0.650539    0.464824    0.000000
   119  O3    c     0.291734    0.942904    0.801177    0.000000
   120  O2    c     0.014202    0.362124    0.131619    0.000000
   121  O2    c     0.297917    0.349167    0.356711    0.000000
   122  O2    c     0.026837    0.658209    0.026188    0.000000
   123  O2    c     0.603356    0.940709    0.692242    0.000000
   124  O2    c     0.643900    0.617813    0.860917    0.000000
   125  O2    c     0.917090    0.309729    0.526540    0.000000
   126  O2    c     0.349280    0.028267    0.195803    0.000000
   127  O3    c     0.746683    0.277234    0.002333    0.000000
   128  O2    c     0.666874    0.442947    0.341338    0.000000
   129  O2    c     0.507169    0.213558    0.676286    0.000000
   130  O2    c     0.189803    0.675191    0.504277    0.000000
   131  O2    c     0.278239    0.526196    0.843038    0.000000
   132  O2    c     0.441564    0.758156    0.173440    0.000000
   133  O2    c     0.270606    0.745214    0.319017    0.000000
   134  O3    c     0.459962    0.702612    0.990625    0.000000
   135  O2    c     0.204234    0.521551    0.649186    0.000000
   136  O2    c     0.672343    0.216352    0.819534    0.000000
   137  O2    c     0.496167    0.286801    0.486423    0.000000
   138  O2    c     0.743975    0.454043    0.151474    0.000000
   139  O3    c     0.769205    0.543192    0.018052    0.000000
   140  O2    c     0.434896    0.227405    0.358525    0.000000
   141  O2    c     0.714696    0.194227    0.695495    0.000000
   142  O2    c     0.174540    0.443919    0.520628    0.000000
   143  O2    c     0.509770    0.738252    0.859040    0.000000
   144  O2    c     0.222508    0.769865    0.191881    0.000000
   145  O2    c     0.503342    0.760454    0.301802    0.000000
   146  O3    c     0.215562    0.438358    0.974566    0.000000
   147  O2    c     0.190232    0.737572    0.631653    0.000000
   148  O2    c     0.441616    0.197197    0.801200    0.000000
   149  O2    c     0.714577    0.517914    0.469148    0.000000
   150  O2    c     0.758437    0.239481    0.132539    0.000000
   151  O2    c     0.210607    0.321512    0.897466    0.000000
   152  O2    c     0.648666    0.888794    0.229160    0.000000
   153  O2    c     0.056846    0.750198    0.560235    0.000000
   154  O2    c     0.734444    0.654474    0.393599    0.000000
   155  O2    c     0.300095    0.074030    0.727433    0.000000
   156  O2    c     0.884753    0.221870    0.059647    0.000000
   157  O2    c     0.288372    0.211440    0.430756    0.000000
   158  O2    c     0.876493    0.656853    0.095774    0.000000
   159  O2    c     0.737871    0.072059    0.766725    0.000000
   160  O2    c     0.652952    0.758654    0.932647    0.000000
   161  O2    c     0.062130    0.309063    0.596835    0.000000
   162  O2    c     0.203953    0.890008    0.267153    0.000000
   163  O2    c     0.563375    0.552259    0.988170    0.000000
   164  O2    c     0.411233    0.002999    0.323991    0.000000
   165  O2    c     0.944388    0.398043    0.653732    0.000000
   166  O2    c     0.373566    0.422420    0.484795    0.000000
   167  O3    c     0.547867    0.959760    0.827071    0.000000
   168  O2    c     0.999092    0.571414    0.148084    0.000000
   169  O2    c     0.526897    0.560919    0.336837    0.000000
   170  O2    c     0.999251    0.429926    0.004498    0.000000
   171  O2    c     0.393817    0.960390    0.671572    0.000000
   172  O2    c     0.417399    0.409084    0.844268    0.000000
   173  O2    c     0.932013    0.538470    0.506291    0.000000
   174  O2    c     0.565024    0.016104    0.175932    0.000000
   175  O2    c     0.554735    0.145003    0.251385    0.000000
   176  O2    c     0.801250    0.401687    0.581569    0.000000
   177  O2    c     0.563814    0.417296    0.915166    0.000000
   178  O3    c     0.386811    0.802263    0.738359    0.000000
   179  O2    c     0.136945    0.562022    0.077274    0.000000
   180  O2    c     0.382520    0.560204    0.409206    0.000000
   181  F     c     0.422986    0.883534    0.248351    0.000000
   182  F     c     0.060901    0.530260    0.579168    0.000000
   183  F     c     0.406900    0.551501    0.922499    0.000000
   184  F     c     0.500609    0.039871    0.754899    0.000000
   185  F     c     0.842756    0.427683    0.070678    0.000000
   186  F     c     0.514230    0.431490    0.412850    0.000000
   187  O2    s     0.909121    0.993243    0.999088    0.000000
   188  O2    s     0.968335    0.900053    0.330705    0.000000
   189  O2    s     0.051159    0.062469    0.664154    0.000000
   190  O2    s     0.038008    0.979244    0.497545    0.000000
   191  O2    s     0.978569    0.064675    0.829102    0.000000
   192  O2    s     0.903019    0.917501    0.166217    0.000000
   193  O2    s     0.320060    0.560961    0.326261    0.000000
   194  O2    s     0.392938    0.754276    0.653992    0.000000
   195  O3    s     0.212130    0.635093    0.995347    0.000000
   196  O2    s     0.621744    0.401495    0.831046    0.000000
   197  O2    s     0.563020    0.220663    0.169373    0.000000
   198  O2    s     0.727066    0.334733    0.498795    0.000000
   199  O3    s     0.568078    0.346253    0.997467    0.000000
   200  O2    s     0.741017    0.399782    0.665326    0.000000
   201  O2    s     0.618066    0.209176    0.334103    0.000000
   202  O2    s     0.373121    0.626508    0.491339    0.000000
   203  O2    s     0.208971    0.574965    0.161447    0.000000
   204  O3    s     0.330557    0.754596    0.824615    0.000000
   205  O2    s     0.107461    0.192649    0.966341    0.000000
   206  O2    s     0.751733    0.879558    0.300939    0.000000
   207  O2    s     0.067922    0.864483    0.632341    0.000000
   208  O2    s     0.841058    0.766172    0.465213    0.000000
   209  O2    s     0.193228    0.092435    0.798624    0.000000
   210  O2    s     0.879955    0.111224    0.133454    0.000000
   211  O2    s     0.186138    0.098462    0.358947    0.000000
   212  O2    s     0.904334    0.788591    0.027846    0.000000
   213  O2    s     0.854949    0.084890    0.693786    0.000000
   214  O2    s     0.759729    0.870137    0.859538    0.000000
   215  O2    s     0.055681    0.195588    0.526062    0.000000
   216  O2    s     0.097294    0.892314    0.195228    0.000000
   217  O2    s     0.900701    0.837691    0.247423    0.000000
   218  O2    s     0.109922    0.056396    0.580189    0.000000
   219  O2    s     0.914061    0.049953    0.913524    0.000000
   220  O2    s     0.048770    0.140191    0.746355    0.000000
   221  O2    s     0.844467    0.921205    0.082856    0.000000
   222  O2    s     0.038771    0.913125    0.413869    0.000000
   223  O2    s     0.900130    0.194367    0.975800    0.000000
   224  O2    s     0.764703    0.679041    0.311791    0.000000
   225  O2    s     0.269791    0.075459    0.644543    0.000000
   226  O2    s     0.050937    0.773425    0.478179    0.000000
   227  O2    s     0.179698    0.290456    0.813989    0.000000
   228  O2    s     0.681595    0.897705    0.146984    0.000000
   229  O2    s     0.173126    0.884741    0.349128    0.000000
   230  O2    s     0.695894    0.787598    0.016867    0.000000
   231  O2    s     0.068306    0.285474    0.678723    0.000000
   232  O2    s     0.785534    0.089682    0.849710    0.000000
   233  O2    s     0.258388    0.187520    0.513226    0.000000
   234  O2    s     0.884706    0.693270    0.179015    0.000000
   235  O2    s     0.299592    0.638181    0.244789    0.000000
   236  O2    s     0.309245    0.651358    0.574336    0.000000
   237  O3    s     0.304548    0.677803    0.907420    0.000000
   238  O2    s     0.643291    0.324547    0.748004    0.000000
   239  O3    s     0.616029    0.304996    0.086360    0.000000
   240  O2    s     0.639150    0.309555    0.415308    0.000000
   241  O2    s     0.361597    0.333054    0.966045    0.000000
   242  O2    s     0.630001    0.012325    0.301106    0.000000
   243  O2    s     0.936748    0.609598    0.632307    0.000000
   244  O2    s     0.585945    0.640383    0.462575    0.000000
   245  O3    s     0.301351    0.953793    0.798406    0.000000
   246  O2    s     0.008372    0.365238    0.129424    0.000000
   247  O2    s     0.307851    0.352593    0.358997    0.000000
   248  O2    s     0.019796    0.649313    0.027597    0.000000
   249  O2    s     0.600702    0.947209    0.694260    0.000000
   250  O2    s     0.634526    0.614309    0.863028    0.000000
   251  O2    s     0.924299    0.319985    0.528609    0.000000
   252  O2    s     0.352217    0.021366    0.198033    0.000000
   253  O3    s     0.757587    0.284553    0.005370    0.000000
   254  O2    s     0.659048    0.442528    0.344372    0.000000
   255  O2    s     0.508115    0.207151    0.678905    0.000000
   256  O2    s     0.183045    0.667641    0.507426    0.000000
   257  O2    s     0.284860    0.525555    0.845497    0.000000
   258  O2    s     0.440937    0.764717    0.176669    0.000000
   259  O2    s     0.278517    0.752636    0.315992    0.000000
   260  O3    s     0.463842    0.695582    0.987500    0.000000
   261  O2    s     0.196981    0.521635    0.646050    0.000000
   262  O2    s     0.665066    0.210397    0.817030    0.000000
   263  O2    s     0.496838    0.294192    0.483209    0.000000
   264  O2    s     0.750440    0.454038    0.148645    0.000000
   265  O3    s     0.778172    0.544283    0.021417    0.000000
   266  O2    s     0.437326    0.235307    0.361068    0.000000
   267  O2    s     0.708697    0.190832    0.697498    0.000000
   268  O2    s     0.169962    0.446772    0.523396    0.000000
   269  O2    s     0.508918    0.732840    0.861305    0.000000
   270  O2    s     0.230662    0.774981    0.194455    0.000000
   271  O2    s     0.500793    0.765901    0.299201    0.000000
   272  O3    s     0.223528    0.436986    0.971257    0.000000
   273  O2    s     0.184444    0.729489    0.629161    0.000000
   274  O2    s     0.445058    0.194091    0.799131    0.000000
   275  O2    s     0.706659    0.514954    0.466461    0.000000
   276  O2    s     0.763133    0.245835    0.130439    0.000000
   277  O2    s     0.219577    0.329773    0.897736    0.000000
   278  O2    s     0.639172    0.888722    0.230063    0.000000
   279  O2    s     0.057369    0.741009    0.561165    0.000000
   280  O2    s     0.725094    0.644978    0.394536    0.000000
   281  O2    s     0.308693    0.074537    0.727868    0.000000
   282  O2    s     0.884225    0.229568    0.060743    0.000000
   283  O2    s     0.298097    0.220818    0.429914    0.000000
   284  O2    s     0.878029    0.649167    0.095570    0.000000
   285  O2    s     0.730607    0.073068    0.765601    0.000000
   286  O2    s     0.644772    0.750919    0.931630    0.000000
   287  O2    s     0.061943    0.318430    0.595937    0.000000
   288  O2    s     0.213260    0.889600    0.266264    0.000000
   289  O2    s     0.560706    0.552537    0.985371    0.000000
   290  O2    s     0.410988    0.998506    0.320498    0.000000
   291  O2    s     0.949228    0.403076    0.650281    0.000000
   292  O2    s     0.378556    0.421895    0.481445    0.000000
   293  O3    s     0.553154    0.969138    0.823475    0.000000
   294  O2    s     0.995198    0.567519    0.145408    0.000000
   295  O2    s     0.527032    0.556685    0.340262    0.000000
   296  O2    s     0.996635    0.429243    0.007275    0.000000
   297  O2    s     0.396468    0.964361    0.674468    0.000000
   298  O2    s     0.417764    0.413102    0.847046    0.000000
   299  O2    s     0.937243    0.538938    0.509606    0.000000
   300  O2    s     0.560012    0.010752    0.179150    0.000000
   301  O2    s     0.549386    0.134024    0.251243    0.000000
   302  O2    s     0.812542    0.407173    0.581476    0.000000
   303  O2    s     0.558949    0.421509    0.914692    0.000000
   304  O3    s     0.394423    0.814979    0.736645    0.000000
   305  O2    s     0.127913    0.558078    0.077799    0.000000
   306  O2    s     0.388056    0.554657    0.409340    0.000000
   307  F     s     0.422662    0.882980    0.248397    0.000000
   308  F     s     0.060975    0.530323    0.579271    0.000000
   309  F     s     0.399952    0.555276    0.925095    0.000000
   310  F     s     0.494233    0.029506    0.757350    0.000000
   311  F     s     0.831815    0.423798    0.068094    0.000000
   312  F     s     0.514441    0.431357    0.412926    0.000000
--------------------------------------------------------------------------------

  Final Cartesian lattice vectors (Angstroms) :

       11.960973    0.002703   -0.002147
       -5.996099   10.387795    0.013861
        0.100490   -0.168854   29.474869


  Final cell parameters and derivatives :

--------------------------------------------------------------------------------
       a           11.960973 Angstrom     dE/de1(xx)    -0.000227 eV/strain
       b           11.994152 Angstrom     dE/de2(yy)    -0.000102 eV/strain
       c           29.475524 Angstrom     dE/de3(zz)     0.000160 eV/strain
       alpha       90.315711 Degrees      dE/de4(yz)    -0.000496 eV/strain
       beta        89.815021 Degrees      dE/de5(xz)    -0.000308 eV/strain
       gamma      119.981675 Degrees      dE/de6(xy)    -0.000121 eV/strain
--------------------------------------------------------------------------------

  Primitive cell volume =          3662.703383 Angs**3

  Density of cell =      1.746822 g/cm**3

  Non-primitive cell volume =          3662.703383 Angs**3


  Final internal derivatives :

--------------------------------------------------------------------------------
   No.  Atomic          a             b             c           Radius
        Label          (eV)          (eV)          (eV)        (eV/Angs)
--------------------------------------------------------------------------------
      1 Ge    c       0.000000      0.000000      0.000000      0.000000
      2 Si    c       0.000165     -0.000116      0.000003      0.000000
      3 Si    c      -0.000030     -0.000030      0.000056      0.000000
      4 Si    c       0.000072      0.000021      0.000390      0.000000
      5 Si    c      -0.000058      0.000273     -0.000410      0.000000
      6 Si    c      -0.000116      0.000003      0.000550      0.000000
      7 Si    c      -0.000056     -0.000161      0.000000      0.000000
      8 Ge    c      -0.000134      0.000014      0.000207      0.000000
      9 Si    c       0.000221      0.000058     -0.000323      0.000000
     10 Si    c      -0.000177      0.000180      0.000423      0.000000
     11 Si    c      -0.000009      0.000036     -0.000098      0.000000
     12 Si    c      -0.001896     -0.001007      0.008629      0.000000
     13 Si    c      -0.001422      0.001644     -0.003848      0.000000
     14 Si    c       0.000019      0.000268     -0.000299      0.000000
     15 Si    c       0.000053      0.000027     -0.000908      0.000000
     16 Si    c      -0.000069      0.000081      0.000015      0.000000
     17 Ge    c      -0.000034     -0.000064      0.000210      0.000000
     18 Si    c      -0.000574      0.000200     -0.000505      0.000000
     19 Si    c      -0.000114      0.000068     -0.000128      0.000000
     20 Si    c      -0.000488      0.000370      0.000639      0.000000
     21 Si    c       0.000057      0.000091      0.000312      0.000000
     22 Si    c       0.000331     -0.000114      0.000515      0.000000
     23 Si    c      -0.000031      0.000017      0.000488      0.000000
     24 Si    c       0.000171      0.000027      0.000518      0.000000
     25 Si    c      -0.000075      0.000059     -0.000239      0.000000
     26 Si    c       0.000232     -0.000092      0.000255      0.000000
     27 Si    c       0.000040      0.000052      0.000469      0.000000
     28 Si    c       0.000086     -0.000016      0.000204      0.000000
     29 Si    c       0.000031     -0.000023      0.000149      0.000000
     30 Si    c      -0.000135     -0.000245     -0.000650      0.000000
     31 Si    c       0.000021      0.000007     -0.000226      0.000000
     32 Si    c       0.000239     -0.000284     -0.000590      0.000000
     33 Si    c      -0.000102      0.000016     -0.000115      0.000000
     34 Si    c       0.000266     -0.000347     -0.000238      0.000000
     35 Si    c       0.000107     -0.000182     -0.000259      0.000000
     36 Si    c      -0.000038     -0.000044     -0.000525      0.000000
     37 Si    c      -0.000056      0.000253     -0.000345      0.000000
     38 Si    c       0.000153     -0.000038     -0.000631      0.000000
     39 Si    c       0.000080     -0.000073     -0.000357      0.000000
     40 Si    c       0.000120      0.000017     -0.000136      0.000000
     41 Si    c      -0.000074      0.000060      0.000076      0.000000
     42 Si    c       0.000377     -0.000095      0.001749      0.000000
     43 Si    c      -0.000076      0.000017      0.000067      0.000000
     44 Si    c       0.000185     -0.000665     -0.001425      0.000000
     45 Si    c      -0.000056     -0.000030      0.000119      0.000000
     46 Si    c       0.000174     -0.000007      0.000121      0.000000
     47 Si    c      -0.000059     -0.000008      0.000459      0.000000
     48 Si    c      -0.000056     -0.000008      0.000487      0.000000
     49 Si    c      -0.000048      0.000086     -0.001371      0.000000
     50 Si    c       0.000125      0.000037     -0.000503      0.000000
     51 Si    c      -0.000073      0.000199     -0.000511      0.000000
     52 Si    c      -0.000132      0.000024     -0.000734      0.000000
     53 Si    c       0.000276     -0.000158      0.000412      0.000000
     54 Si    c      -0.000052      0.000090      0.000680      0.000000
     55 Si    c      -0.000169      0.000122      0.000001      0.000000
     56 Si    c       0.000055      0.000005     -0.000816      0.000000
     57 Si    c       0.000044     -0.000093     -0.000191      0.000000
     58 Si    c      -0.000079     -0.000250      0.000026      0.000000
     59 Si    c       0.000006      0.000101      0.000493      0.000000
     60 Si    c       0.000014     -0.000182      0.000503      0.000000
     61 O2    c       0.000033     -0.000594      0.001505      0.000000
     62 O2    c       0.000025     -0.000280      0.000185      0.000000
     63 O2    c       0.000126     -0.000069     -0.000036      0.000000
     64 O2    c      -0.000113     -0.000214     -0.000271      0.000000
     65 O2    c      -0.000216      0.000252      0.000018      0.000000
     66 O2    c      -0.000231      0.000080     -0.000375      0.000000
     67 O2    c      -0.000042      0.000154     -0.000503      0.000000
     68 O2    c       0.000013     -0.000095     -0.000171      0.000000
     69 O3    c       0.000590     -0.000154     -0.001091      0.000000
     70 O2    c      -0.000103     -0.000086     -0.000168      0.000000
     71 O2    c       0.000285      0.000023     -0.000031      0.000000
     72 O2    c      -0.000015     -0.000007     -0.000030      0.000000
     73 O3    c       0.000961     -0.001344     -0.000031      0.000000
     74 O2    c      -0.000033     -0.000009      0.000194      0.000000
     75 O2    c      -0.000045     -0.000056     -0.000150      0.000000
     76 O2    c      -0.000049     -0.000021      0.000113      0.000000
     77 O2    c       0.000133      0.000346      0.000838      0.000000
     78 O3    c       0.000237     -0.000162      0.000535      0.000000
     79 O2    c       0.000092     -0.000217      0.000108      0.000000
     80 O2    c       0.000011     -0.000006     -0.000172      0.000000
     81 O2    c      -0.000006     -0.000029      0.000083      0.000000
     82 O2    c       0.000083     -0.000017     -0.000173      0.000000
     83 O2    c      -0.000303      0.000154     -0.000228      0.000000
     84 O2    c       0.000069     -0.000251      0.000134      0.000000
     85 O2    c       0.000022     -0.000064      0.000082      0.000000
     86 O2    c       0.000590     -0.000482     -0.000300      0.000000
     87 O2    c      -0.000119     -0.000027      0.000068      0.000000
     88 O2    c       0.000098      0.000300      0.000193      0.000000
     89 O2    c       0.000047     -0.000011     -0.000026      0.000000
     90 O2    c      -0.000063     -0.000007      0.000181      0.000000
     91 O2    c       0.000007      0.000039      0.000125      0.000000
     92 O2    c       0.000111     -0.000043      0.000602      0.000000
     93 O2    c       0.000018      0.000107      0.001040      0.000000
     94 O2    c      -0.000040      0.000183     -0.000335      0.000000
     95 O2    c      -0.000062      0.000141      0.001083      0.000000
     96 O2    c       0.000163     -0.000042      0.000345      0.000000
     97 O2    c      -0.000375      0.000193      0.000031      0.000000
     98 O2    c      -0.000011      0.000186     -0.000174      0.000000
     99 O2    c       0.000007      0.000018     -0.000096      0.000000
    100 O2    c       0.000015     -0.000014      0.000102      0.000000
    101 O2    c       0.000100     -0.000193     -0.000090      0.000000
    102 O2    c       0.000101     -0.000034     -0.000279      0.000000
    103 O2    c      -0.000093      0.000038      0.000216      0.000000
    104 O2    c      -0.000627      0.000063     -0.000255      0.000000
    105 O2    c      -0.000019      0.000095     -0.000252      0.000000
    106 O2    c       0.000074     -0.000173      0.000263      0.000000
    107 O2    c      -0.000020     -0.000052      0.000117      0.000000
    108 O2    c       0.000039      0.000153     -0.000125      0.000000
    109 O2    c      -0.000043      0.000299     -0.000957      0.000000
    110 O2    c      -0.000112     -0.000027     -0.000351      0.000000
    111 O3    c       0.000007     -0.000014      0.000195      0.000000
    112 O2    c      -0.000039     -0.000032      0.000249      0.000000
    113 O3    c      -0.002750      0.001028     -0.009661      0.000000
    114 O2    c      -0.000023      0.000031     -0.000115      0.000000
    115 O2    c      -0.000155      0.000029     -0.000129      0.000000
    116 O2    c       0.000021      0.000047      0.000021      0.000000
    117 O2    c       0.000012     -0.000020     -0.000049      0.000000
    118 O2    c      -0.000035      0.000023      0.000037      0.000000
    119 O3    c      -0.000010     -0.000011      0.000039      0.000000
    120 O2    c       0.000122      0.000191     -0.000030      0.000000
    121 O2    c       0.000009      0.000013      0.000015      0.000000
    122 O2    c       0.000296     -0.000258      0.000205      0.000000
    123 O2    c      -0.000004      0.000008      0.000007      0.000000
    124 O2    c       0.000041     -0.000079      0.000030      0.000000
    125 O2    c       0.000067     -0.000016      0.000038      0.000000
    126 O2    c      -0.000026      0.000022      0.000062      0.000000
    127 O3    c      -0.000726     -0.000334     -0.000032      0.000000
    128 O2    c       0.000006      0.000053      0.000030      0.000000
    129 O2    c       0.000045     -0.000004      0.000022      0.000000
    130 O2    c      -0.000090      0.000070     -0.000002      0.000000
    131 O2    c       0.000004      0.000017     -0.000027      0.000000
    132 O2    c      -0.000050     -0.000030      0.000120      0.000000
    133 O2    c      -0.000015      0.000057     -0.000024      0.000000
    134 O3    c       0.000025      0.000039      0.000047      0.000000
    135 O2    c       0.000015     -0.000108      0.000139      0.000000
    136 O2    c       0.000006     -0.000005      0.000017      0.000000
    137 O2    c       0.000006      0.000011      0.000047      0.000000
    138 O2    c       0.000196      0.000204      0.000405      0.000000
    139 O3    c      -0.000150      0.000759      0.000857      0.000000
    140 O2    c      -0.000020      0.000029     -0.000045      0.000000
    141 O2    c      -0.000000     -0.000012      0.000010      0.000000
    142 O2    c      -0.000013     -0.000031      0.000047      0.000000
    143 O2    c      -0.000035      0.000014     -0.000025      0.000000
    144 O2    c       0.000169     -0.000170      0.000089      0.000000
    145 O2    c      -0.000011      0.000001     -0.000021      0.000000
    146 O3    c       0.000070      0.000120     -0.000068      0.000000
    147 O2    c      -0.000117      0.000122      0.000004      0.000000
    148 O2    c       0.000001      0.000008     -0.000004      0.000000
    149 O2    c       0.000022     -0.000047     -0.000032      0.000000
    150 O2    c       0.000335     -0.000472      0.001002      0.000000
    151 O2    c       0.000020     -0.000085      0.000709      0.000000
    152 O2    c      -0.000214      0.000065      0.000040      0.000000
    153 O2    c       0.000045     -0.000113     -0.000088      0.000000
    154 O2    c       0.000003     -0.000011     -0.000015      0.000000
    155 O2    c       0.000056     -0.000023     -0.000039      0.000000
    156 O2    c      -0.000241     -0.000218     -0.001780      0.000000
    157 O2    c       0.000026      0.000037      0.000023      0.000000
    158 O2    c      -0.000505     -0.000406      0.005151      0.000000
    159 O2    c       0.000017      0.000008      0.000019      0.000000
    160 O2    c      -0.000003     -0.000040      0.000271      0.000000
    161 O2    c      -0.000041      0.000139     -0.000200      0.000000
    162 O2    c       0.000240     -0.000040     -0.000458      0.000000
    163 O2    c       0.000178     -0.000196     -0.000297      0.000000
    164 O2    c      -0.000012     -0.000002     -0.000050      0.000000
    165 O2    c       0.000028     -0.000036      0.000028      0.000000
    166 O2    c       0.000033     -0.000033      0.000027      0.000000
    167 O3    c      -0.000016      0.000112     -0.000349      0.000000
    168 O2    c       0.000061     -0.000101     -0.000489      0.000000
    169 O2    c      -0.000016     -0.000002      0.000031      0.000000
    170 O2    c       0.000038     -0.000403      0.000484      0.000000
    171 O2    c       0.000002     -0.000005      0.000016      0.000000
    172 O2    c       0.000173     -0.000052      0.000036      0.000000
    173 O2    c      -0.000019     -0.000031      0.000019      0.000000
    174 O2    c      -0.000048      0.000054      0.000039      0.000000
    175 O2    c      -0.000072     -0.000103     -0.000129      0.000000
    176 O2    c       0.000129      0.000029      0.000325      0.000000
    177 O2    c      -0.000061      0.000088     -0.000236      0.000000
    178 O3    c       0.000065     -0.000023      0.000220      0.000000
    179 O2    c       0.000044     -0.000049      0.000647      0.000000
    180 O2    c       0.000055     -0.000059     -0.000078      0.000000
    181 F     c       0.000087      0.000048      0.000196      0.000000
    182 F     c       0.000110      0.000018      0.000085      0.000000
    183 F     c       0.000001      0.000008      0.000003      0.000000
    184 F     c       0.000002     -0.000004      0.000063      0.000000
    185 F     c      -0.001505      0.000436     -0.001860      0.000000
    186 F     c       0.000047      0.000004      0.000055      0.000000
    187 O2    s       0.000114      0.000272     -0.000578      0.000000
    188 O2    s       0.000026     -0.000119      0.000013      0.000000
    189 O2    s      -0.000044     -0.000007      0.000073      0.000000
    190 O2    s      -0.000027      0.000067      0.000054      0.000000
    191 O2    s      -0.000040      0.000202      0.000088      0.000000
    192 O2    s       0.000130     -0.000141      0.000071      0.000000
    193 O2    s       0.000070     -0.000021      0.000320      0.000000
    194 O2    s      -0.000019      0.000017      0.000044      0.000000
    195 O3    s      -0.000312      0.000265      0.000053      0.000000
    196 O2    s       0.000070      0.000016      0.000013      0.000000
    197 O2    s      -0.000157     -0.000197      0.000335      0.000000
    198 O2    s       0.000027      0.000023     -0.000008      0.000000
    199 O3    s      -0.001378      0.000814     -0.000088      0.000000
    200 O2    s       0.000053     -0.000006     -0.000126      0.000000
    201 O2    s      -0.000046      0.000067     -0.000038      0.000000
    202 O2    s       0.000009      0.000019      0.000036      0.000000
    203 O2    s       0.000238     -0.000299     -0.000185      0.000000
    204 O3    s      -0.000102      0.000030     -0.000346      0.000000
    205 O2    s       0.000297      0.000086     -0.000246      0.000000
    206 O2    s       0.000088     -0.000087      0.000219      0.000000
    207 O2    s       0.000044     -0.000033     -0.000049      0.000000
    208 O2    s       0.000072     -0.000005     -0.000001      0.000000
    209 O2    s      -0.000035     -0.000034      0.000068      0.000000
    210 O2    s       0.000141     -0.000148      0.000458      0.000000
    211 O2    s      -0.000010     -0.000021     -0.000089      0.000000
    212 O2    s       0.000432      0.000103     -0.001102      0.000000
    213 O2    s       0.000024     -0.000029     -0.000220      0.000000
    214 O2    s       0.000002     -0.000094     -0.000336      0.000000
    215 O2    s      -0.000018      0.000086      0.000227      0.000000
    216 O2    s       0.000030      0.000009     -0.000218      0.000000
    217 O2    s       0.000021     -0.000088      0.000225      0.000000
    218 O2    s      -0.000091      0.000043     -0.000044      0.000000
    219 O2    s       0.000086     -0.000038     -0.001094      0.000000
    220 O2    s       0.000114     -0.000097      0.000330      0.000000
    221 O2    s       0.000064      0.000102      0.000358      0.000000
    222 O2    s      -0.000078      0.000110     -0.000131      0.000000
    223 O2    s      -0.000001      0.000289      0.000027      0.000000
    224 O2    s       0.000015      0.000204     -0.000168      0.000000
    225 O2    s       0.000031     -0.000086     -0.000010      0.000000
    226 O2    s      -0.000047     -0.000009      0.000035      0.000000
    227 O2    s       0.000045     -0.000062      0.000042      0.000000
    228 O2    s      -0.000007      0.000054      0.000366      0.000000
    229 O2    s       0.000017      0.000124     -0.000212      0.000000
    230 O2    s      -0.000408      0.000211      0.000027      0.000000
    231 O2    s      -0.000045      0.000058     -0.000107      0.000000
    232 O2    s       0.000137     -0.000180      0.000058      0.000000
    233 O2    s       0.000058      0.000045     -0.000214      0.000000
    234 O2    s       0.000011      0.000027      0.000257      0.000000
    235 O2    s      -0.000071     -0.000154      0.000620      0.000000
    236 O2    s      -0.000010      0.000007      0.000090      0.000000
    237 O3    s       0.000026     -0.000068     -0.000043      0.000000
    238 O2    s      -0.000007      0.000029     -0.000173      0.000000
    239 O3    s       0.003415     -0.000493      0.005219      0.000000
    240 O2    s      -0.000037     -0.000011      0.000027      0.000000
    241 O2    s      -0.000232     -0.000205      0.000591      0.000000
    242 O2    s      -0.000072     -0.000006     -0.000045      0.000000
    243 O2    s       0.000016      0.000023      0.000205      0.000000
    244 O2    s       0.000031     -0.000022     -0.000022      0.000000
    245 O3    s       0.000016     -0.000001     -0.000102      0.000000
    246 O2    s       0.000448     -0.000491      0.000790      0.000000
    247 O2    s       0.000040     -0.000009      0.000052      0.000000
    248 O2    s       0.000442      0.000259     -0.001230      0.000000
    249 O2    s       0.000052     -0.000026     -0.000031      0.000000
    250 O2    s      -0.000029     -0.000010     -0.000121      0.000000
    251 O2    s       0.000025     -0.000008     -0.000032      0.000000
    252 O2    s       0.000095     -0.000022     -0.000222      0.000000
    253 O3    s       0.000450      0.000266     -0.000097      0.000000
    254 O2    s      -0.000029     -0.000017     -0.000024      0.000000
    255 O2    s      -0.000012     -0.000004     -0.000022      0.000000
    256 O2    s       0.000075     -0.000050     -0.000024      0.000000
    257 O2    s      -0.000057      0.000080      0.000006      0.000000
    258 O2    s       0.000056      0.000130     -0.000398      0.000000
    259 O2    s       0.000019     -0.000051      0.000381      0.000000
    260 O3    s      -0.000024     -0.000072      0.000083      0.000000
    261 O2    s      -0.000123      0.000110     -0.000315      0.000000
    262 O2    s       0.000001      0.000029     -0.000052      0.000000
    263 O2    s       0.000026     -0.000012     -0.000089      0.000000
    264 O2    s      -0.000260     -0.000378     -0.002726      0.000000
    265 O3    s      -0.000871     -0.000723     -0.002923      0.000000
    266 O2    s       0.000054     -0.000013      0.000153      0.000000
    267 O2    s       0.000011      0.000002     -0.000079      0.000000
    268 O2    s       0.000043      0.000054     -0.000018      0.000000
    269 O2    s      -0.000027      0.000021     -0.000083      0.000000
    270 O2    s      -0.000156      0.000238     -0.000103      0.000000
    271 O2    s       0.000080      0.000052      0.000124      0.000000
    272 O3    s      -0.000008     -0.000173     -0.000002      0.000000
    273 O2    s       0.000066     -0.000199     -0.000234      0.000000
    274 O2    s      -0.000018     -0.000035     -0.000021      0.000000
    275 O2    s       0.000011     -0.000006      0.000098      0.000000
    276 O2    s      -0.001347      0.001243     -0.001280      0.000000
    277 O2    s      -0.000015      0.000031      0.000023      0.000000
    278 O2    s       0.000085      0.000032      0.000160      0.000000
    279 O2    s       0.000019      0.000047      0.000004      0.000000
    280 O2    s      -0.000034      0.000025     -0.000029      0.000000
    281 O2    s      -0.000060     -0.000004      0.000053      0.000000
    282 O2    s       0.000184      0.000287     -0.000933      0.000000
    283 O2    s       0.000027     -0.000052     -0.000016      0.000000
    284 O2    s       0.000408      0.000764      0.000065      0.000000
    285 O2    s      -0.000057     -0.000009     -0.000096      0.000000
    286 O2    s      -0.000052      0.000063     -0.000173      0.000000
    287 O2    s       0.000008     -0.000099      0.000276      0.000000
    288 O2    s      -0.000175      0.000010      0.000302      0.000000
    289 O2    s      -0.000409      0.000232      0.000204      0.000000
    290 O2    s       0.000113      0.000048      0.000070      0.000000
    291 O2    s       0.000062     -0.000038      0.000064      0.000000
    292 O2    s       0.000004      0.000031      0.000013      0.000000
    293 O3    s       0.000039     -0.000166      0.000513      0.000000
    294 O2    s      -0.000206      0.000380      0.001939      0.000000
    295 O2    s       0.000016      0.000060     -0.000036      0.000000
    296 O2    s      -0.000321      0.000153     -0.001195      0.000000
    297 O2    s      -0.000008     -0.000039     -0.000076      0.000000
    298 O2    s       0.000057     -0.000073     -0.000048      0.000000
    299 O2    s       0.000088      0.000016     -0.000060      0.000000
    300 O2    s      -0.000011      0.000043      0.000257      0.000000
    301 O2    s       0.000063      0.000020      0.000370      0.000000
    302 O2    s      -0.000036     -0.000058     -0.000000      0.000000
    303 O2    s      -0.000049     -0.000008     -0.001018      0.000000
    304 O3    s      -0.000108      0.000027     -0.000069      0.000000
    305 O2    s       0.000777     -0.000125     -0.000439      0.000000
    306 O2    s      -0.000020      0.000081      0.000099      0.000000
    307 F     s      -0.000067     -0.000000     -0.000368      0.000000
    308 F     s      -0.000133     -0.000015     -0.000055      0.000000
    309 F     s       0.000012     -0.000070     -0.000020      0.000000
    310 F     s      -0.000007     -0.000022     -0.000082      0.000000
    311 F     s      -0.002141     -0.000004     -0.005529      0.000000
    312 F     s      -0.000054      0.000002     -0.000101      0.000000
--------------------------------------------------------------------------------
  Maximum abs         0.003415      0.001644      0.009661      0.000000
--------------------------------------------------------------------------------


  Time to end of optimisation =       8.8605 seconds


  Peak dynamic memory used =      19.13 MB 


  Timing analysis for GULP :

--------------------------------------------------------------------------------
  Task / Subroutine                                          Time (Seconds)
--------------------------------------------------------------------------------
  Calculation of reciprocal space energy and derivatives          0.3184
  Calculation of real space energy and derivatives                7.3899
  Calculation of three-body energy and derivatives                0.8309
  Calculation of matrix inversion                                 0.1920
--------------------------------------------------------------------------------
  Total CPU time                                                  8.8606
--------------------------------------------------------------------------------


  Dump file written as out.res                                                 
  CIF file written as out.cif                                                 


  Job Finished at 20:43.03  3rd December   2016                               

