********************************************************************************
*                       GENERAL UTILITY LATTICE PROGRAM                        *
*                                 Julian Gale                                  *
*                      Nanochemistry Research Institute                        *
*                           Department of Chemistry                            *
*                    Curtin University, Western Australia                      *
********************************************************************************
* Version = 4.2.0 * Last modified =  20th January 2014                         *
********************************************************************************
*  optimise     - perform optimisation run                                     *
*  conp         - constant pressure calculation                                *
*  qok          - running with non charge neutral cell is OK                   *
********************************************************************************

  Job Started  at 19:49.51  3rd December   2016                               

  Number of CPUs =     1


  Total number of configurations input =   1

********************************************************************************
*  Input for Configuration =   1                                               *
********************************************************************************

  Formula = Ge3Si57O120F6                                               

  Number of irreducible atoms/shells =     312


  Total number atoms/shells =     312

  Dimensionality = 3               :  Bulk   


  Charge on solid   =  -6.000000 =>neutralising background added


  Cartesian lattice vectors (Angstroms) :

       11.881912    0.000000    0.000000
       -5.987727   10.422109    0.000000
        0.196901   -0.311617   29.515100

  Cell parameters (Angstroms/Degrees):

  a =      11.8819    alpha =  90.7149
  b =      12.0197    beta  =  89.6178
  c =      29.5174    gamma = 119.8783

  Initial cell volume =        3654.990107 Angs**3

  Temperature of configuration =  0.000     K 

  Pressure of configuration =         0.000 GPa 

  Fractional coordinates of asymmetric unit :

--------------------------------------------------------------------------------
   No.  Atomic       x           y          z         Charge      Occupancy
        Label      (Frac)      (Frac)     (Frac)        (e)         (Frac)  
--------------------------------------------------------------------------------
      1 Ge    c    0.699600    0.375700    0.033890     4.00000    1.000000    
      2 Si    c    0.622135 *  0.322296 *  0.363435 *   4.00000    1.000000    
      3 Si    c    0.674691 *  0.307533 *  0.696133 *   4.00000    1.000000    
      4 Si    c    0.291879 *  0.621518 *  0.526019 *   4.00000    1.000000    
      5 Si    c    0.369760 *  0.675077 *  0.859264 *   4.00000    1.000000    
      6 Si    c    0.320451 *  0.701762 *  0.193917 *   4.00000    1.000000    
      7 Si    c    0.374955 *  0.696235 *  0.294210 *   4.00000    1.000000    
      8 Ge    c    0.325683 *  0.611011 *  0.957027 *   4.00000    1.000000    
      9 Si    c    0.295538 *  0.679626 *  0.626273 *   4.00000    1.000000    
     10 Si    c    0.620660 *  0.305067 *  0.798820 *   4.00000    1.000000    
     11 Si    c    0.672738 *  0.382560 *  0.463730 *   4.00000    1.000000    
     12 Si    c    0.685311 *  0.318252 *  0.132256 *   4.00000    1.000000    
     13 Si    c    0.527714 *  0.419317 *  0.968012 *   4.00000    1.000000    
     14 Si    c    0.582667 *  0.107353 *  0.300594 *   4.00000    1.000000    
     15 Si    c    0.887548 *  0.477186 *  0.631048 *   4.00000    1.000000    
     16 Si    c    0.463344 *  0.582049 *  0.460282 *   4.00000    1.000000    
     17 Si    c    0.408587 *  0.880696 *  0.792840 *   4.00000    1.000000    
     18 Si    c    0.109277 *  0.531230 *  0.126580 *   4.00000    1.000000    
     19 Si    c    0.413839 *  0.525394 *  0.358702 *   4.00000    1.000000    
     20 Si    c    0.107075 *  0.577355 *  0.022951 *   4.00000    1.000000    
     21 Si    c    0.468447 *  0.893105 *  0.689640 *   4.00000    1.000000    
     22 Si    c    0.587225 *  0.474165 *  0.865613 *   4.00000    1.000000    
     23 Si    c    0.881509 *  0.421457 *  0.529529 *   4.00000    1.000000    
     24 Si    c    0.529666 *  0.111363 *  0.199690 *   4.00000    1.000000    
     25 Si    c    0.297422 *  0.393814 *  0.848466 *   4.00000    1.000000    
     26 Si    c    0.601705 *  0.904107 *  0.181436 *   4.00000    1.000000    
     27 Si    c    0.090011 *  0.700463 *  0.513549 *   4.00000    1.000000    
     28 Si    c    0.698028 *  0.597347 *  0.346562 *   4.00000    1.000000    
     29 Si    c    0.394215 *  0.104618 *  0.675776 *   4.00000    1.000000    
     30 Si    c    0.888821 *  0.290551 *  0.010791 *   4.00000    1.000000    
     31 Si    c    0.391701 *  0.304221 *  0.476531 *   4.00000    1.000000    
     32 Si    c    0.892107 *  0.601604 *  0.141182 *   4.00000    1.000000    
     33 Si    c    0.693062 *  0.094945 *  0.810575 *   4.00000    1.000000    
     34 Si    c    0.598681 *  0.705572 *  0.982072 *   4.00000    1.000000    
     35 Si    c    0.097304 *  0.403919 *  0.643433 *   4.00000    1.000000    
     36 Si    c    0.300407 *  0.897929 *  0.312003 *   4.00000    1.000000    
     37 Si    c    0.240685 *  0.332011 *  0.950119 *   4.00000    1.000000    
     38 Si    c    0.657694 *  0.905632 *  0.281856 *   4.00000    1.000000    
     39 Si    c    0.086897 *  0.754377 *  0.614388 *   4.00000    1.000000    
     40 Si    c    0.744401 *  0.660170 *  0.447027 *   4.00000    1.000000    
     41 Ge    c    0.354192 *  0.091469 *  0.775560 *   4.00000    1.000000    
     42 Si    c    0.903114 *  0.250118 *  0.113485 *   4.00000    1.000000    
     43 Si    c    0.337580 *  0.248984 *  0.375815 *   4.00000    1.000000    
     44 Si    c    0.900286 *  0.657126 *  0.039054 *   4.00000    1.000000    
     45 Si    c    0.748804 *  0.094618 *  0.708454 *   4.00000    1.000000    
     46 Si    c    0.657704 *  0.752448 *  0.879408 *   4.00000    1.000000    
     47 Si    c    0.083513 *  0.342693 *  0.542697 *   4.00000    1.000000    
     48 Si    c    0.248897 *  0.909805 *  0.212141 *   4.00000    1.000000    
     49 Si    c    0.966968 *  0.113227 *  0.961430 *   4.00000    1.000000    
     50 Si    c    0.876375 *  0.843588 *  0.296265 *   4.00000    1.000000    
     51 Si    c    0.147849 *  0.033792 *  0.626640 *   4.00000    1.000000    
     52 Si    c    0.023570 *  0.879469 *  0.462090 *   4.00000    1.000000    
     53 Si    c    0.123509 *  0.146108 *  0.794521 *   4.00000    1.000000    
     54 Si    c    0.851997 *  0.976500 *  0.130294 *   4.00000    1.000000    
     55 Si    c    0.120201 *  0.968205 *  0.361507 *   4.00000    1.000000    
     56 Si    c    0.853567 *  0.881659 *  0.029756 *   4.00000    1.000000    
     57 Si    c    0.032754 *  0.159550 *  0.694177 *   4.00000    1.000000    
     58 Si    c    0.876396 *  0.027243 *  0.859851 *   4.00000    1.000000    
     59 Si    c    0.142573 *  0.123731 *  0.526789 *   4.00000    1.000000    
     60 Si    c    0.969241 *  0.851118 *  0.194530 *   4.00000    1.000000    
     61 O2    c    0.921856 *  0.994982 *  0.994409 *   0.87073    1.000000    
     62 O2    c    0.999609 *  0.925771 *  0.328176 *   0.87073    1.000000    
     63 O2    c    0.072611 *  0.079190 *  0.660618 *   0.87073    1.000000    
     64 O2    c    0.064773 *  0.003188 *  0.493554 *   0.87073    1.000000    
     65 O2    c    0.995157 *  0.068940 *  0.825826 *   0.87073    1.000000    
     66 O2    c    0.932962 *  0.938011 *  0.163796 *   0.87073    1.000000    
     67 O2    c    0.337263 *  0.571995 *  0.325472 *   0.87073    1.000000    
     68 O2    c    0.423153 *  0.769215 *  0.656904 *   0.87073    1.000000    
     69 O3    c    0.228000 *  0.651570 *  0.991781 *   1.33043    1.000000    
     70 O2    c    0.667530 *  0.428120 *  0.833042 *   0.87073    1.000000    
     71 O2    c    0.577986 *  0.240290 *  0.170899 *   0.87073    1.000000    
     72 O2    c    0.754616 *  0.344487 *  0.497713 *   0.87073    1.000000    
     73 O3    c    0.565349 *  0.338465 *  0.999530 *   1.33043    1.000000    
     74 O2    c    0.763501 *  0.429999 *  0.664763 *   0.87073    1.000000    
     75 O2    c    0.660740 *  0.232665 *  0.333113 *   0.87073    1.000000    
     76 O2    c    0.413051 *  0.659484 *  0.492112 *   0.87073    1.000000    
     77 O2    c    0.234945 *  0.582740 *  0.159420 *   0.87073    1.000000    
     78 O2    c    0.338881 *  0.748092 *  0.819938 *   0.87073    1.000000    
     79 O2    c    0.121857 *  0.195075 *  0.966662 *   0.87073    1.000000    
     80 O2    c    0.782960 *  0.904258 *  0.302548 *   0.87073    1.000000    
     81 O2    c    0.086323 *  0.880875 *  0.633924 *   0.87073    1.000000    
     82 O2    c    0.868720 *  0.788335 *  0.467306 *   0.87073    1.000000    
     83 O3    c    0.207838 *  0.080733 *  0.797432 *   1.33043    1.000000    
     84 O2    c    0.908868 *  0.129461 *  0.135137 *   0.87073    1.000000    
     85 O2    c    0.212011 *  0.121460 *  0.355884 *   0.87073    1.000000    
     86 O2    c    0.921862 *  0.796207 *  0.023518 *   0.87073    1.000000    
     87 O2    c    0.877161 *  0.099487 *  0.688136 *   0.87073    1.000000    
     88 O2    c    0.781723 *  0.873607 *  0.856459 *   0.87073    1.000000    
     89 O2    c    0.079242 *  0.214820 *  0.522107 *   0.87073    1.000000    
     90 O2    c    0.124413 *  0.912492 *  0.191370 *   0.87073    1.000000    
     91 O2    c    0.925664 *  0.856585 *  0.245310 *   0.87073    1.000000    
     92 O2    c    0.124780 *  0.067011 *  0.576565 *   0.87073    1.000000    
     93 O2    c    0.928375 *  0.063893 *  0.910359 *   0.87073    1.000000    
     94 O2    c    0.068347 *  0.146026 *  0.744623 *   0.87073    1.000000    
     95 O2    c    0.872193 *  0.940418 *  0.079964 *   0.87073    1.000000    
     96 O2    c    0.064683 *  0.930212 *  0.411719 *   0.87073    1.000000    
     97 O2    c    0.900069 *  0.197352 *  0.973234 *   0.87073    1.000000    
     98 O2    c    0.797563 *  0.692808 *  0.308461 *   0.87073    1.000000    
     99 O2    c    0.303123 *  0.103477 *  0.634242 *   0.87073    1.000000    
    100 O2    c    0.092550 *  0.797771 *  0.475397 *   0.87073    1.000000    
    101 O2    c    0.208410 *  0.296897 *  0.808864 *   0.87073    1.000000    
    102 O2    c    0.699079 *  0.904110 *  0.142502 *   0.87073    1.000000    
    103 O2    c    0.202198 *  0.897044 *  0.350808 *   0.87073    1.000000    
    104 O2    c    0.700263 *  0.796414 *  0.020588 *   0.87073    1.000000    
    105 O2    c    0.101947 *  0.310037 *  0.681569 *   0.87073    1.000000    
    106 O2    c    0.791330 *  0.095004 *  0.848093 *   0.87073    1.000000    
    107 O2    c    0.295166 *  0.207814 *  0.515060 *   0.87073    1.000000    
    108 O2    c    0.898007 *  0.702261 *  0.179543 *   0.87073    1.000000    
    109 O2    c    0.319292 *  0.641627 *  0.243403 *   0.87073    1.000000    
    110 O2    c    0.352125 *  0.678087 *  0.576021 *   0.87073    1.000000    
    111 O3    c    0.308608 *  0.684369 *  0.906081 *   1.33043    1.000000    
    112 O2    c    0.673737 *  0.357745 *  0.747499 *   0.87073    1.000000    
    113 O3    c    0.612318 *  0.304868 *  0.085799 *   1.33043    1.000000    
    114 O2    c    0.677784 *  0.324951 *  0.413984 *   0.87073    1.000000    
    115 O2    c    0.370517 *  0.332608 *  0.966099 *   0.87073    1.000000    
    116 O2    c    0.669200 *  0.037011 *  0.302076 *   0.87073    1.000000    
    117 O2    c    0.956245 *  0.632629 *  0.634222 *   0.87073    1.000000    
    118 O2    c    0.620061 *  0.670514 *  0.464062 *   0.87073    1.000000    
    119 O3    c    0.318262 *  0.942319 *  0.799060 *   1.33043    1.000000    
    120 O2    c    0.035389 *  0.376201 *  0.130026 *   0.87073    1.000000    
    121 O2    c    0.327485 *  0.369528 *  0.356427 *   0.87073    1.000000    
    122 O2    c    0.033053 *  0.660584 *  0.024050 *   0.87073    1.000000    
    123 O2    c    0.625986 *  0.965158 *  0.689004 *   0.87073    1.000000    
    124 O2    c    0.668075 *  0.628946 *  0.863173 *   0.87073    1.000000    
    125 O2    c    0.949224 *  0.333000 *  0.526225 *   0.87073    1.000000    
    126 O2    c    0.372729 *  0.041754 *  0.195398 *   0.87073    1.000000    
    127 O3    c    0.752207 *  0.280057 *  0.002757 *   1.33043    1.000000    
    128 O2    c    0.698122 *  0.463107 *  0.340106 *   0.87073    1.000000    
    129 O2    c    0.531479 *  0.239683 *  0.673358 *   0.87073    1.000000    
    130 O2    c    0.223051 *  0.697286 *  0.505295 *   0.87073    1.000000    
    131 O2    c    0.299044 *  0.527166 *  0.840283 *   0.87073    1.000000    
    132 O2    c    0.465732 *  0.772384 *  0.172400 *   0.87073    1.000000    
    133 O2    c    0.298805 *  0.763134 *  0.317722 *   0.87073    1.000000    
    134 O3    c    0.469766 *  0.710787 *  0.989494 *   1.33043    1.000000    
    135 O2    c    0.230650 *  0.539679 *  0.650121 *   0.87073    1.000000    
    136 O2    c    0.690416 *  0.227294 *  0.817651 *   0.87073    1.000000    
    137 O2    c    0.527566 *  0.307413 *  0.485137 *   0.87073    1.000000    
    138 O2    c    0.761104 *  0.467308 *  0.150928 *   0.87073    1.000000    
    139 O3    c    0.772108 *  0.544614 *  0.017922 *   1.33043    1.000000    
    140 O2    c    0.465349 *  0.248181 *  0.357555 *   0.87073    1.000000    
    141 O2    c    0.739133 *  0.217001 *  0.692775 *   0.87073    1.000000    
    142 O2    c    0.208280 *  0.466124 *  0.521737 *   0.87073    1.000000    
    143 O2    c    0.528437 *  0.745136 *  0.859803 *   0.87073    1.000000    
    144 O2    c    0.245439 *  0.783107 *  0.191454 *   0.87073    1.000000    
    145 O2    c    0.531524 *  0.777942 *  0.299795 *   0.87073    1.000000    
    146 O3    c    0.223767 *  0.444054 *  0.971367 *   1.33043    1.000000    
    147 O2    c    0.215639 *  0.756374 *  0.632704 *   0.87073    1.000000    
    148 O3    c    0.466862 *  0.233947 *  0.804431 *   1.33043    1.000000    
    149 O2    c    0.746788 *  0.538104 *  0.468143 *   0.87073    1.000000    
    150 O2    c    0.778796 *  0.254183 *  0.133108 *   0.87073    1.000000    
    151 O2    c    0.226558 *  0.325491 *  0.894932 *   0.87073    1.000000    
    152 O2    c    0.676041 *  0.905927 *  0.227527 *   0.87073    1.000000    
    153 O2    c    0.085945 *  0.770400 *  0.560176 *   0.87073    1.000000    
    154 O2    c    0.767085 *  0.674088 *  0.392890 *   0.87073    1.000000    
    155 O3    c    0.308829 *  0.096878 *  0.718607 *   1.33043    1.000000    
    156 O2    c    0.898469 *  0.231211 *  0.059375 *   0.87073    1.000000    
    157 O2    c    0.318459 *  0.232807 *  0.430063 *   0.87073    1.000000    
    158 O2    c    0.889003 *  0.665699 *  0.094310 *   0.87073    1.000000    
    159 O2    c    0.757431 *  0.091848 *  0.762595 *   0.87073    1.000000    
    160 O2    c    0.669870 *  0.768950 *  0.933742 *   0.87073    1.000000    
    161 O2    c    0.091601 *  0.328789 *  0.596819 *   0.87073    1.000000    
    162 O2    c    0.229244 *  0.905867 *  0.266462 *   0.87073    1.000000    
    163 O2    c    0.572632 *  0.560812 *  0.988600 *   0.87073    1.000000    
    164 O2    c    0.440206 *  0.021326 *  0.323000 *   0.87073    1.000000    
    165 O2    c    0.970095 *  0.416884 *  0.653083 *   0.87073    1.000000    
    166 O2    c    0.404635 *  0.443156 *  0.484245 *   0.87073    1.000000    
    167 O2    c    0.551489 *  0.970935 *  0.816001 *   0.87073    1.000000    
    168 O2    c    0.017660 *  0.584503 *  0.146129 *   0.87073    1.000000    
    169 O2    c    0.557358 *  0.581646 *  0.336806 *   0.87073    1.000000    
    170 O2    c    0.008833 *  0.434162 *  0.003693 *   0.87073    1.000000    
    171 O2    c    0.418113 *  0.983888 *  0.668270 *   0.87073    1.000000    
    172 O2    c    0.443782 *  0.419547 *  0.845127 *   0.87073    1.000000    
    173 O2    c    0.964458 *  0.560706 *  0.505956 *   0.87073    1.000000    
    174 O2    c    0.589383 *  0.030674 *  0.174840 *   0.87073    1.000000    
    175 O2    c    0.581921 *  0.161346 *  0.250665 *   0.87073    1.000000    
    176 O2    c    0.830196 *  0.423496 *  0.580667 *   0.87073    1.000000    
    177 O2    c    0.585167 *  0.428371 *  0.916776 *   0.87073    1.000000    
    178 O2    c    0.415379 *  0.842369 *  0.739960 *   0.87073    1.000000    
    179 O2    c    0.152852 *  0.572892 *  0.075103 *   0.87073    1.000000    
    180 O2    c    0.411375 *  0.579856 *  0.409267 *   0.87073    1.000000    
    181 F     c    0.449548 *  0.900593 *  0.247192 *   0.56000    1.000000    
    182 F     c    0.093044 *  0.551730 *  0.579655 *   0.56000    1.000000    
    183 F     c    0.421832 *  0.559173 *  0.921753 *   0.56000    1.000000    
    184 F     c    0.507628 *  0.098144 *  0.749250 *   0.56000    1.000000    
    185 F     c    0.850079 *  0.433609 *  0.069622 *   0.56000    1.000000    
    186 F     c    0.546336 *  0.452256 *  0.411887 *   0.56000    1.000000    
    187 O2    s    0.919132 *  0.995584 *  0.994680 *  -2.87073    1.000000    
    188 O2    s    0.999321 *  0.921306 *  0.328345 *  -2.87073    1.000000    
    189 O2    s    0.076564 *  0.083107 *  0.660560 *  -2.87073    1.000000    
    190 O2    s    0.068879 *  0.002848 *  0.493760 *  -2.87073    1.000000    
    191 O2    s    0.994918 *  0.072205 *  0.826445 *  -2.87073    1.000000    
    192 O2    s    0.928099 *  0.932646 *  0.163518 *  -2.87073    1.000000    
    193 O2    s    0.348916 *  0.579832 *  0.325684 *  -2.87073    1.000000    
    194 O2    s    0.414936 *  0.773110 *  0.657209 *  -2.87073    1.000000    
    195 O3    s    0.221213 *  0.640501 *  0.992850 *  -3.33043    1.000000    
    196 O2    s    0.654802 *  0.420605 *  0.832936 *  -2.87073    1.000000    
    197 O2    s    0.583972 *  0.234613 *  0.169960 *  -2.87073    1.000000    
    198 O2    s    0.759412 *  0.356461 *  0.497518 *  -2.87073    1.000000    
    199 O3    s    0.571352 *  0.349929 *  0.998721 *  -3.33043    1.000000    
    200 O2    s    0.766753 *  0.421913 *  0.664653 *  -2.87073    1.000000    
    201 O2    s    0.648759 *  0.228986 *  0.332892 *  -2.87073    1.000000    
    202 O2    s    0.405587 *  0.647525 *  0.492372 *  -2.87073    1.000000    
    203 O2    s    0.230732 *  0.589558 *  0.159569 *  -2.87073    1.000000    
    204 O2    s    0.349760 *  0.754834 *  0.821143 *  -2.87073    1.000000    
    205 O2    s    0.117153 *  0.200178 *  0.964403 *  -2.87073    1.000000    
    206 O2    s    0.779880 *  0.897870 *  0.299741 *  -2.87073    1.000000    
    207 O2    s    0.092786 *  0.883688 *  0.631168 *  -2.87073    1.000000    
    208 O2    s    0.872412 *  0.784827 *  0.464681 *  -2.87073    1.000000    
    209 O3    s    0.207986 *  0.088909 *  0.795663 *  -3.33043    1.000000    
    210 O2    s    0.902281 *  0.125737 *  0.132428 *  -2.87073    1.000000    
    211 O2    s    0.215334 *  0.118501 *  0.358520 *  -2.87073    1.000000    
    212 O2    s    0.912206 *  0.791649 *  0.025741 *  -2.87073    1.000000    
    213 O2    s    0.879238 *  0.105149 *  0.690930 *  -2.87073    1.000000    
    214 O2    s    0.778780 *  0.877199 *  0.859183 *  -2.87073    1.000000    
    215 O2    s    0.086381 *  0.218393 *  0.524707 *  -2.87073    1.000000    
    216 O2    s    0.120727 *  0.905607 *  0.193858 *  -2.87073    1.000000    
    217 O2    s    0.924972 *  0.854477 *  0.245375 *  -2.87073    1.000000    
    218 O2    s    0.129385 *  0.069682 *  0.576583 *  -2.87073    1.000000    
    219 O2    s    0.926691 *  0.065196 *  0.910263 *  -2.87073    1.000000    
    220 O2    s    0.069978 *  0.147617 *  0.743966 *  -2.87073    1.000000    
    221 O2    s    0.867838 *  0.938056 *  0.080152 *  -2.87073    1.000000    
    222 O2    s    0.066281 *  0.928737 *  0.411775 *  -2.87073    1.000000    
    223 O2    s    0.906283 *  0.197768 *  0.975851 *  -2.87073    1.000000    
    224 O2    s    0.795701 *  0.698911 *  0.311065 *  -2.87073    1.000000    
    225 O2    s    0.296002 *  0.096367 *  0.637507 *  -2.87073    1.000000    
    226 O2    s    0.084955 *  0.796404 *  0.477917 *  -2.87073    1.000000    
    227 O2    s    0.209265 *  0.291932 *  0.811624 *  -2.87073    1.000000    
    228 O2    s    0.705220 *  0.911715 *  0.145195 *  -2.87073    1.000000    
    229 O2    s    0.203459 *  0.904677 *  0.347996 *  -2.87073    1.000000    
    230 O2    s    0.706291 *  0.796171 *  0.017564 *  -2.87073    1.000000    
    231 O2    s    0.094235 *  0.303919 *  0.678971 *  -2.87073    1.000000    
    232 O2    s    0.789633 *  0.088034 *  0.845325 *  -2.87073    1.000000    
    233 O2    s    0.288784 *  0.208721 *  0.512378 *  -2.87073    1.000000    
    234 O2    s    0.905060 *  0.707902 *  0.177193 *  -2.87073    1.000000    
    235 O2    s    0.324992 *  0.653160 *  0.243527 *  -2.87073    1.000000    
    236 O2    s    0.340098 *  0.672417 *  0.576077 *  -2.87073    1.000000    
    237 O3    s    0.316045 *  0.678720 *  0.904483 *  -3.33043    1.000000    
    238 O2    s    0.668635 *  0.347450 *  0.747205 *  -2.87073    1.000000    
    239 O3    s    0.625460 *  0.310844 *  0.087170 *  -3.33043    1.000000    
    240 O2    s    0.671568 *  0.330630 *  0.413907 *  -2.87073    1.000000    
    241 O2    s    0.372750 *  0.341530 *  0.964553 *  -2.87073    1.000000    
    242 O2    s    0.659047 *  0.030545 *  0.299805 *  -2.87073    1.000000    
    243 O2    s    0.962712 *  0.629229 *  0.631832 *  -2.87073    1.000000    
    244 O2    s    0.616911 *  0.660233 *  0.461858 *  -2.87073    1.000000    
    245 O3    s    0.330232 *  0.946702 *  0.796709 *  -3.33043    1.000000    
    246 O2    s    0.029283 *  0.379144 *  0.127952 *  -2.87073    1.000000    
    247 O2    s    0.337354 *  0.372936 *  0.358682 *  -2.87073    1.000000    
    248 O2    s    0.026454 *  0.651713 *  0.025542 *  -2.87073    1.000000    
    249 O2    s    0.622867 *  0.971516 *  0.691130 *  -2.87073    1.000000    
    250 O2    s    0.658463 *  0.625645 *  0.865145 *  -2.87073    1.000000    
    251 O2    s    0.956387 *  0.343211 *  0.528327 *  -2.87073    1.000000    
    252 O2    s    0.375723 *  0.034815 *  0.197646 *  -2.87073    1.000000    
    253 O3    s    0.762892 *  0.287430 *  0.005705 *  -3.33043    1.000000    
    254 O2    s    0.690357 *  0.462718 *  0.343186 *  -2.87073    1.000000    
    255 O2    s    0.532467 *  0.233104 *  0.675999 *  -2.87073    1.000000    
    256 O2    s    0.216043 *  0.689757 *  0.508356 *  -2.87073    1.000000    
    257 O2    s    0.305893 *  0.527683 *  0.843079 *  -2.87073    1.000000    
    258 O2    s    0.464899 *  0.778804 *  0.175592 *  -2.87073    1.000000    
    259 O2    s    0.306740 *  0.770368 *  0.314680 *  -2.87073    1.000000    
    260 O3    s    0.473911 *  0.703651 *  0.986503 *  -3.33043    1.000000    
    261 O2    s    0.223357 *  0.539839 *  0.646947 *  -2.87073    1.000000    
    262 O2    s    0.683607 *  0.221152 *  0.814970 *  -2.87073    1.000000    
    263 O2    s    0.528161 *  0.314861 *  0.481971 *  -2.87073    1.000000    
    264 O2    s    0.767571 *  0.467024 *  0.148050 *  -2.87073    1.000000    
    265 O3    s    0.781478 *  0.546392 *  0.021092 *  -3.33043    1.000000    
    266 O2    s    0.467797 *  0.256059 *  0.360111 *  -2.87073    1.000000    
    267 O2    s    0.733249 *  0.213149 *  0.694843 *  -2.87073    1.000000    
    268 O2    s    0.203367 *  0.468962 *  0.524430 *  -2.87073    1.000000    
    269 O2    s    0.526853 *  0.738906 *  0.861922 *  -2.87073    1.000000    
    270 O2    s    0.253767 *  0.788186 *  0.193925 *  -2.87073    1.000000    
    271 O2    s    0.528725 *  0.783269 *  0.297288 *  -2.87073    1.000000    
    272 O3    s    0.232299 *  0.443130 *  0.968231 *  -3.33043    1.000000    
    273 O2    s    0.209926 *  0.748225 *  0.630120 *  -2.87073    1.000000    
    274 O3    s    0.474366 *  0.230755 *  0.801779 *  -3.33043    1.000000    
    275 O2    s    0.738724 *  0.535095 *  0.465433 *  -2.87073    1.000000    
    276 O2    s    0.783200 *  0.260207 *  0.130854 *  -2.87073    1.000000    
    277 O2    s    0.235565 *  0.333549 *  0.895390 *  -2.87073    1.000000    
    278 O2    s    0.666341 *  0.905697 *  0.228467 *  -2.87073    1.000000    
    279 O2    s    0.086457 *  0.761302 *  0.561011 *  -2.87073    1.000000    
    280 O2    s    0.757449 *  0.664571 *  0.393785 *  -2.87073    1.000000    
    281 O3    s    0.320749 *  0.097303 *  0.718201 *  -3.33043    1.000000    
    282 O2    s    0.897985 *  0.239012 *  0.060476 *  -2.87073    1.000000    
    283 O2    s    0.328166 *  0.242030 *  0.429215 *  -2.87073    1.000000    
    284 O2    s    0.890317 *  0.657709 *  0.094124 *  -2.87073    1.000000    
    285 O2    s    0.749652 *  0.092469 *  0.761746 *  -2.87073    1.000000    
    286 O2    s    0.661708 *  0.761098 *  0.932617 *  -2.87073    1.000000    
    287 O2    s    0.091364 *  0.338143 *  0.595981 *  -2.87073    1.000000    
    288 O2    s    0.238698 *  0.905457 *  0.265454 *  -2.87073    1.000000    
    289 O2    s    0.570348 *  0.560980 *  0.985737 *  -2.87073    1.000000    
    290 O2    s    0.440139 *  0.016922 *  0.319473 *  -2.87073    1.000000    
    291 O2    s    0.975134 *  0.421897 *  0.649771 *  -2.87073    1.000000    
    292 O2    s    0.409496 *  0.442604 *  0.480919 *  -2.87073    1.000000    
    293 O2    s    0.552849 *  0.975731 *  0.813127 *  -2.87073    1.000000    
    294 O2    s    0.013870 *  0.580574 *  0.143522 *  -2.87073    1.000000    
    295 O2    s    0.557435 *  0.577254 *  0.340155 *  -2.87073    1.000000    
    296 O2    s    0.006027 *  0.433789 *  0.006469 *  -2.87073    1.000000    
    297 O2    s    0.421110 *  0.987001 *  0.671323 *  -2.87073    1.000000    
    298 O2    s    0.443505 *  0.422818 *  0.847709 *  -2.87073    1.000000    
    299 O2    s    0.969556 *  0.561311 *  0.509239 *  -2.87073    1.000000    
    300 O2    s    0.584376 *  0.025270 *  0.178116 *  -2.87073    1.000000    
    301 O2    s    0.576459 *  0.150307 *  0.250590 *  -2.87073    1.000000    
    302 O2    s    0.841424 *  0.428867 *  0.580634 *  -2.87073    1.000000    
    303 O2    s    0.579773 *  0.432433 *  0.916308 *  -2.87073    1.000000    
    304 O2    s    0.420408 *  0.851772 *  0.739865 *  -2.87073    1.000000    
    305 O2    s    0.143701 *  0.568730 *  0.075740 *  -2.87073    1.000000    
    306 O2    s    0.416999 *  0.574458 *  0.409348 *  -2.87073    1.000000    
    307 F     s    0.449254 *  0.900203 *  0.247231 *  -1.56000    1.000000    
    308 F     s    0.093529 *  0.551969 *  0.579794 *  -1.56000    1.000000    
    309 F     s    0.414595 *  0.563043 *  0.924214 *  -1.56000    1.000000    
    310 F     s    0.499080 *  0.098089 *  0.750677 *  -1.56000    1.000000    
    311 F     s    0.839567 *  0.429606 *  0.067421 *  -1.56000    1.000000    
    312 F     s    0.546696 *  0.452146 *  0.411937 *  -1.56000    1.000000    
--------------------------------------------------------------------------------



********************************************************************************
*  General input information                                                   *
********************************************************************************

  Species output for all configurations : 

--------------------------------------------------------------------------------
  Species    Type    Atomic    Atomic    Charge       Radii (Angs)     Library
                     Number     Mass       (e)     Cova   Ionic  VDW   Symbol
--------------------------------------------------------------------------------
    Si       Core       14      28.09   4.000000   1.200  0.000  2.100          
    O1       Core        8      16.00   1.733957   0.730  0.000  1.360          
    O1       Shell       8       0.00  -3.733957   0.730  0.000  1.360          
    O2       Core        8      16.00   0.870733   0.730  0.000  1.360          
    O2       Shell       8       0.00  -2.870733   0.730  0.000  1.360          
    O3       Core        8      16.00   1.330431   0.730  0.000  1.360          
    O3       Shell       8       0.00  -3.330431   0.730  0.000  1.360          
    F        Core        9      19.00   0.560000   0.710  0.000  1.300          
    F        Shell       9       0.00  -1.560000   0.710  0.000  1.300          
    Ge       Core       32      72.61   4.000000   1.170  0.000  1.750          
--------------------------------------------------------------------------------


  Lattice summation method               =    Ewald          (3-D)
                                         =    Parry          (2-D)
                                         =    Saunders et al (1-D)
  Accuracy factor for lattice sums       =   12.000


  Time limit = Infinity

  Maximum range for interatomic potentials =        16.000000 Angstroms

  Taper potentials to zero over   1.0000 Angstroms using polynomial

  General interatomic potentials :

--------------------------------------------------------------------------------
Atom  Types   Potential         A         B         C         D     Cutoffs(Ang)
  1     2                                                            Min    Max 
--------------------------------------------------------------------------------
Si   c O1   s Buckingham    0.132E+04 0.318      10.1      0.00     0.000 16.000
Si   c O2   s Buckingham    0.132E+04 0.318      10.1      0.00     0.000 16.000
Si   c O3   s Buckingham    0.132E+04 0.318      10.1      0.00     0.000 16.000
Ge   c O1   s Buckingham    0.150E+04 0.326      16.8      0.00     0.000 16.000
Ge   c O2   s Buckingham    0.150E+04 0.326      16.8      0.00     0.000 16.000
Ge   c O3   s Buckingham    0.150E+04 0.326      16.8      0.00     0.000 16.000
O1   s O1   s Buckingham    0.228E+05 0.149      10.9      0.00     0.000 16.000
O1   s O2   s Buckingham    0.228E+05 0.149      10.9      0.00     0.000 16.000
O1   s O3   s Buckingham    0.228E+05 0.149      10.9      0.00     0.000 16.000
O2   s O2   s Buckingham    0.228E+05 0.149      10.9      0.00     0.000 16.000
O2   s O3   s Buckingham    0.228E+05 0.149      10.9      0.00     0.000 16.000
O3   s O3   s Buckingham    0.228E+05 0.149      10.9      0.00     0.000 16.000
Si   c F    s Buckingham     977.     0.282      0.00      0.00     0.000 16.000
Ge   c F    s Buckingham     681.     0.320      0.00      0.00     0.000 16.000
F    s F    s Buckingham     540.     0.262      0.00      0.00     0.000 16.000
O1   s F    s Buckingham    0.168E+04 0.268      0.00      0.00     0.000 16.000
O2   s F    s Buckingham    0.168E+04 0.268      0.00      0.00     0.000 16.000
O3   s F    s Buckingham    0.168E+04 0.268      0.00      0.00     0.000 16.000
O2   c O2   s Spring (c-s)   76.0      0.00      0.00      0.00     0.000  0.800
O3   c O3   s Spring (c-s)   128.      0.00      0.00      0.00     0.000  0.800
O1   c O1   s Spring (c-s)   180.      0.00      0.00      0.00     0.000  0.800
F    c F    s Spring (c-s)   33.5      0.00      0.00      0.00     0.000  0.800
--------------------------------------------------------------------------------

  General Three-body potentials :

  Harmonic form:

--------------------------------------------------------------------------------
Atom    Atom    Atom           Force Constants            Theta     Cutoffs  
  1       2       3     (eVrad**-2/eVrad**-3/eVrad**-4)   (deg)  1-2  1-3  2-3
--------------------------------------------------------------------------------
Si    c O1    s O1    s  1.261        0.0000    0.0000   109.470 0.00 0.00 0.00
                                                                 1.90 1.90 3.50
Si    c O1    s O2    s  1.261        0.0000    0.0000   109.470 0.00 0.00 0.00
                                                                 1.90 1.90 3.50
Si    c O2    s O2    s  1.261        0.0000    0.0000   109.470 0.00 0.00 0.00
                                                                 1.90 1.90 3.50
--------------------------------------------------------------------------------

********************************************************************************
*  Output for configuration   1                                                *
********************************************************************************


  Components of energy : 

--------------------------------------------------------------------------------
  Interatomic potentials     =        2065.27475891 eV
  Three-body potentials      =           0.46922383 eV
  Monopole - monopole (real) =       -6614.81586378 eV
  Monopole - monopole (recip)=       -3171.87403141 eV
  Monopole - monopole (total)=       -9786.68989519 eV
  Neutralising energy        =          -6.46110119 eV
--------------------------------------------------------------------------------
  Total lattice energy       =       -7727.40701365 eV
--------------------------------------------------------------------------------
  Total lattice energy       =         -745576.6526 kJ/(mole unit cells)
--------------------------------------------------------------------------------


  Number of variables =      939

  Maximum number of calculations  =          1000
  Maximum Hessian update interval =            10
  Maximum step size               =   1.000000000
  Maximum parameter tolerance     =   0.000010000
  Maximum function  tolerance     =   0.000010000
  Maximum gradient  tolerance     =   0.001000000
  Maximum gradient  component     =   0.010000000

  Symmetry not applied to optimisation

  Cell parameters to be optimised using strains

  Newton-Raphson optimiser to be used

  BFGS hessian update to be used

  Dumpfile to be written after every cycle

  Start of bulk optimisation :

  Cycle:      0 Energy:     -7727.407014  Gnorm:      0.001421  CPU:    1.052
  ** Hessian calculated **
  Cycle:      1 Energy:     -7727.517683  Gnorm:      0.004097  CPU:    3.283
  Cycle:      2 Energy:     -7727.527143  Gnorm:      0.001799  CPU:    4.661
  Cycle:      3 Energy:     -7727.527216  Gnorm:      0.000151  CPU:    6.039
  Cycle:      4 Energy:     -7727.527219  Gnorm:      0.000058  CPU:    7.417


  **** Optimisation achieved ****


  Final energy =   -7727.52721914 eV
  Final Gnorm  =       0.00001065

  Components of energy : 

--------------------------------------------------------------------------------
  Interatomic potentials     =        2065.73067959 eV
  Three-body potentials      =           0.47101633 eV
  Monopole - monopole (real) =       -6616.64864605 eV
  Monopole - monopole (recip)=       -3170.62171712 eV
  Monopole - monopole (total)=       -9787.27036318 eV
  Neutralising energy        =          -6.45855189 eV
--------------------------------------------------------------------------------
  Total lattice energy       =       -7727.52721914 eV
--------------------------------------------------------------------------------
  Total lattice energy       =         -745588.2506 kJ/(mole unit cells)
--------------------------------------------------------------------------------

  Final fractional coordinates of atoms :

--------------------------------------------------------------------------------
   No.  Atomic        x           y          z          Radius
        Label       (Frac)      (Frac)     (Frac)       (Angs) 
--------------------------------------------------------------------------------
     1  Ge    c     0.699600    0.375700    0.033890    0.000000
     2  Si    c     0.593385    0.306644    0.363060    0.000000
     3  Si    c     0.649967    0.294301    0.695495    0.000000
     4  Si    c     0.261300    0.607848    0.524461    0.000000
     5  Si    c     0.351799    0.661158    0.858388    0.000000
     6  Si    c     0.300185    0.692059    0.193331    0.000000
     7  Si    c     0.349025    0.682530    0.293697    0.000000
     8  Ge    c     0.311110    0.597704    0.956482    0.000000
     9  Si    c     0.270541    0.669106    0.624724    0.000000
    10  Si    c     0.596701    0.289368    0.798434    0.000000
    11  Si    c     0.642223    0.368479    0.463370    0.000000
    12  Si    c     0.668971    0.307920    0.131853    0.000000
    13  Si    c     0.516566    0.408104    0.968203    0.000000
    14  Si    c     0.556448    0.092789    0.300406    0.000000
    15  Si    c     0.862113    0.466605    0.630797    0.000000
    16  Si    c     0.431668    0.566351    0.458742    0.000000
    17  Si    c     0.385859    0.865131    0.791602    0.000000
    18  Si    c     0.092397    0.519991    0.126441    0.000000
    19  Si    c     0.384354    0.508346    0.357275    0.000000
    20  Si    c     0.095902    0.570141    0.022957    0.000000
    21  Si    c     0.445675    0.881072    0.688103    0.000000
    22  Si    c     0.570597    0.462159    0.865160    0.000000
    23  Si    c     0.851541    0.408824    0.529362    0.000000
    24  Si    c     0.508177    0.100230    0.199124    0.000000
    25  Si    c     0.281030    0.380552    0.848030    0.000000
    26  Si    c     0.580998    0.893602    0.180928    0.000000
    27  Si    c     0.059535    0.687074    0.512964    0.000000
    28  Si    c     0.668551    0.580987    0.345260    0.000000
    29  Si    c     0.370111    0.091863    0.674492    0.000000
    30  Si    c     0.880185    0.283179    0.009964    0.000000
    31  Si    c     0.360667    0.289135    0.475195    0.000000
    32  Si    c     0.876109    0.590950    0.141331    0.000000
    33  Si    c     0.669760    0.079448    0.809691    0.000000
    34  Si    c     0.584087    0.693378    0.981351    0.000000
    35  Si    c     0.072246    0.393759    0.642558    0.000000
    36  Si    c     0.274055    0.883629    0.311670    0.000000
    37  Si    c     0.228779    0.319508    0.950104    0.000000
    38  Si    c     0.631685    0.891484    0.281691    0.000000
    39  Si    c     0.060865    0.743185    0.613724    0.000000
    40  Si    c     0.713357    0.645572    0.445736    0.000000
    41  Ge    c     0.331362    0.075875    0.774457    0.000000
    42  Si    c     0.887333    0.239894    0.113082    0.000000
    43  Si    c     0.308481    0.232789    0.374534    0.000000
    44  Si    c     0.893322    0.655163    0.039377    0.000000
    45  Si    c     0.725620    0.082312    0.707366    0.000000
    46  Si    c     0.640253    0.739676    0.878433    0.000000
    47  Si    c     0.053611    0.329519    0.541945    0.000000
    48  Si    c     0.227465    0.898716    0.211439    0.000000
    49  Si    c     0.953731    0.103578    0.959989    0.000000
    50  Si    c     0.848849    0.827330    0.295478    0.000000
    51  Si    c     0.123628    0.022764    0.625820    0.000000
    52  Si    c     0.992130    0.865687    0.461397    0.000000
    53  Si    c     0.103597    0.134508    0.793447    0.000000
    54  Si    c     0.831840    0.965569    0.129770    0.000000
    55  Si    c     0.092247    0.952413    0.360841    0.000000
    56  Si    c     0.838299    0.873466    0.029185    0.000000
    57  Si    c     0.011012    0.150562    0.693508    0.000000
    58  Si    c     0.856634    0.015301    0.858910    0.000000
    59  Si    c     0.111387    0.109531    0.525909    0.000000
    60  Si    c     0.947427    0.838418    0.194291    0.000000
    61  O2    c     0.904042    0.985053    0.993123    0.000000
    62  O2    c     0.971335    0.907485    0.327659    0.000000
    63  O2    c     0.051436    0.070637    0.660098    0.000000
    64  O2    c     0.031202    0.988463    0.493122    0.000000
    65  O2    c     0.974405    0.058319    0.824408    0.000000
    66  O2    c     0.910452    0.923506    0.162871    0.000000
    67  O2    c     0.308845    0.556311    0.324103    0.000000
    68  O2    c     0.399352    0.758326    0.654789    0.000000
    69  O3    c     0.216432    0.641535    0.991506    0.000000
    70  O2    c     0.647555    0.413023    0.832301    0.000000
    71  O2    c     0.559576    0.229405    0.170006    0.000000
    72  O2    c     0.723879    0.331649    0.497989    0.000000
    73  O3    c     0.561935    0.334093    0.999432    0.000000
    74  O2    c     0.738599    0.418511    0.664812    0.000000
    75  O2    c     0.633128    0.217178    0.333241    0.000000
    76  O2    c     0.381164    0.644346    0.490039    0.000000
    77  O2    c     0.217565    0.572129    0.159207    0.000000
    78  O2    c     0.318908    0.732525    0.818819    0.000000
    79  O2    c     0.108634    0.181512    0.965610    0.000000
    80  O2    c     0.756189    0.888582    0.302319    0.000000
    81  O2    c     0.061537    0.869979    0.633403    0.000000
    82  O2    c     0.837059    0.774438    0.465676    0.000000
    83  O3    c     0.184539    0.065480    0.795793    0.000000
    84  O2    c     0.890913    0.118475    0.135072    0.000000
    85  O2    c     0.183774    0.105242    0.354448    0.000000
    86  O2    c     0.913311    0.793691    0.024452    0.000000
    87  O2    c     0.855276    0.089127    0.687444    0.000000
    88  O2    c     0.764337    0.861624    0.855845    0.000000
    89  O2    c     0.048214    0.200947    0.521699    0.000000
    90  O2    c     0.102779    0.902051    0.191174    0.000000
    91  O2    c     0.900212    0.842787    0.244655    0.000000
    92  O2    c     0.097366    0.054312    0.575848    0.000000
    93  O2    c     0.911783    0.054928    0.909049    0.000000
    94  O2    c     0.048962    0.139172    0.743881    0.000000
    95  O2    c     0.852197    0.932332    0.079073    0.000000
    96  O2    c     0.036793    0.917302    0.411217    0.000000
    97  O2    c     0.891599    0.191699    0.972095    0.000000
    98  O2    c     0.768605    0.676166    0.307085    0.000000
    99  O2    c     0.279072    0.091220    0.632906    0.000000
   100  O2    c     0.060725    0.784002    0.474921    0.000000
   101  O2    c     0.191252    0.283829    0.808680    0.000000
   102  O2    c     0.679079    0.894662    0.142063    0.000000
   103  O2    c     0.174840    0.881669    0.350352    0.000000
   104  O2    c     0.686258    0.784040    0.019633    0.000000
   105  O2    c     0.078641    0.300718    0.680707    0.000000
   106  O2    c     0.768092    0.079442    0.847246    0.000000
   107  O2    c     0.263351    0.192569    0.513516    0.000000
   108  O2    c     0.879511    0.689666    0.179841    0.000000
   109  O2    c     0.296129    0.630219    0.242673    0.000000
   110  O2    c     0.323958    0.665884    0.574054    0.000000
   111  O3    c     0.291714    0.670114    0.905468    0.000000
   112  O2    c     0.648062    0.342286    0.746974    0.000000
   113  O3    c     0.603895    0.300772    0.084602    0.000000
   114  O2    c     0.648176    0.310266    0.413867    0.000000
   115  O2    c     0.358694    0.320686    0.966568    0.000000
   116  O2    c     0.643048    0.022513    0.301982    0.000000
   117  O2    c     0.930615    0.621858    0.634004    0.000000
   118  O2    c     0.588270    0.654862    0.462513    0.000000
   119  O3    c     0.294841    0.925958    0.797851    0.000000
   120  O2    c     0.018721    0.365285    0.130224    0.000000
   121  O2    c     0.297891    0.352767    0.354784    0.000000
   122  O2    c     0.025609    0.657156    0.024656    0.000000
   123  O2    c     0.603307    0.953351    0.687455    0.000000
   124  O2    c     0.651566    0.616791    0.862173    0.000000
   125  O2    c     0.919119    0.320254    0.525937    0.000000
   126  O2    c     0.351281    0.030909    0.194613    0.000000
   127  O3    c     0.744980    0.275544    0.002446    0.000000
   128  O2    c     0.669357    0.447104    0.339469    0.000000
   129  O2    c     0.507294    0.226839    0.672402    0.000000
   130  O2    c     0.192045    0.683421    0.503871    0.000000
   131  O2    c     0.281247    0.513196    0.839891    0.000000
   132  O2    c     0.445304    0.762577    0.171711    0.000000
   133  O2    c     0.272308    0.748831    0.317144    0.000000
   134  O3    c     0.454988    0.697980    0.988893    0.000000
   135  O2    c     0.205771    0.529261    0.648593    0.000000
   136  O2    c     0.666264    0.210980    0.816900    0.000000
   137  O2    c     0.496671    0.293158    0.484472    0.000000
   138  O2    c     0.745529    0.456573    0.150796    0.000000
   139  O3    c     0.767367    0.542177    0.017320    0.000000
   140  O2    c     0.436786    0.232156    0.356761    0.000000
   141  O2    c     0.715186    0.204442    0.691877    0.000000
   142  O2    c     0.177605    0.452630    0.520514    0.000000
   143  O2    c     0.510615    0.731594    0.858722    0.000000
   144  O2    c     0.224490    0.772862    0.190285    0.000000
   145  O2    c     0.505360    0.764128    0.299729    0.000000
   146  O3    c     0.210581    0.430723    0.971357    0.000000
   147  O2    c     0.190340    0.745360    0.631378    0.000000
   148  O3    c     0.443024    0.217264    0.804127    0.000000
   149  O2    c     0.715584    0.523827    0.467223    0.000000
   150  O2    c     0.762210    0.243395    0.132100    0.000000
   151  O2    c     0.213416    0.312821    0.894961    0.000000
   152  O2    c     0.652495    0.893232    0.227424    0.000000
   153  O2    c     0.057533    0.758230    0.559502    0.000000
   154  O2    c     0.736122    0.658284    0.391571    0.000000
   155  O3    c     0.285228    0.082868    0.717562    0.000000
   156  O2    c     0.887289    0.223331    0.058875    0.000000
   157  O2    c     0.288240    0.216942    0.428787    0.000000
   158  O2    c     0.875618    0.657456    0.094522    0.000000
   159  O2    c     0.733644    0.077413    0.761482    0.000000
   160  O2    c     0.653350    0.756645    0.932706    0.000000
   161  O2    c     0.064033    0.317461    0.596061    0.000000
   162  O2    c     0.205494    0.893058    0.265704    0.000000
   163  O2    c     0.559467    0.549692    0.988120    0.000000
   164  O2    c     0.413842    0.006377    0.322684    0.000000
   165  O2    c     0.945590    0.407124    0.652730    0.000000
   166  O2    c     0.372554    0.427521    0.482807    0.000000
   167  O2    c     0.528382    0.955349    0.814845    0.000000
   168  O2    c     0.001484    0.573772    0.146161    0.000000
   169  O2    c     0.527665    0.564216    0.335181    0.000000
   170  O2    c     0.997526    0.428174    0.003097    0.000000
   171  O2    c     0.395097    0.971917    0.666953    0.000000
   172  O2    c     0.427701    0.407798    0.844315    0.000000
   173  O2    c     0.933479    0.547876    0.505574    0.000000
   174  O2    c     0.568709    0.020160    0.174578    0.000000
   175  O2    c     0.557496    0.148278    0.250457    0.000000
   176  O2    c     0.802473    0.412121    0.580737    0.000000
   177  O2    c     0.570259    0.417210    0.916242    0.000000
   178  O2    c     0.392939    0.828753    0.738432    0.000000
   179  O2    c     0.138339    0.562184    0.075146    0.000000
   180  O2    c     0.380428    0.563050    0.407572    0.000000
   181  F     c     0.425652    0.887912    0.246534    0.000000
   182  F     c     0.064607    0.540296    0.578588    0.000000
   183  F     c     0.406989    0.546653    0.921153    0.000000
   184  F     c     0.483512    0.083143    0.748174    0.000000
   185  F     c     0.844266    0.429550    0.069899    0.000000
   186  F     c     0.514878    0.435724    0.410676    0.000000
   187  O2    s     0.902118    0.985855    0.993472    0.000000
   188  O2    s     0.971206    0.903517    0.327787    0.000000
   189  O2    s     0.055000    0.074210    0.659983    0.000000
   190  O2    s     0.035769    0.988288    0.493244    0.000000
   191  O2    s     0.974343    0.061342    0.825135    0.000000
   192  O2    s     0.905850    0.918729    0.162697    0.000000
   193  O2    s     0.320701    0.564280    0.324392    0.000000
   194  O2    s     0.391134    0.762080    0.655201    0.000000
   195  O3    s     0.209341    0.630486    0.992626    0.000000
   196  O2    s     0.634732    0.405717    0.832246    0.000000
   197  O2    s     0.565408    0.223803    0.169154    0.000000
   198  O2    s     0.728770    0.343499    0.497680    0.000000
   199  O3    s     0.566460    0.345252    0.998357    0.000000
   200  O2    s     0.741839    0.410334    0.664592    0.000000
   201  O2    s     0.621200    0.213579    0.332934    0.000000
   202  O2    s     0.373884    0.632473    0.490401    0.000000
   203  O2    s     0.212979    0.579002    0.159303    0.000000
   204  O2    s     0.329655    0.739482    0.820012    0.000000
   205  O2    s     0.103958    0.186957    0.963445    0.000000
   206  O2    s     0.753115    0.882304    0.299457    0.000000
   207  O2    s     0.067910    0.872728    0.630608    0.000000
   208  O2    s     0.840832    0.770876    0.463190    0.000000
   209  O3    s     0.185077    0.074034    0.794133    0.000000
   210  O2    s     0.884318    0.114830    0.132278    0.000000
   211  O2    s     0.187031    0.102326    0.357177    0.000000
   212  O2    s     0.903177    0.788286    0.026474    0.000000
   213  O2    s     0.857182    0.094688    0.690197    0.000000
   214  O2    s     0.761169    0.865184    0.858498    0.000000
   215  O2    s     0.055434    0.204548    0.524205    0.000000
   216  O2    s     0.099086    0.894862    0.193603    0.000000
   217  O2    s     0.899716    0.840530    0.244744    0.000000
   218  O2    s     0.101898    0.057001    0.575828    0.000000
   219  O2    s     0.910163    0.055837    0.909034    0.000000
   220  O2    s     0.050238    0.139992    0.743181    0.000000
   221  O2    s     0.848336    0.929583    0.079314    0.000000
   222  O2    s     0.037985    0.915405    0.411225    0.000000
   223  O2    s     0.897279    0.191697    0.974788    0.000000
   224  O2    s     0.766849    0.682311    0.309750    0.000000
   225  O2    s     0.271940    0.084218    0.636201    0.000000
   226  O2    s     0.053266    0.782689    0.477418    0.000000
   227  O2    s     0.191905    0.278957    0.811328    0.000000
   228  O2    s     0.685150    0.902017    0.144740    0.000000
   229  O2    s     0.176158    0.889346    0.347542    0.000000
   230  O2    s     0.692309    0.784385    0.016685    0.000000
   231  O2    s     0.070899    0.294552    0.678120    0.000000
   232  O2    s     0.766787    0.072859    0.844485    0.000000
   233  O2    s     0.257074    0.193603    0.510910    0.000000
   234  O2    s     0.886490    0.695488    0.177406    0.000000
   235  O2    s     0.301952    0.641889    0.242856    0.000000
   236  O2    s     0.312036    0.660262    0.574216    0.000000
   237  O3    s     0.299191    0.664604    0.903805    0.000000
   238  O2    s     0.643206    0.332113    0.746640    0.000000
   239  O3    s     0.616760    0.306225    0.086433    0.000000
   240  O2    s     0.641966    0.315890    0.413734    0.000000
   241  O2    s     0.360654    0.329344    0.964961    0.000000
   242  O2    s     0.632934    0.016101    0.299697    0.000000
   243  O2    s     0.937049    0.618441    0.631569    0.000000
   244  O2    s     0.585261    0.644705    0.460339    0.000000
   245  O3    s     0.306860    0.930333    0.795532    0.000000
   246  O2    s     0.012674    0.368269    0.128046    0.000000
   247  O2    s     0.307834    0.356232    0.357096    0.000000
   248  O2    s     0.018638    0.648217    0.026063    0.000000
   249  O2    s     0.600108    0.959547    0.689612    0.000000
   250  O2    s     0.641909    0.613465    0.864192    0.000000
   251  O2    s     0.926320    0.330402    0.527998    0.000000
   252  O2    s     0.354346    0.024042    0.196870    0.000000
   253  O3    s     0.756148    0.283011    0.005390    0.000000
   254  O2    s     0.661530    0.446729    0.342506    0.000000
   255  O2    s     0.508228    0.220229    0.675035    0.000000
   256  O2    s     0.185179    0.675963    0.507007    0.000000
   257  O2    s     0.288246    0.513842    0.842635    0.000000
   258  O2    s     0.444551    0.769041    0.174943    0.000000
   259  O2    s     0.280328    0.756169    0.314140    0.000000
   260  O3    s     0.459273    0.690908    0.985903    0.000000
   261  O2    s     0.198457    0.529460    0.645481    0.000000
   262  O2    s     0.659583    0.204893    0.814239    0.000000
   263  O2    s     0.497321    0.300537    0.481268    0.000000
   264  O2    s     0.752029    0.456531    0.147941    0.000000
   265  O3    s     0.776602    0.543725    0.020655    0.000000
   266  O2    s     0.439157    0.240048    0.359304    0.000000
   267  O2    s     0.709329    0.200515    0.693945    0.000000
   268  O2    s     0.172771    0.455448    0.523226    0.000000
   269  O2    s     0.509098    0.725457    0.860861    0.000000
   270  O2    s     0.232794    0.777946    0.192854    0.000000
   271  O2    s     0.502613    0.769435    0.297174    0.000000
   272  O3    s     0.219077    0.429844    0.968209    0.000000
   273  O2    s     0.184628    0.737219    0.628845    0.000000
   274  O3    s     0.450718    0.214390    0.801437    0.000000
   275  O2    s     0.707617    0.520816    0.464527    0.000000
   276  O2    s     0.766797    0.249499    0.129976    0.000000
   277  O2    s     0.222252    0.320886    0.895342    0.000000
   278  O2    s     0.642807    0.893086    0.228282    0.000000
   279  O2    s     0.058086    0.749110    0.560362    0.000000
   280  O2    s     0.726646    0.648850    0.392481    0.000000
   281  O3    s     0.297182    0.083323    0.717043    0.000000
   282  O2    s     0.886591    0.230922    0.059929    0.000000
   283  O2    s     0.297994    0.226220    0.427923    0.000000
   284  O2    s     0.877301    0.649888    0.094271    0.000000
   285  O2    s     0.725972    0.078151    0.760663    0.000000
   286  O2    s     0.645269    0.748743    0.931603    0.000000
   287  O2    s     0.063805    0.326739    0.595195    0.000000
   288  O2    s     0.214967    0.892678    0.264779    0.000000
   289  O2    s     0.557317    0.550051    0.985307    0.000000
   290  O2    s     0.413767    0.002068    0.319169    0.000000
   291  O2    s     0.950507    0.411996    0.649370    0.000000
   292  O2    s     0.377584    0.427057    0.479485    0.000000
   293  O2    s     0.529784    0.960174    0.811996    0.000000
   294  O2    s     0.997561    0.569800    0.143541    0.000000
   295  O2    s     0.527854    0.560003    0.338579    0.000000
   296  O2    s     0.995057    0.427587    0.005915    0.000000
   297  O2    s     0.398011    0.974896    0.669987    0.000000
   298  O2    s     0.427250    0.410860    0.846970    0.000000
   299  O2    s     0.938720    0.548412    0.508857    0.000000
   300  O2    s     0.563603    0.014718    0.177807    0.000000
   301  O2    s     0.552164    0.137339    0.250319    0.000000
   302  O2    s     0.813718    0.417428    0.580617    0.000000
   303  O2    s     0.565078    0.421246    0.915734    0.000000
   304  O2    s     0.397879    0.838064    0.738351    0.000000
   305  O2    s     0.129183    0.558314    0.075699    0.000000
   306  O2    s     0.386180    0.557731    0.407715    0.000000
   307  F     s     0.425343    0.887483    0.246545    0.000000
   308  F     s     0.064998    0.540544    0.578693    0.000000
   309  F     s     0.399630    0.550543    0.923678    0.000000
   310  F     s     0.474562    0.082987    0.749679    0.000000
   311  F     s     0.832990    0.425489    0.067320    0.000000
   312  F     s     0.515112    0.435533    0.410716    0.000000
--------------------------------------------------------------------------------

  Final Cartesian lattice vectors (Angstroms) :

       11.883310    0.002477   -0.000067
       -5.986259   10.436249    0.015755
        0.196693   -0.267515   29.502626


  Final cell parameters and derivatives :

--------------------------------------------------------------------------------
       a           11.883310 Angstrom     dE/de1(xx)     0.000233 eV/strain
       b           12.031244 Angstrom     dE/de2(yy)     0.000254 eV/strain
       c           29.504495 Angstrom     dE/de3(zz)     0.000414 eV/strain
       alpha       90.565661 Degrees      dE/de4(yz)    -0.000121 eV/strain
       beta        89.618466 Degrees      dE/de5(xz)     0.000054 eV/strain
       gamma      119.826724 Degrees      dE/de6(xy)    -0.000041 eV/strain
--------------------------------------------------------------------------------

  Primitive cell volume =          3659.319887 Angs**3

  Density of cell =      1.748438 g/cm**3

  Non-primitive cell volume =          3659.319887 Angs**3


  Final internal derivatives :

--------------------------------------------------------------------------------
   No.  Atomic          a             b             c           Radius
        Label          (eV)          (eV)          (eV)        (eV/Angs)
--------------------------------------------------------------------------------
      1 Ge    c       0.000000      0.000000      0.000000      0.000000
      2 Si    c       0.000174     -0.000091      0.000135      0.000000
      3 Si    c       0.000015     -0.000059     -0.000060      0.000000
      4 Si    c       0.000008     -0.000035     -0.000025      0.000000
      5 Si    c       0.000084      0.000002      0.000237      0.000000
      6 Si    c      -0.000150     -0.000109     -0.000317      0.000000
      7 Si    c      -0.000016     -0.000047      0.000106      0.000000
      8 Ge    c      -0.000014     -0.000082     -0.000033      0.000000
      9 Si    c       0.000016      0.000033      0.000191      0.000000
     10 Si    c      -0.000242      0.000102      0.000124      0.000000
     11 Si    c       0.000007      0.000057     -0.000138      0.000000
     12 Si    c      -0.001037     -0.000376      0.003451      0.000000
     13 Si    c      -0.001128      0.001197     -0.002673      0.000000
     14 Si    c       0.000015      0.000127     -0.000116      0.000000
     15 Si    c       0.000042      0.000035     -0.000131      0.000000
     16 Si    c      -0.000016      0.000012      0.000078      0.000000
     17 Si    c      -0.000025      0.000096     -0.000114      0.000000
     18 Si    c      -0.000071      0.000075     -0.000039      0.000000
     19 Si    c      -0.000038      0.000002      0.000021      0.000000
     20 Si    c      -0.000100      0.000229      0.000292      0.000000
     21 Si    c       0.000019      0.000089      0.000295      0.000000
     22 Si    c       0.000182      0.000083      0.000556      0.000000
     23 Si    c       0.000011     -0.000001     -0.000032      0.000000
     24 Si    c      -0.000015      0.000008      0.000096      0.000000
     25 Si    c      -0.000041      0.000012     -0.000341      0.000000
     26 Si    c       0.000128     -0.000045      0.000083      0.000000
     27 Si    c      -0.000001     -0.000020      0.000110      0.000000
     28 Si    c       0.000081     -0.000022      0.000117      0.000000
     29 Si    c      -0.000013     -0.000003     -0.000172      0.000000
     30 Si    c      -0.000021     -0.000175     -0.000733      0.000000
     31 Si    c      -0.000073      0.000066     -0.000199      0.000000
     32 Si    c       0.000093     -0.000087     -0.000088      0.000000
     33 Si    c      -0.000033     -0.000015     -0.000002      0.000000
     34 Si    c       0.000086     -0.000170     -0.000195      0.000000
     35 Si    c       0.000054     -0.000006     -0.000018      0.000000
     36 Si    c      -0.000021     -0.000028     -0.000221      0.000000
     37 Si    c      -0.000058      0.000240     -0.000344      0.000000
     38 Si    c       0.000081     -0.000016     -0.000340      0.000000
     39 Si    c       0.000081     -0.000090      0.000056      0.000000
     40 Si    c       0.000093     -0.000011     -0.000074      0.000000
     41 Ge    c       0.000286     -0.000109     -0.000091      0.000000
     42 Si    c       0.000227     -0.000096      0.000766      0.000000
     43 Si    c      -0.000100      0.000014      0.000034      0.000000
     44 Si    c       0.000070     -0.000324     -0.000714      0.000000
     45 Si    c      -0.000103     -0.000016      0.000090      0.000000
     46 Si    c       0.000050     -0.000022      0.000051      0.000000
     47 Si    c      -0.000027     -0.000044     -0.000024      0.000000
     48 Si    c       0.000052      0.000015      0.000353      0.000000
     49 Si    c      -0.000104      0.000103     -0.000821      0.000000
     50 Si    c      -0.000023      0.000082     -0.000017      0.000000
     51 Si    c       0.000010      0.000057      0.000022      0.000000
     52 Si    c      -0.000066     -0.000011     -0.000222      0.000000
     53 Si    c       0.000052     -0.000008      0.000500      0.000000
     54 Si    c      -0.000051      0.000055      0.000405      0.000000
     55 Si    c      -0.000069      0.000006     -0.000217      0.000000
     56 Si    c      -0.000040      0.000039     -0.000147      0.000000
     57 Si    c       0.000025      0.000021     -0.000187      0.000000
     58 Si    c       0.000143     -0.000215     -0.000361      0.000000
     59 Si    c      -0.000099      0.000214     -0.000070      0.000000
     60 Si    c       0.000015     -0.000122      0.000094      0.000000
     61 O2    c       0.000076     -0.000287      0.000672      0.000000
     62 O2    c       0.000170     -0.000182      0.000318      0.000000
     63 O2    c       0.000148     -0.000077     -0.000208      0.000000
     64 O2    c      -0.000142     -0.000151     -0.000246      0.000000
     65 O2    c      -0.000163      0.000070      0.000199      0.000000
     66 O2    c      -0.000111     -0.000018     -0.000215      0.000000
     67 O2    c      -0.000020      0.000015     -0.000345      0.000000
     68 O2    c       0.000068     -0.000043     -0.000075      0.000000
     69 O3    c       0.000312     -0.000130     -0.000527      0.000000
     70 O2    c       0.000086     -0.000160     -0.000245      0.000000
     71 O2    c       0.000196      0.000079     -0.000332      0.000000
     72 O2    c      -0.000018     -0.000016      0.000107      0.000000
     73 O3    c       0.000563     -0.001073      0.000977      0.000000
     74 O2    c      -0.000003      0.000047      0.000129      0.000000
     75 O2    c       0.000011     -0.000081     -0.000075      0.000000
     76 O2    c      -0.000069      0.000029      0.000107      0.000000
     77 O2    c       0.000091      0.000312      0.000709      0.000000
     78 O2    c       0.000000     -0.000036     -0.000142      0.000000
     79 O2    c       0.000152     -0.000229      0.000147      0.000000
     80 O2    c       0.000051     -0.000041     -0.000114      0.000000
     81 O2    c      -0.000018      0.000036      0.000040      0.000000
     82 O2    c      -0.000028     -0.000021     -0.000131      0.000000
     83 O3    c       0.000133     -0.000300     -0.000149      0.000000
     84 O2    c       0.000052     -0.000153      0.000053      0.000000
     85 O2    c       0.000032     -0.000001      0.000043      0.000000
     86 O2    c       0.000255     -0.000164     -0.000239      0.000000
     87 O2    c       0.000021     -0.000043     -0.000047      0.000000
     88 O2    c       0.000022      0.000030      0.000018      0.000000
     89 O2    c       0.000057     -0.000041      0.000014      0.000000
     90 O2    c      -0.000116      0.000061      0.000070      0.000000
     91 O2    c      -0.000058      0.000059     -0.000202      0.000000
     92 O2    c       0.000114     -0.000136      0.000640      0.000000
     93 O2    c       0.000070      0.000145      0.000900      0.000000
     94 O2    c      -0.000306      0.000343     -0.000876      0.000000
     95 O2    c       0.000009      0.000024      0.000254      0.000000
     96 O2    c       0.000110      0.000048      0.000187      0.000000
     97 O2    c      -0.000240      0.000253      0.000192      0.000000
     98 O2    c      -0.000002      0.000085     -0.000075      0.000000
     99 O2    c       0.000029     -0.000010     -0.000025      0.000000
    100 O2    c      -0.000018      0.000020     -0.000009      0.000000
    101 O2    c       0.000225      0.000047      0.000404      0.000000
    102 O2    c       0.000097     -0.000024     -0.000160      0.000000
    103 O2    c      -0.000081      0.000033      0.000164      0.000000
    104 O2    c      -0.000364      0.000096     -0.000076      0.000000
    105 O2    c      -0.000005      0.000001     -0.000075      0.000000
    106 O2    c      -0.000256      0.000156     -0.000030      0.000000
    107 O2    c       0.000011     -0.000025      0.000102      0.000000
    108 O2    c       0.000024      0.000233      0.000138      0.000000
    109 O2    c      -0.000023      0.000117     -0.000276      0.000000
    110 O2    c       0.000013     -0.000018     -0.000355      0.000000
    111 O3    c       0.000030     -0.000051      0.000155      0.000000
    112 O2    c      -0.000018     -0.000007      0.000225      0.000000
    113 O3    c      -0.000950      0.000431     -0.005163      0.000000
    114 O2    c      -0.000027      0.000025     -0.000134      0.000000
    115 O2    c       0.000056     -0.000026      0.000228      0.000000
    116 O2    c       0.000016      0.000023      0.000000      0.000000
    117 O2    c       0.000011     -0.000004     -0.000029      0.000000
    118 O2    c      -0.000045      0.000025      0.000049      0.000000
    119 O3    c      -0.000022      0.000029      0.000025      0.000000
    120 O2    c       0.000035      0.000073     -0.000015      0.000000
    121 O2    c       0.000011      0.000018      0.000022      0.000000
    122 O2    c       0.000096     -0.000047      0.000132      0.000000
    123 O2    c      -0.000016     -0.000005     -0.000023      0.000000
    124 O2    c       0.000015     -0.000025      0.000024      0.000000
    125 O2    c       0.000030     -0.000009      0.000033      0.000000
    126 O2    c      -0.000032      0.000010      0.000049      0.000000
    127 O3    c      -0.000599      0.000038      0.000335      0.000000
    128 O2    c       0.000022      0.000005      0.000047      0.000000
    129 O2    c       0.000031      0.000013      0.000031      0.000000
    130 O2    c      -0.000019      0.000013     -0.000103      0.000000
    131 O2    c      -0.000001     -0.000006     -0.000011      0.000000
    132 O2    c       0.000001     -0.000020      0.000006      0.000000
    133 O2    c      -0.000015      0.000030     -0.000013      0.000000
    134 O3    c       0.000008      0.000009      0.000002      0.000000
    135 O2    c       0.000006     -0.000021     -0.000024      0.000000
    136 O2    c       0.000023     -0.000012      0.000019      0.000000
    137 O2    c       0.000076     -0.000028      0.000153      0.000000
    138 O2    c       0.000053      0.000107      0.000141      0.000000
    139 O3    c       0.000236      0.000312      0.000321      0.000000
    140 O2    c      -0.000017     -0.000022     -0.000099      0.000000
    141 O2    c      -0.000006     -0.000002      0.000012      0.000000
    142 O2    c      -0.000006     -0.000023      0.000011      0.000000
    143 O2    c      -0.000048      0.000020     -0.000065      0.000000
    144 O2    c       0.000059     -0.000060     -0.000017      0.000000
    145 O2    c       0.000039     -0.000002      0.000008      0.000000
    146 O3    c       0.000060      0.000111     -0.000011      0.000000
    147 O2    c      -0.000013      0.000022     -0.000069      0.000000
    148 O3    c      -0.000003      0.000123      0.000286      0.000000
    149 O2    c       0.000016     -0.000047     -0.000021      0.000000
    150 O2    c       0.000279     -0.000318      0.000472      0.000000
    151 O2    c      -0.000028     -0.000071      0.000791      0.000000
    152 O2    c      -0.000080      0.000026      0.000197      0.000000
    153 O2    c      -0.000011      0.000016     -0.000074      0.000000
    154 O2    c      -0.000005      0.000007      0.000095      0.000000
    155 O3    c      -0.000020      0.000049     -0.000188      0.000000
    156 O2    c      -0.000006     -0.000120     -0.000439      0.000000
    157 O2    c       0.000016      0.000020      0.000024      0.000000
    158 O2    c      -0.000187     -0.000112      0.001573      0.000000
    159 O2    c       0.000026     -0.000019      0.000004      0.000000
    160 O2    c       0.000002     -0.000029      0.000134      0.000000
    161 O2    c       0.000005      0.000001     -0.000113      0.000000
    162 O2    c       0.000108     -0.000021     -0.000281      0.000000
    163 O2    c       0.000110     -0.000187     -0.000308      0.000000
    164 O2    c       0.000006      0.000013      0.000008      0.000000
    165 O2    c       0.000011     -0.000022      0.000027      0.000000
    166 O2    c       0.000023     -0.000026      0.000013      0.000000
    167 O2    c       0.000001      0.000021     -0.000010      0.000000
    168 O2    c       0.000086     -0.000096     -0.000284      0.000000
    169 O2    c      -0.000045      0.000013      0.000003      0.000000
    170 O2    c       0.000056     -0.000368      0.000160      0.000000
    171 O2    c       0.000003     -0.000018      0.000018      0.000000
    172 O2    c       0.000056     -0.000015     -0.000002      0.000000
    173 O2    c      -0.000012     -0.000030      0.000020      0.000000
    174 O2    c      -0.000020      0.000031     -0.000030      0.000000
    175 O2    c      -0.000018     -0.000026      0.000186      0.000000
    176 O2    c      -0.000005      0.000002      0.000113      0.000000
    177 O2    c      -0.000065      0.000049     -0.000316      0.000000
    178 O2    c       0.000008      0.000005     -0.000015      0.000000
    179 O2    c       0.000015     -0.000006      0.000242      0.000000
    180 O2    c       0.000026     -0.000042     -0.000204      0.000000
    181 F     c       0.000039      0.000002     -0.000022      0.000000
    182 F     c       0.000032      0.000003      0.000082      0.000000
    183 F     c      -0.000027      0.000039     -0.000028      0.000000
    184 F     c      -0.000069      0.000034      0.000117      0.000000
    185 F     c      -0.000574      0.000084     -0.000078      0.000000
    186 F     c       0.000040      0.000005      0.000083      0.000000
    187 O2    s       0.000030      0.000054     -0.000140      0.000000
    188 O2    s      -0.000007     -0.000062     -0.000069      0.000000
    189 O2    s      -0.000037      0.000025      0.000113      0.000000
    190 O2    s      -0.000096      0.000086     -0.000005      0.000000
    191 O2    s      -0.000046      0.000129     -0.000074      0.000000
    192 O2    s       0.000060     -0.000118     -0.000055      0.000000
    193 O2    s       0.000023     -0.000002      0.000281      0.000000
    194 O2    s       0.000003     -0.000001     -0.000033      0.000000
    195 O3    s      -0.000204      0.000146      0.000111      0.000000
    196 O2    s      -0.000056      0.000108      0.000187      0.000000
    197 O2    s      -0.000056     -0.000081      0.000297      0.000000
    198 O2    s       0.000022     -0.000006     -0.000052      0.000000
    199 O3    s      -0.000842      0.000674     -0.001305      0.000000
    200 O2    s       0.000008     -0.000016     -0.000039      0.000000
    201 O2    s      -0.000022      0.000064     -0.000046      0.000000
    202 O2    s       0.000007      0.000004     -0.000037      0.000000
    203 O2    s       0.000090     -0.000245     -0.000305      0.000000
    204 O2    s       0.000048     -0.000020      0.000043      0.000000
    205 O2    s       0.000222      0.000076     -0.000155      0.000000
    206 O2    s       0.000001     -0.000012      0.000174      0.000000
    207 O2    s       0.000011     -0.000007      0.000108      0.000000
    208 O2    s       0.000031      0.000013     -0.000061      0.000000
    209 O3    s      -0.000011     -0.000197     -0.000222      0.000000
    210 O2    s       0.000022     -0.000015      0.000144      0.000000
    211 O2    s      -0.000017     -0.000004     -0.000143      0.000000
    212 O2    s       0.000173     -0.000190     -0.000072      0.000000
    213 O2    s       0.000006     -0.000013     -0.000070      0.000000
    214 O2    s       0.000031     -0.000137     -0.000010      0.000000
    215 O2    s      -0.000063      0.000068      0.000131      0.000000
    216 O2    s      -0.000000     -0.000019     -0.000085      0.000000
    217 O2    s       0.000042     -0.000094     -0.000008      0.000000
    218 O2    s      -0.000044      0.000046      0.000004      0.000000
    219 O2    s       0.000004     -0.000044     -0.000543      0.000000
    220 O2    s       0.000042     -0.000052      0.000237      0.000000
    221 O2    s       0.000045      0.000058      0.000249      0.000000
    222 O2    s      -0.000023      0.000011     -0.000054      0.000000
    223 O2    s      -0.000104      0.000189      0.000080      0.000000
    224 O2    s       0.000013      0.000075     -0.000150      0.000000
    225 O2    s       0.000001     -0.000050      0.000013      0.000000
    226 O2    s       0.000003     -0.000018      0.000007      0.000000
    227 O2    s      -0.000034      0.000111      0.000274      0.000000
    228 O2    s       0.000021      0.000073      0.000090      0.000000
    229 O2    s       0.000001      0.000053     -0.000093      0.000000
    230 O2    s      -0.000123      0.000093      0.000168      0.000000
    231 O2    s       0.000007      0.000012      0.000086      0.000000
    232 O2    s       0.000096     -0.000070     -0.000108      0.000000
    233 O2    s       0.000072      0.000026     -0.000133      0.000000
    234 O2    s       0.000073     -0.000015      0.000169      0.000000
    235 O2    s      -0.000068     -0.000021     -0.000040      0.000000
    236 O2    s      -0.000016     -0.000025      0.000025      0.000000
    237 O3    s       0.000006      0.000002      0.000114      0.000000
    238 O2    s      -0.000031      0.000016     -0.000084      0.000000
    239 O3    s       0.001329     -0.000165      0.003095      0.000000
    240 O2    s       0.000009     -0.000047      0.000051      0.000000
    241 O2    s      -0.000195     -0.000108      0.000277      0.000000
    242 O2    s      -0.000029     -0.000015      0.000013      0.000000
    243 O2    s      -0.000010     -0.000007      0.000144      0.000000
    244 O2    s       0.000048     -0.000017     -0.000066      0.000000
    245 O3    s      -0.000061      0.000055     -0.000029      0.000000
    246 O2    s       0.000126     -0.000153      0.000191      0.000000
    247 O2    s       0.000018     -0.000011     -0.000019      0.000000
    248 O2    s       0.000222     -0.000067     -0.000294      0.000000
    249 O2    s       0.000028     -0.000035     -0.000052      0.000000
    250 O2    s       0.000000      0.000001     -0.000038      0.000000
    251 O2    s       0.000023     -0.000017      0.000021      0.000000
    252 O2    s      -0.000008      0.000032     -0.000184      0.000000
    253 O3    s       0.000575     -0.000125     -0.000411      0.000000
    254 O2    s      -0.000008     -0.000007     -0.000076      0.000000
    255 O2    s      -0.000017     -0.000031     -0.000012      0.000000
    256 O2    s       0.000057     -0.000031     -0.000014      0.000000
    257 O2    s      -0.000045      0.000067     -0.000120      0.000000
    258 O2    s      -0.000062      0.000046     -0.000097      0.000000
    259 O2    s       0.000021     -0.000052      0.000251      0.000000
    260 O3    s      -0.000026     -0.000020      0.000021      0.000000
    261 O2    s      -0.000021     -0.000002     -0.000063      0.000000
    262 O2    s      -0.000007      0.000021     -0.000029      0.000000
    263 O2    s      -0.000010     -0.000012     -0.000098      0.000000
    264 O2    s      -0.000040     -0.000224     -0.001083      0.000000
    265 O3    s      -0.000486     -0.000379     -0.000772      0.000000
    266 O2    s       0.000019      0.000043      0.000177      0.000000
    267 O2    s       0.000006      0.000007     -0.000056      0.000000
    268 O2    s       0.000021      0.000037      0.000016      0.000000
    269 O2    s      -0.000002     -0.000009      0.000026      0.000000
    270 O2    s      -0.000049      0.000059     -0.000081      0.000000
    271 O2    s       0.000035      0.000055      0.000106      0.000000
    272 O3    s      -0.000027     -0.000049     -0.000161      0.000000
    273 O2    s       0.000003     -0.000058      0.000009      0.000000
    274 O3    s       0.000049     -0.000193     -0.000296      0.000000
    275 O2    s       0.000010      0.000020      0.000083      0.000000
    276 O2    s      -0.000579      0.000622     -0.000971      0.000000
    277 O2    s       0.000016      0.000025     -0.000207      0.000000
    278 O2    s       0.000065      0.000001      0.000069      0.000000
    279 O2    s       0.000017     -0.000027      0.000031      0.000000
    280 O2    s      -0.000011      0.000033     -0.000064      0.000000
    281 O3    s      -0.000001     -0.000071      0.000254      0.000000
    282 O2    s      -0.000032      0.000226     -0.000343      0.000000
    283 O2    s       0.000021     -0.000051     -0.000067      0.000000
    284 O2    s       0.000115      0.000213     -0.000156      0.000000
    285 O2    s      -0.000041      0.000017      0.000060      0.000000
    286 O2    s      -0.000014      0.000077     -0.000159      0.000000
    287 O2    s      -0.000003     -0.000040      0.000096      0.000000
    288 O2    s      -0.000111      0.000037      0.000118      0.000000
    289 O2    s      -0.000236      0.000179      0.000276      0.000000
    290 O2    s       0.000063      0.000023      0.000027      0.000000
    291 O2    s      -0.000002     -0.000005      0.000079      0.000000
    292 O2    s      -0.000015      0.000028      0.000052      0.000000
    293 O2    s       0.000040     -0.000036     -0.000002      0.000000
    294 O2    s      -0.000096      0.000149      0.000813      0.000000
    295 O2    s       0.000007      0.000029     -0.000109      0.000000
    296 O2    s      -0.000377      0.000328     -0.000160      0.000000
    297 O2    s      -0.000004      0.000003     -0.000028      0.000000
    298 O2    s       0.000132     -0.000116     -0.000009      0.000000
    299 O2    s       0.000019      0.000021     -0.000081      0.000000
    300 O2    s       0.000024      0.000024      0.000138      0.000000
    301 O2    s       0.000024      0.000014      0.000150      0.000000
    302 O2    s       0.000013     -0.000019      0.000111      0.000000
    303 O2    s       0.000030      0.000016     -0.000495      0.000000
    304 O2    s       0.000009     -0.000045      0.000026      0.000000
    305 O2    s       0.000228     -0.000064     -0.000193      0.000000
    306 O2    s      -0.000032      0.000074      0.000045      0.000000
    307 F     s      -0.000021      0.000019      0.000045      0.000000
    308 F     s      -0.000018     -0.000029     -0.000090      0.000000
    309 F     s      -0.000026     -0.000027      0.000209      0.000000
    310 F     s      -0.000086      0.000041      0.000034      0.000000
    311 F     s      -0.000449      0.000086     -0.002186      0.000000
    312 F     s      -0.000048     -0.000009     -0.000152      0.000000
--------------------------------------------------------------------------------
  Maximum abs         0.001329      0.001197      0.005163      0.000000
--------------------------------------------------------------------------------


  Time to end of optimisation =       8.7966 seconds


  Peak dynamic memory used =      19.13 MB 


  Timing analysis for GULP :

--------------------------------------------------------------------------------
  Task / Subroutine                                          Time (Seconds)
--------------------------------------------------------------------------------
  Calculation of reciprocal space energy and derivatives          0.3165
  Calculation of real space energy and derivatives                7.4203
  Calculation of three-body energy and derivatives                0.8297
  Calculation of matrix inversion                                 0.1920
--------------------------------------------------------------------------------
  Total CPU time                                                  8.7966
--------------------------------------------------------------------------------


  Dump file written as out.res                                                 
  CIF file written as out.cif                                                 


  Job Finished at 19:50.00  3rd December   2016                               

