********************************************************************************
*                       GENERAL UTILITY LATTICE PROGRAM                        *
*                                 Julian Gale                                  *
*                      Nanochemistry Research Institute                        *
*                           Department of Chemistry                            *
*                    Curtin University, Western Australia                      *
********************************************************************************
* Version = 4.2.0 * Last modified =  20th January 2014                         *
********************************************************************************
*  optimise     - perform optimisation run                                     *
*  conp         - constant pressure calculation                                *
*  qok          - running with non charge neutral cell is OK                   *
********************************************************************************

  Job Started  at 18:08.04  3rd December   2016                               

  Number of CPUs =     1


  Total number of configurations input =   1

********************************************************************************
*  Input for Configuration =   1                                               *
********************************************************************************

  Formula = Ge3Si57O120F6                                               

  Number of irreducible atoms/shells =     312


  Total number atoms/shells =     312

  Dimensionality = 3               :  Bulk   


  Charge on solid   =  -6.000000 =>neutralising background added


  Cartesian lattice vectors (Angstroms) :

       11.942687    0.000000    0.000000
       -6.095790   10.403667    0.000000
       -0.409041   -0.323654   29.449632

  Cell parameters (Angstroms/Degrees):

  a =      11.9427    alpha =  90.1410
  b =      12.0580    beta  =  90.7957
  c =      29.4543    gamma = 120.3672

  Initial cell volume =        3659.050367 Angs**3

  Temperature of configuration =  0.000     K 

  Pressure of configuration =         0.000 GPa 

  Fractional coordinates of asymmetric unit :

--------------------------------------------------------------------------------
   No.  Atomic       x           y          z         Charge      Occupancy
        Label      (Frac)      (Frac)     (Frac)        (e)         (Frac)  
--------------------------------------------------------------------------------
      1 Ge    c    0.699600    0.375700    0.033890     4.00000    1.000000    
      2 Si    c    0.624145 *  0.320676 *  0.364377 *   4.00000    1.000000    
      3 Si    c    0.672640 *  0.297598 *  0.698599 *   4.00000    1.000000    
      4 Si    c    0.307537 *  0.627529 *  0.528055 *   4.00000    1.000000    
      5 Si    c    0.374903 *  0.674877 *  0.861914 *   4.00000    1.000000    
      6 Si    c    0.319756 *  0.704304 *  0.194789 *   4.00000    1.000000    
      7 Si    c    0.375438 *  0.695639 *  0.295056 *   4.00000    1.000000    
      8 Si    c    0.316010 *  0.617855 *  0.961487 *   4.00000    1.000000    
      9 Ge    c    0.278414 *  0.667878 *  0.626307 *   4.00000    1.000000    
     10 Si    c    0.625616 *  0.298600 *  0.799431 *   4.00000    1.000000    
     11 Si    c    0.677154 *  0.383772 *  0.464795 *   4.00000    1.000000    
     12 Si    c    0.685111 *  0.317017 *  0.132604 *   4.00000    1.000000    
     13 Si    c    0.527088 *  0.416389 *  0.965979 *   4.00000    1.000000    
     14 Si    c    0.584407 *  0.105581 *  0.302127 *   4.00000    1.000000    
     15 Si    c    0.885681 *  0.472927 *  0.635113 *   4.00000    1.000000    
     16 Si    c    0.467222 *  0.581833 *  0.459537 *   4.00000    1.000000    
     17 Si    c    0.416298 *  0.883779 *  0.796593 *   4.00000    1.000000    
     18 Si    c    0.106474 *  0.532022 *  0.127863 *   4.00000    1.000000    
     19 Si    c    0.415446 *  0.521894 *  0.357840 *   4.00000    1.000000    
     20 Si    c    0.100737 *  0.579623 *  0.024527 *   4.00000    1.000000    
     21 Si    c    0.458073 *  0.882644 *  0.693715 *   4.00000    1.000000    
     22 Si    c    0.583020 *  0.467936 *  0.863909 *   4.00000    1.000000    
     23 Si    c    0.886633 *  0.420305 *  0.531950 *   4.00000    1.000000    
     24 Si    c    0.529832 *  0.111628 *  0.200767 *   4.00000    1.000000    
     25 Si    c    0.301930 *  0.400238 *  0.846374 *   4.00000    1.000000    
     26 Si    c    0.600659 *  0.905516 *  0.182743 *   4.00000    1.000000    
     27 Si    c    0.100143 *  0.705379 *  0.517921 *   4.00000    1.000000    
     28 Si    c    0.698389 *  0.594876 *  0.346652 *   4.00000    1.000000    
     29 Si    c    0.391933 *  0.097252 *  0.683888 *   4.00000    1.000000    
     30 Si    c    0.886178 *  0.291421 *  0.010724 *   4.00000    1.000000    
     31 Si    c    0.396730 *  0.304709 *  0.476822 *   4.00000    1.000000    
     32 Si    c    0.891939 *  0.602323 *  0.141635 *   4.00000    1.000000    
     33 Si    c    0.699221 *  0.095974 *  0.811586 *   4.00000    1.000000    
     34 Si    c    0.595382 *  0.696164 *  0.978939 *   4.00000    1.000000    
     35 Si    c    0.098784 *  0.397877 *  0.650615 *   4.00000    1.000000    
     36 Si    c    0.301406 *  0.895654 *  0.313289 *   4.00000    1.000000    
     37 Si    c    0.247099 *  0.339769 *  0.946137 *   4.00000    1.000000    
     38 Si    c    0.659005 *  0.905169 *  0.283590 *   4.00000    1.000000    
     39 Si    c    0.086038 *  0.757664 *  0.620395 *   4.00000    1.000000    
     40 Si    c    0.748336 *  0.660857 *  0.447271 *   4.00000    1.000000    
     41 Si    c    0.343745 *  0.087846 *  0.785004 *   4.00000    1.000000    
     42 Si    c    0.901158 *  0.249658 *  0.113857 *   4.00000    1.000000    
     43 Si    c    0.340669 *  0.246543 *  0.375867 *   4.00000    1.000000    
     44 Si    c    0.897536 *  0.660127 *  0.038942 *   4.00000    1.000000    
     45 Si    c    0.739847 *  0.087468 *  0.710667 *   4.00000    1.000000    
     46 Si    c    0.655136 *  0.744108 *  0.878636 *   4.00000    1.000000    
     47 Si    c    0.091395 *  0.343644 *  0.547111 *   4.00000    1.000000    
     48 Si    c    0.248507 *  0.910210 *  0.212881 *   4.00000    1.000000    
     49 Si    c    0.969208 *  0.119691 *  0.963559 *   4.00000    1.000000    
     50 Si    c    0.876572 *  0.841477 *  0.296958 *   4.00000    1.000000    
     51 Si    c    0.143462 *  0.032594 *  0.629853 *   4.00000    1.000000    
     52 Si    c    0.029071 *  0.880780 *  0.464124 *   4.00000    1.000000    
     53 Ge    c    0.120440 *  0.145244 *  0.797082 *   4.00000    1.000000    
     54 Si    c    0.847174 *  0.974618 *  0.131033 *   4.00000    1.000000    
     55 Si    c    0.123292 *  0.964452 *  0.362818 *   4.00000    1.000000    
     56 Si    c    0.846625 *  0.882419 *  0.029696 *   4.00000    1.000000    
     57 Si    c    0.015480 *  0.141753 *  0.695326 *   4.00000    1.000000    
     58 Si    c    0.873408 *  0.020978 *  0.863188 *   4.00000    1.000000    
     59 Si    c    0.150417 *  0.125921 *  0.528599 *   4.00000    1.000000    
     60 Si    c    0.968283 *  0.851123 *  0.195352 *   4.00000    1.000000    
     61 O2    c    0.928524 *  0.007229 *  0.999695 *   0.87073    1.000000    
     62 O2    c    0.000319 *  0.920584 *  0.329737 *   0.87073    1.000000    
     63 O2    c    0.058741 *  0.077777 *  0.656746 *   0.87073    1.000000    
     64 O2    c    0.068406 *  0.005849 *  0.494708 *   0.87073    1.000000    
     65 O3    c    0.993234 *  0.057691 *  0.832071 *   1.33043    1.000000    
     66 O2    c    0.930340 *  0.937333 *  0.164567 *   0.87073    1.000000    
     67 O2    c    0.337523 *  0.568568 *  0.324844 *   0.87073    1.000000    
     68 O3    c    0.415655 *  0.764612 *  0.661070 *   1.33043    1.000000    
     69 O2    c    0.227619 *  0.653416 *  0.993427 *   0.87073    1.000000    
     70 O2    c    0.662907 *  0.420599 *  0.832816 *   0.87073    1.000000    
     71 O2    c    0.579606 *  0.240600 *  0.171544 *   0.87073    1.000000    
     72 O2    c    0.760707 *  0.346307 *  0.498896 *   0.87073    1.000000    
     73 O3    c    0.564706 *  0.336663 *  0.998824 *   1.33043    1.000000    
     74 O2    c    0.758603 *  0.420888 *  0.666058 *   0.87073    1.000000    
     75 O2    c    0.662617 *  0.231216 *  0.334861 *   0.87073    1.000000    
     76 O2    c    0.414912 *  0.658041 *  0.489510 *   0.87073    1.000000    
     77 O2    c    0.233756 *  0.584186 *  0.160308 *   0.87073    1.000000    
     78 O2    c    0.338524 *  0.759244 *  0.828640 *   0.87073    1.000000    
     79 O2    c    0.123890 *  0.212920 *  0.967077 *   0.87073    1.000000    
     80 O2    c    0.784983 *  0.902948 *  0.303661 *   0.87073    1.000000    
     81 O2    c    0.070431 *  0.878632 *  0.635544 *   0.87073    1.000000    
     82 O2    c    0.873801 *  0.789701 *  0.467480 *   0.87073    1.000000    
     83 O3    c    0.220221 *  0.083537 *  0.807009 *   1.33043    1.000000    
     84 O2    c    0.907188 *  0.128488 *  0.135000 *   0.87073    1.000000    
     85 O2    c    0.214784 *  0.117540 *  0.356006 *   0.87073    1.000000    
     86 O2    c    0.914813 *  0.797405 *  0.023567 *   0.87073    1.000000    
     87 O2    c    0.861437 *  0.082211 *  0.689010 *   0.87073    1.000000    
     88 O2    c    0.779916 *  0.867840 *  0.857857 *   0.87073    1.000000    
     89 O2    c    0.087470 *  0.217195 *  0.526012 *   0.87073    1.000000    
     90 O2    c    0.123436 *  0.913503 *  0.192443 *   0.87073    1.000000    
     91 O2    c    0.925453 *  0.856136 *  0.246046 *   0.87073    1.000000    
     92 O2    c    0.143875 *  0.070460 *  0.577813 *   0.87073    1.000000    
     93 O2    c    0.924671 *  0.056556 *  0.914501 *   0.87073    1.000000    
     94 O3    c    0.055626 *  0.111622 *  0.742949 *   1.33043    1.000000    
     95 O2    c    0.857747 *  0.930872 *  0.081183 *   0.87073    1.000000    
     96 O2    c    0.073020 *  0.928839 *  0.413532 *   0.87073    1.000000    
     97 O2    c    0.898978 *  0.200670 *  0.973457 *   0.87073    1.000000    
     98 O2    c    0.796081 *  0.689940 *  0.308250 *   0.87073    1.000000    
     99 O2    c    0.293043 *  0.100179 *  0.645950 *   0.87073    1.000000    
    100 O2    c    0.097030 *  0.800028 *  0.479434 *   0.87073    1.000000    
    101 O3    c    0.206482 *  0.308337 *  0.806301 *   1.33043    1.000000    
    102 O2    c    0.695880 *  0.905064 *  0.144133 *   0.87073    1.000000    
    103 O2    c    0.204178 *  0.893579 *  0.351826 *   0.87073    1.000000    
    104 O2    c    0.693696 *  0.797963 *  0.017355 *   0.87073    1.000000    
    105 O2    c    0.085582 *  0.295292 *  0.688341 *   0.87073    1.000000    
    106 O2    c    0.797512 *  0.095946 *  0.850158 *   0.87073    1.000000    
    107 O2    c    0.301212 *  0.209678 *  0.515302 *   0.87073    1.000000    
    108 O2    c    0.897692 *  0.702186 *  0.179928 *   0.87073    1.000000    
    109 O2    c    0.318239 *  0.642257 *  0.244036 *   0.87073    1.000000    
    110 O3    c    0.372831 *  0.684731 *  0.575869 *   1.33043    1.000000    
    111 O2    c    0.315546 *  0.675821 *  0.911559 *   0.87073    1.000000    
    112 O2    c    0.680480 *  0.357326 *  0.749192 *   0.87073    1.000000    
    113 O3    c    0.612708 *  0.302931 *  0.085490 *   1.33043    1.000000    
    114 O2    c    0.680090 *  0.324255 *  0.415439 *   0.87073    1.000000    
    115 O2    c    0.368994 *  0.331233 *  0.965219 *   0.87073    1.000000    
    116 O2    c    0.671059 *  0.036176 *  0.303929 *   0.87073    1.000000    
    117 O2    c    0.953296 *  0.628179 *  0.635722 *   0.87073    1.000000    
    118 O2    c    0.624459 *  0.669693 *  0.464077 *   0.87073    1.000000    
    119 O2    c    0.333024 *  0.955079 *  0.801281 *   0.87073    1.000000    
    120 O2    c    0.034316 *  0.376939 *  0.130417 *   0.87073    1.000000    
    121 O2    c    0.328850 *  0.365668 *  0.355835 *   0.87073    1.000000    
    122 O2    c    0.030823 *  0.664744 *  0.023264 *   0.87073    1.000000    
    123 O2    c    0.616337 *  0.956733 *  0.692627 *   0.87073    1.000000    
    124 O2    c    0.667285 *  0.623615 *  0.860743 *   0.87073    1.000000    
    125 O2    c    0.958901 *  0.337526 *  0.529680 *   0.87073    1.000000    
    126 O2    c    0.372746 *  0.042508 *  0.196305 *   0.87073    1.000000    
    127 O3    c    0.750802 *  0.281456 *  0.002292 *   1.33043    1.000000    
    128 O2    c    0.699806 *  0.461646 *  0.340932 *   0.87073    1.000000    
    129 O2    c    0.527252 *  0.231701 *  0.676371 *   0.87073    1.000000    
    130 O2    c    0.231143 *  0.700946 *  0.509781 *   0.87073    1.000000    
    131 O2    c    0.301259 *  0.532777 *  0.838689 *   0.87073    1.000000    
    132 O2    c    0.463649 *  0.774106 *  0.173193 *   0.87073    1.000000    
    133 O2    c    0.300089 *  0.761098 *  0.318752 *   0.87073    1.000000    
    134 O2    c    0.459604 *  0.694809 *  0.985379 *   0.87073    1.000000    
    135 O3    c    0.232409 *  0.525208 *  0.658779 *   1.33043    1.000000    
    136 O2    c    0.701050 *  0.229686 *  0.821015 *   0.87073    1.000000    
    137 O2    c    0.533312 *  0.310055 *  0.486360 *   0.87073    1.000000    
    138 O2    c    0.760772 *  0.467251 *  0.150461 *   0.87073    1.000000    
    139 O3    c    0.770943 *  0.545016 *  0.017881 *   1.33043    1.000000    
    140 O2    c    0.467342 *  0.246091 *  0.357801 *   0.87073    1.000000    
    141 O2    c    0.745996 *  0.216389 *  0.691688 *   0.87073    1.000000    
    142 O2    c    0.214472 *  0.470463 *  0.527596 *   0.87073    1.000000    
    143 O2    c    0.531479 *  0.748517 *  0.858449 *   0.87073    1.000000    
    144 O2    c    0.244060 *  0.784316 *  0.191597 *   0.87073    1.000000    
    145 O2    c    0.532330 *  0.777700 *  0.301414 *   0.87073    1.000000    
    146 O2    c    0.240437 *  0.462321 *  0.965454 *   0.87073    1.000000    
    147 O3    c    0.211097 *  0.767973 *  0.642402 *   1.33043    1.000000    
    148 O2    c    0.469526 *  0.215873 *  0.804750 *   0.87073    1.000000    
    149 O2    c    0.752972 *  0.539693 *  0.468584 *   0.87073    1.000000    
    150 O2    c    0.778724 *  0.254001 *  0.133694 *   0.87073    1.000000    
    151 O2    c    0.225704 *  0.320792 *  0.891442 *   0.87073    1.000000    
    152 O2    c    0.675318 *  0.906640 *  0.229201 *   0.87073    1.000000    
    153 O2    c    0.097211 *  0.770676 *  0.565055 *   0.87073    1.000000    
    154 O2    c    0.768281 *  0.673974 *  0.392970 *   0.87073    1.000000    
    155 O2    c    0.320415 *  0.093700 *  0.730685 *   0.87073    1.000000    
    156 O2    c    0.895448 *  0.232054 *  0.059675 *   0.87073    1.000000    
    157 O2    c    0.323389 *  0.231250 *  0.430168 *   0.87073    1.000000    
    158 O2    c    0.891846 *  0.667718 *  0.094384 *   0.87073    1.000000    
    159 O2    c    0.769237 *  0.094959 *  0.764905 *   0.87073    1.000000    
    160 O2    c    0.672301 *  0.764537 *  0.933120 *   0.87073    1.000000    
    161 O2    c    0.093175 *  0.331077 *  0.601385 *   0.87073    1.000000    
    162 O2    c    0.230315 *  0.904269 *  0.267254 *   0.87073    1.000000    
    163 O2    c    0.578724 *  0.557856 *  0.988839 *   0.87073    1.000000    
    164 O2    c    0.442606 *  0.018827 *  0.324271 *   0.87073    1.000000    
    165 O2    c    0.978399 *  0.424160 *  0.656117 *   0.87073    1.000000    
    166 O2    c    0.408403 *  0.442912 *  0.483627 *   0.87073    1.000000    
    167 O2    c    0.560573 *  0.968369 *  0.818967 *   0.87073    1.000000    
    168 O2    c    0.015921 *  0.583811 *  0.147689 *   0.87073    1.000000    
    169 O2    c    0.557412 *  0.577148 *  0.335797 *   0.87073    1.000000    
    170 O2    c    0.007753 *  0.436851 *  0.004413 *   0.87073    1.000000    
    171 O2    c    0.404428 *  0.973407 *  0.673500 *   0.87073    1.000000    
    172 O2    c    0.441160 *  0.411117 *  0.839752 *   0.87073    1.000000    
    173 O2    c    0.976669 *  0.562451 *  0.511956 *   0.87073    1.000000    
    174 O2    c    0.588652 *  0.031895 *  0.176058 *   0.87073    1.000000    
    175 O2    c    0.583194 *  0.160522 *  0.252068 *   0.87073    1.000000    
    176 O2    c    0.840711 *  0.421927 *  0.583079 *   0.87073    1.000000    
    177 O2    c    0.583002 *  0.420243 *  0.915280 *   0.87073    1.000000    
    178 O2    c    0.409939 *  0.832874 *  0.745262 *   0.87073    1.000000    
    179 O2    c    0.149063 *  0.577665 *  0.076405 *   0.87073    1.000000    
    180 O2    c    0.415824 *  0.578266 *  0.407989 *   0.87073    1.000000    
    181 F     c    0.449175 *  0.899451 *  0.247918 *   0.56000    1.000000    
    182 F     c    0.132279 *  0.576045 *  0.590123 *   0.56000    1.000000    
    183 F     c    0.443492 *  0.547761 *  0.912403 *   0.56000    1.000000    
    184 F     c    0.549298 *  0.102564 *  0.747750 *   0.56000    1.000000    
    185 F     c    0.850778 *  0.434691 *  0.069752 *   0.56000    1.000000    
    186 F     c    0.549844 *  0.450883 *  0.411901 *   0.56000    1.000000    
    187 O2    s    0.923745 *  0.005611 *  0.999076 *  -2.87073    1.000000    
    188 O2    s    0.000191 *  0.916584 *  0.329767 *  -2.87073    1.000000    
    189 O2    s    0.063752 *  0.079656 *  0.657911 *  -2.87073    1.000000    
    190 O2    s    0.073023 *  0.005158 *  0.495030 *  -2.87073    1.000000    
    191 O3    s    0.991252 *  0.061381 *  0.832405 *  -3.33043    1.000000    
    192 O2    s    0.925475 *  0.931904 *  0.164313 *  -2.87073    1.000000    
    193 O2    s    0.349380 *  0.576748 *  0.325177 *  -2.87073    1.000000    
    194 O3    s    0.410346 *  0.770462 *  0.662098 *  -3.33043    1.000000    
    195 O2    s    0.222982 *  0.642053 *  0.993533 *  -2.87073    1.000000    
    196 O2    s    0.651048 *  0.413031 *  0.832575 *  -2.87073    1.000000    
    197 O2    s    0.585253 *  0.234804 *  0.170609 *  -2.87073    1.000000    
    198 O2    s    0.765530 *  0.358001 *  0.498906 *  -2.87073    1.000000    
    199 O3    s    0.570832 *  0.347951 *  0.998006 *  -3.33043    1.000000    
    200 O2    s    0.763554 *  0.414217 *  0.666008 *  -2.87073    1.000000    
    201 O2    s    0.650654 *  0.227459 *  0.334527 *  -2.87073    1.000000    
    202 O2    s    0.409419 *  0.646850 *  0.490306 *  -2.87073    1.000000    
    203 O2    s    0.229077 *  0.590919 *  0.160406 *  -2.87073    1.000000    
    204 O2    s    0.350302 *  0.763312 *  0.828799 *  -2.87073    1.000000    
    205 O2    s    0.119653 *  0.215776 *  0.964563 *  -2.87073    1.000000    
    206 O2    s    0.781586 *  0.896655 *  0.300890 *  -2.87073    1.000000    
    207 O2    s    0.079758 *  0.882481 *  0.633399 *  -2.87073    1.000000    
    208 O2    s    0.877368 *  0.786054 *  0.465044 *  -2.87073    1.000000    
    209 O3    s    0.224337 *  0.089117 *  0.803987 *  -3.33043    1.000000    
    210 O2    s    0.900293 *  0.124870 *  0.132437 *  -2.87073    1.000000    
    211 O2    s    0.218190 *  0.114747 *  0.358769 *  -2.87073    1.000000    
    212 O2    s    0.905748 *  0.792556 *  0.025766 *  -2.87073    1.000000    
    213 O2    s    0.865613 *  0.089209 *  0.691895 *  -2.87073    1.000000    
    214 O2    s    0.776685 *  0.871162 *  0.860623 *  -2.87073    1.000000    
    215 O2    s    0.094474 *  0.220645 *  0.528434 *  -2.87073    1.000000    
    216 O2    s    0.119839 *  0.906487 *  0.194856 *  -2.87073    1.000000    
    217 O2    s    0.924738 *  0.853902 *  0.246102 *  -2.87073    1.000000    
    218 O2    s    0.144569 *  0.072743 *  0.577846 *  -2.87073    1.000000    
    219 O2    s    0.924090 *  0.059915 *  0.914451 *  -2.87073    1.000000    
    220 O3    s    0.056764 *  0.117730 *  0.742371 *  -3.33043    1.000000    
    221 O2    s    0.855293 *  0.930626 *  0.081297 *  -2.87073    1.000000    
    222 O2    s    0.073759 *  0.927460 *  0.413479 *  -2.87073    1.000000    
    223 O2    s    0.905283 *  0.201539 *  0.976372 *  -2.87073    1.000000    
    224 O2    s    0.794624 *  0.696226 *  0.310966 *  -2.87073    1.000000    
    225 O2    s    0.286849 *  0.092572 *  0.648049 *  -2.87073    1.000000    
    226 O2    s    0.090100 *  0.798902 *  0.481763 *  -2.87073    1.000000    
    227 O3    s    0.208372 *  0.303522 *  0.809321 *  -3.33043    1.000000    
    228 O2    s    0.702054 *  0.912486 *  0.146749 *  -2.87073    1.000000    
    229 O2    s    0.205545 *  0.901235 *  0.349060 *  -2.87073    1.000000    
    230 O2    s    0.700078 *  0.796761 *  0.014837 *  -2.87073    1.000000    
    231 O2    s    0.079608 *  0.289990 *  0.685114 *  -2.87073    1.000000    
    232 O2    s    0.795444 *  0.088054 *  0.847564 *  -2.87073    1.000000    
    233 O2    s    0.295100 *  0.210687 *  0.512691 *  -2.87073    1.000000    
    234 O2    s    0.904645 *  0.707825 *  0.177627 *  -2.87073    1.000000    
    235 O2    s    0.324213 *  0.654064 *  0.244189 *  -2.87073    1.000000    
    236 O3    s    0.360010 *  0.677575 *  0.573905 *  -3.33043    1.000000    
    237 O2    s    0.321527 *  0.669794 *  0.911675 *  -2.87073    1.000000    
    238 O2    s    0.674230 *  0.345435 *  0.749096 *  -2.87073    1.000000    
    239 O3    s    0.625807 *  0.309074 *  0.087020 *  -3.33043    1.000000    
    240 O2    s    0.674039 *  0.330046 *  0.415273 *  -2.87073    1.000000    
    241 O2    s    0.371544 *  0.340851 *  0.963160 *  -2.87073    1.000000    
    242 O2    s    0.660929 *  0.029705 *  0.301632 *  -2.87073    1.000000    
    243 O2    s    0.959481 *  0.624940 *  0.634119 *  -2.87073    1.000000    
    244 O2    s    0.621342 *  0.659726 *  0.461830 *  -2.87073    1.000000    
    245 O2    s    0.343006 *  0.961709 *  0.799033 *  -2.87073    1.000000    
    246 O2    s    0.028062 *  0.379966 *  0.128436 *  -2.87073    1.000000    
    247 O2    s    0.338920 *  0.369295 *  0.358121 *  -2.87073    1.000000    
    248 O2    s    0.024967 *  0.655335 *  0.024956 *  -2.87073    1.000000    
    249 O2    s    0.614198 *  0.963908 *  0.694770 *  -2.87073    1.000000    
    250 O2    s    0.657278 *  0.620192 *  0.862962 *  -2.87073    1.000000    
    251 O2    s    0.965028 *  0.346816 *  0.531719 *  -2.87073    1.000000    
    252 O2    s    0.375733 *  0.035550 *  0.198539 *  -2.87073    1.000000    
    253 O3    s    0.761873 *  0.288701 *  0.005339 *  -3.33043    1.000000    
    254 O2    s    0.691943 *  0.461115 *  0.343948 *  -2.87073    1.000000    
    255 O2    s    0.528350 *  0.224752 *  0.679450 *  -2.87073    1.000000    
    256 O2    s    0.224486 *  0.694374 *  0.512428 *  -2.87073    1.000000    
    257 O2    s    0.309001 *  0.533597 *  0.841968 *  -2.87073    1.000000    
    258 O2    s    0.463039 *  0.780605 *  0.176465 *  -2.87073    1.000000    
    259 O2    s    0.307895 *  0.768423 *  0.315733 *  -2.87073    1.000000    
    260 O2    s    0.458879 *  0.687106 *  0.982259 *  -2.87073    1.000000    
    261 O3    s    0.221016 *  0.520831 *  0.655705 *  -3.33043    1.000000    
    262 O2    s    0.693152 *  0.222911 *  0.817793 *  -2.87073    1.000000    
    263 O2    s    0.533905 *  0.317176 *  0.483080 *  -2.87073    1.000000    
    264 O2    s    0.767372 *  0.467056 *  0.147759 *  -2.87073    1.000000    
    265 O3    s    0.780785 *  0.547505 *  0.021133 *  -3.33043    1.000000    
    266 O2    s    0.469991 *  0.253993 *  0.360400 *  -2.87073    1.000000    
    267 O2    s    0.737687 *  0.211199 *  0.694377 *  -2.87073    1.000000    
    268 O2    s    0.210105 *  0.472081 *  0.529775 *  -2.87073    1.000000    
    269 O2    s    0.528332 *  0.740101 *  0.861008 *  -2.87073    1.000000    
    270 O2    s    0.252480 *  0.789470 *  0.194187 *  -2.87073    1.000000    
    271 O2    s    0.529671 *  0.783016 *  0.298858 *  -2.87073    1.000000    
    272 O2    s    0.249043 *  0.465648 *  0.963031 *  -2.87073    1.000000    
    273 O3    s    0.201402 *  0.760371 *  0.639012 *  -3.33043    1.000000    
    274 O2    s    0.472508 *  0.210761 *  0.802078 *  -2.87073    1.000000    
    275 O2    s    0.744537 *  0.536397 *  0.465941 *  -2.87073    1.000000    
    276 O2    s    0.782922 *  0.259863 *  0.131407 *  -2.87073    1.000000    
    277 O2    s    0.235415 *  0.330552 *  0.892533 *  -2.87073    1.000000    
    278 O2    s    0.665738 *  0.906364 *  0.230103 *  -2.87073    1.000000    
    279 O2    s    0.096486 *  0.762213 *  0.565319 *  -2.87073    1.000000    
    280 O2    s    0.758855 *  0.664310 *  0.393869 *  -2.87073    1.000000    
    281 O2    s    0.330178 *  0.093553 *  0.731339 *  -2.87073    1.000000    
    282 O2    s    0.895131 *  0.239787 *  0.060783 *  -2.87073    1.000000    
    283 O2    s    0.332969 *  0.240635 *  0.429306 *  -2.87073    1.000000    
    284 O2    s    0.892340 *  0.659666 *  0.094183 *  -2.87073    1.000000    
    285 O2    s    0.759080 *  0.094374 *  0.764145 *  -2.87073    1.000000    
    286 O2    s    0.662425 *  0.755212 *  0.932191 *  -2.87073    1.000000    
    287 O2    s    0.093533 *  0.338959 *  0.600293 *  -2.87073    1.000000    
    288 O2    s    0.239635 *  0.903998 *  0.266288 *  -2.87073    1.000000    
    289 O2    s    0.575075 *  0.558810 *  0.985435 *  -2.87073    1.000000    
    290 O2    s    0.442307 *  0.014516 *  0.320775 *  -2.87073    1.000000    
    291 O2    s    0.980783 *  0.426969 *  0.653277 *  -2.87073    1.000000    
    292 O2    s    0.413423 *  0.442510 *  0.480379 *  -2.87073    1.000000    
    293 O2    s    0.560540 *  0.973535 *  0.815815 *  -2.87073    1.000000    
    294 O2    s    0.012266 *  0.580147 *  0.144923 *  -2.87073    1.000000    
    295 O2    s    0.557673 *  0.573074 *  0.339271 *  -2.87073    1.000000    
    296 O2    s    0.005218 *  0.437477 *  0.007253 *  -2.87073    1.000000    
    297 O2    s    0.408714 *  0.978220 *  0.676704 *  -2.87073    1.000000    
    298 O2    s    0.441032 *  0.415996 *  0.842972 *  -2.87073    1.000000    
    299 O2    s    0.980388 *  0.562590 *  0.514732 *  -2.87073    1.000000    
    300 O2    s    0.583698 *  0.026426 *  0.179330 *  -2.87073    1.000000    
    301 O2    s    0.577655 *  0.149516 *  0.251935 *  -2.87073    1.000000    
    302 O2    s    0.850186 *  0.426935 *  0.582902 *  -2.87073    1.000000    
    303 O2    s    0.577432 *  0.424905 *  0.914953 *  -2.87073    1.000000    
    304 O2    s    0.415402 *  0.843257 *  0.745569 *  -2.87073    1.000000    
    305 O2    s    0.139612 *  0.572969 *  0.076665 *  -2.87073    1.000000    
    306 O2    s    0.421202 *  0.572737 *  0.408158 *  -2.87073    1.000000    
    307 F     s    0.448816 *  0.898913 *  0.247896 *  -1.56000    1.000000    
    308 F     s    0.143565 *  0.583234 *  0.592789 *  -1.56000    1.000000    
    309 F     s    0.442758 *  0.548138 *  0.912330 *  -1.56000    1.000000    
    310 F     s    0.549942 *  0.103784 *  0.747783 *  -1.56000    1.000000    
    311 F     s    0.840155 *  0.430553 *  0.067423 *  -1.56000    1.000000    
    312 F     s    0.550247 *  0.450729 *  0.411930 *  -1.56000    1.000000    
--------------------------------------------------------------------------------



********************************************************************************
*  General input information                                                   *
********************************************************************************

  Species output for all configurations : 

--------------------------------------------------------------------------------
  Species    Type    Atomic    Atomic    Charge       Radii (Angs)     Library
                     Number     Mass       (e)     Cova   Ionic  VDW   Symbol
--------------------------------------------------------------------------------
    Si       Core       14      28.09   4.000000   1.200  0.000  2.100          
    O1       Core        8      16.00   1.733957   0.730  0.000  1.360          
    O1       Shell       8       0.00  -3.733957   0.730  0.000  1.360          
    O2       Core        8      16.00   0.870733   0.730  0.000  1.360          
    O2       Shell       8       0.00  -2.870733   0.730  0.000  1.360          
    O3       Core        8      16.00   1.330431   0.730  0.000  1.360          
    O3       Shell       8       0.00  -3.330431   0.730  0.000  1.360          
    F        Core        9      19.00   0.560000   0.710  0.000  1.300          
    F        Shell       9       0.00  -1.560000   0.710  0.000  1.300          
    Ge       Core       32      72.61   4.000000   1.170  0.000  1.750          
--------------------------------------------------------------------------------


  Lattice summation method               =    Ewald          (3-D)
                                         =    Parry          (2-D)
                                         =    Saunders et al (1-D)
  Accuracy factor for lattice sums       =   12.000


  Time limit = Infinity

  Maximum range for interatomic potentials =        16.000000 Angstroms

  Taper potentials to zero over   1.0000 Angstroms using polynomial

  General interatomic potentials :

--------------------------------------------------------------------------------
Atom  Types   Potential         A         B         C         D     Cutoffs(Ang)
  1     2                                                            Min    Max 
--------------------------------------------------------------------------------
Si   c O1   s Buckingham    0.132E+04 0.318      10.1      0.00     0.000 16.000
Si   c O2   s Buckingham    0.132E+04 0.318      10.1      0.00     0.000 16.000
Si   c O3   s Buckingham    0.132E+04 0.318      10.1      0.00     0.000 16.000
Ge   c O1   s Buckingham    0.150E+04 0.326      16.8      0.00     0.000 16.000
Ge   c O2   s Buckingham    0.150E+04 0.326      16.8      0.00     0.000 16.000
Ge   c O3   s Buckingham    0.150E+04 0.326      16.8      0.00     0.000 16.000
O1   s O1   s Buckingham    0.228E+05 0.149      10.9      0.00     0.000 16.000
O1   s O2   s Buckingham    0.228E+05 0.149      10.9      0.00     0.000 16.000
O1   s O3   s Buckingham    0.228E+05 0.149      10.9      0.00     0.000 16.000
O2   s O2   s Buckingham    0.228E+05 0.149      10.9      0.00     0.000 16.000
O2   s O3   s Buckingham    0.228E+05 0.149      10.9      0.00     0.000 16.000
O3   s O3   s Buckingham    0.228E+05 0.149      10.9      0.00     0.000 16.000
Si   c F    s Buckingham     977.     0.282      0.00      0.00     0.000 16.000
Ge   c F    s Buckingham     681.     0.320      0.00      0.00     0.000 16.000
F    s F    s Buckingham     540.     0.262      0.00      0.00     0.000 16.000
O1   s F    s Buckingham    0.168E+04 0.268      0.00      0.00     0.000 16.000
O2   s F    s Buckingham    0.168E+04 0.268      0.00      0.00     0.000 16.000
O3   s F    s Buckingham    0.168E+04 0.268      0.00      0.00     0.000 16.000
O2   c O2   s Spring (c-s)   76.0      0.00      0.00      0.00     0.000  0.800
O3   c O3   s Spring (c-s)   128.      0.00      0.00      0.00     0.000  0.800
O1   c O1   s Spring (c-s)   180.      0.00      0.00      0.00     0.000  0.800
F    c F    s Spring (c-s)   33.5      0.00      0.00      0.00     0.000  0.800
--------------------------------------------------------------------------------

  General Three-body potentials :

  Harmonic form:

--------------------------------------------------------------------------------
Atom    Atom    Atom           Force Constants            Theta     Cutoffs  
  1       2       3     (eVrad**-2/eVrad**-3/eVrad**-4)   (deg)  1-2  1-3  2-3
--------------------------------------------------------------------------------
Si    c O1    s O1    s  1.261        0.0000    0.0000   109.470 0.00 0.00 0.00
                                                                 1.90 1.90 3.50
Si    c O1    s O2    s  1.261        0.0000    0.0000   109.470 0.00 0.00 0.00
                                                                 1.90 1.90 3.50
Si    c O2    s O2    s  1.261        0.0000    0.0000   109.470 0.00 0.00 0.00
                                                                 1.90 1.90 3.50
--------------------------------------------------------------------------------

********************************************************************************
*  Output for configuration   1                                                *
********************************************************************************


  Components of energy : 

--------------------------------------------------------------------------------
  Interatomic potentials     =        2064.05560589 eV
  Three-body potentials      =           0.45343472 eV
  Monopole - monopole (real) =       -6614.28594670 eV
  Monopole - monopole (recip)=       -3170.69880636 eV
  Monopole - monopole (total)=       -9784.98475306 eV
  Neutralising energy        =          -6.45871046 eV
--------------------------------------------------------------------------------
  Total lattice energy       =       -7726.93442291 eV
--------------------------------------------------------------------------------
  Total lattice energy       =         -745531.0548 kJ/(mole unit cells)
--------------------------------------------------------------------------------


  Number of variables =      939

  Maximum number of calculations  =          1000
  Maximum Hessian update interval =            10
  Maximum step size               =   1.000000000
  Maximum parameter tolerance     =   0.000010000
  Maximum function  tolerance     =   0.000010000
  Maximum gradient  tolerance     =   0.001000000
  Maximum gradient  component     =   0.010000000

  Symmetry not applied to optimisation

  Cell parameters to be optimised using strains

  Newton-Raphson optimiser to be used

  BFGS hessian update to be used

  Dumpfile to be written after every cycle

  Start of bulk optimisation :

  Cycle:      0 Energy:     -7726.934423  Gnorm:      0.001070  CPU:    1.060
  ** Hessian calculated **
  Cycle:      1 Energy:     -7726.981425  Gnorm:      0.003720  CPU:    3.288
  Cycle:      2 Energy:     -7726.981664  Gnorm:      0.000235  CPU:    4.665
  Cycle:      3 Energy:     -7726.981672  Gnorm:      0.000043  CPU:    6.042


  **** Optimisation achieved ****


  Final energy =   -7726.98167193 eV
  Final Gnorm  =       0.00001114

  Components of energy : 

--------------------------------------------------------------------------------
  Interatomic potentials     =        2064.24835336 eV
  Three-body potentials      =           0.45483872 eV
  Monopole - monopole (real) =       -6615.19684435 eV
  Monopole - monopole (recip)=       -3170.03066721 eV
  Monopole - monopole (total)=       -9785.22751156 eV
  Neutralising energy        =          -6.45735245 eV
--------------------------------------------------------------------------------
  Total lattice energy       =       -7726.98167193 eV
--------------------------------------------------------------------------------
  Total lattice energy       =         -745535.6136 kJ/(mole unit cells)
--------------------------------------------------------------------------------

  Final fractional coordinates of atoms :

--------------------------------------------------------------------------------
   No.  Atomic        x           y          z          Radius
        Label       (Frac)      (Frac)     (Frac)       (Angs) 
--------------------------------------------------------------------------------
     1  Ge    c     0.699600    0.375700    0.033890    0.000000
     2  Si    c     0.607504    0.308767    0.364536    0.000000
     3  Si    c     0.659199    0.288429    0.698622    0.000000
     4  Si    c     0.292319    0.617132    0.527904    0.000000
     5  Si    c     0.361654    0.664087    0.861768    0.000000
     6  Si    c     0.306458    0.695276    0.195049    0.000000
     7  Si    c     0.360145    0.684937    0.295381    0.000000
     8  Si    c     0.305773    0.607904    0.961572    0.000000
     9  Ge    c     0.265303    0.658544    0.626231    0.000000
    10  Si    c     0.611832    0.288193    0.799445    0.000000
    11  Si    c     0.661138    0.372718    0.464947    0.000000
    12  Si    c     0.673724    0.308513    0.132327    0.000000
    13  Si    c     0.518589    0.407534    0.966333    0.000000
    14  Si    c     0.568900    0.094690    0.302102    0.000000
    15  Si    c     0.872599    0.464013    0.635380    0.000000
    16  Si    c     0.450875    0.570157    0.459427    0.000000
    17  Si    c     0.402751    0.873303    0.796390    0.000000
    18  Si    c     0.094841    0.522383    0.128288    0.000000
    19  Si    c     0.398566    0.509472    0.357802    0.000000
    20  Si    c     0.092954    0.572992    0.025026    0.000000
    21  Si    c     0.444930    0.873835    0.693397    0.000000
    22  Si    c     0.570474    0.458139    0.863794    0.000000
    23  Si    c     0.871722    0.410725    0.532174    0.000000
    24  Si    c     0.516066    0.102316    0.200494    0.000000
    25  Si    c     0.289235    0.389751    0.846492    0.000000
    26  Si    c     0.586873    0.896081    0.182872    0.000000
    27  Si    c     0.085304    0.695572    0.518150    0.000000
    28  Si    c     0.681323    0.582685    0.346496    0.000000
    29  Si    c     0.378728    0.088468    0.683684    0.000000
    30  Si    c     0.879408    0.284956    0.010409    0.000000
    31  Si    c     0.380655    0.293300    0.476771    0.000000
    32  Si    c     0.881093    0.593440    0.142109    0.000000
    33  Si    c     0.685453    0.085549    0.811590    0.000000
    34  Si    c     0.585282    0.686954    0.978779    0.000000
    35  Si    c     0.085665    0.388752    0.650651    0.000000
    36  Si    c     0.286117    0.884904    0.313385    0.000000
    37  Si    c     0.238119    0.330547    0.946532    0.000000
    38  Si    c     0.643488    0.894289    0.283868    0.000000
    39  Si    c     0.073005    0.748458    0.620668    0.000000
    40  Si    c     0.732117    0.649691    0.447102    0.000000
    41  Si    c     0.330368    0.077594    0.784866    0.000000
    42  Si    c     0.889797    0.240718    0.113806    0.000000
    43  Si    c     0.324015    0.234455    0.375856    0.000000
    44  Si    c     0.893182    0.657785    0.039565    0.000000
    45  Si    c     0.726514    0.078420    0.710609    0.000000
    46  Si    c     0.642218    0.733992    0.878251    0.000000
    47  Si    c     0.076350    0.333608    0.547131    0.000000
    48  Si    c     0.234856    0.900742    0.212808    0.000000
    49  Si    c     0.959735    0.111673    0.963212    0.000000
    50  Si    c     0.860201    0.829385    0.297033    0.000000
    51  Si    c     0.129656    0.023077    0.629929    0.000000
    52  Si    c     0.012756    0.870081    0.464228    0.000000
    53  Ge    c     0.107192    0.134991    0.797082    0.000000
    54  Si    c     0.833541    0.965184    0.131258    0.000000
    55  Si    c     0.107219    0.952633    0.362855    0.000000
    56  Si    c     0.836162    0.875362    0.029859    0.000000
    57  Si    c     0.002136    0.132499    0.695317    0.000000
    58  Si    c     0.860302    0.011000    0.863159    0.000000
    59  Si    c     0.134220    0.115084    0.528539    0.000000
    60  Si    c     0.954335    0.840912    0.195667    0.000000
    61  O2    c     0.916904    0.000172    0.999880    0.000000
    62  O2    c     0.983719    0.907375    0.329947    0.000000
    63  O2    c     0.044860    0.068089    0.656785    0.000000
    64  O2    c     0.051318    0.995100    0.494697    0.000000
    65  O3    c     0.979589    0.047389    0.831877    0.000000
    66  O2    c     0.915776    0.926474    0.164709    0.000000
    67  O2    c     0.321154    0.557113    0.324888    0.000000
    68  O3    c     0.402994    0.756199    0.660665    0.000000
    69  O2    c     0.219476    0.645264    0.993851    0.000000
    70  O2    c     0.649680    0.410270    0.832684    0.000000
    71  O2    c     0.566898    0.231042    0.170893    0.000000
    72  O2    c     0.745472    0.336509    0.499261    0.000000
    73  O3    c     0.561805    0.332628    0.998972    0.000000
    74  O2    c     0.745687    0.412216    0.666336    0.000000
    75  O2    c     0.646399    0.219782    0.335024    0.000000
    76  O2    c     0.399007    0.646898    0.489204    0.000000
    77  O2    c     0.221584    0.574438    0.160891    0.000000
    78  O2    c     0.325103    0.748436    0.828379    0.000000
    79  O2    c     0.114533    0.202806    0.967022    0.000000
    80  O2    c     0.769197    0.891386    0.303917    0.000000
    81  O2    c     0.057764    0.869392    0.635972    0.000000
    82  O2    c     0.857503    0.778539    0.467232    0.000000
    83  O3    c     0.206667    0.072868    0.806864    0.000000
    84  O2    c     0.894448    0.119019    0.135188    0.000000
    85  O2    c     0.198268    0.105639    0.355918    0.000000
    86  O2    c     0.909082    0.794398    0.024483    0.000000
    87  O2    c     0.848268    0.073619    0.688975    0.000000
    88  O2    c     0.766892    0.858093    0.857672    0.000000
    89  O2    c     0.071882    0.206938    0.526108    0.000000
    90  O2    c     0.109528    0.904260    0.192663    0.000000
    91  O2    c     0.910053    0.845066    0.246208    0.000000
    92  O2    c     0.128116    0.059446    0.577757    0.000000
    93  O2    c     0.913171    0.047344    0.914387    0.000000
    94  O3    c     0.042304    0.102064    0.742938    0.000000
    95  O2    c     0.843940    0.922323    0.081294    0.000000
    96  O2    c     0.057331    0.917797    0.413638    0.000000
    97  O2    c     0.892118    0.195211    0.972885    0.000000
    98  O2    c     0.778796    0.677687    0.308002    0.000000
    99  O2    c     0.279546    0.091591    0.645786    0.000000
   100  O2    c     0.081294    0.790051    0.479739    0.000000
   101  O3    c     0.193021    0.297731    0.806625    0.000000
   102  O2    c     0.682389    0.896152    0.144326    0.000000
   103  O2    c     0.188633    0.882376    0.351869    0.000000
   104  O2    c     0.684132    0.788769    0.017014    0.000000
   105  O2    c     0.072781    0.286036    0.688353    0.000000
   106  O2    c     0.783677    0.085401    0.850273    0.000000
   107  O2    c     0.284890    0.198201    0.515194    0.000000
   108  O2    c     0.885299    0.692089    0.180477    0.000000
   109  O2    c     0.303963    0.632590    0.244267    0.000000
   110  O3    c     0.358622    0.674577    0.575583    0.000000
   111  O2    c     0.303086    0.665018    0.911571    0.000000
   112  O2    c     0.666725    0.347453    0.749246    0.000000
   113  O3    c     0.606961    0.299498    0.084707    0.000000
   114  O2    c     0.663681    0.312693    0.415666    0.000000
   115  O2    c     0.360193    0.322342    0.965820    0.000000
   116  O2    c     0.655591    0.025317    0.304057    0.000000
   117  O2    c     0.940226    0.619137    0.635944    0.000000
   118  O2    c     0.608044    0.658059    0.463854    0.000000
   119  O2    c     0.319597    0.944701    0.801072    0.000000
   120  O2    c     0.022463    0.367436    0.130877    0.000000
   121  O2    c     0.311840    0.353393    0.355724    0.000000
   122  O2    c     0.025767    0.660906    0.024157    0.000000
   123  O2    c     0.603143    0.948030    0.692426    0.000000
   124  O2    c     0.654337    0.613702    0.860304    0.000000
   125  O2    c     0.943960    0.327952    0.529795    0.000000
   126  O2    c     0.358938    0.033061    0.196066    0.000000
   127  O3    c     0.745554    0.277861    0.002153    0.000000
   128  O2    c     0.682906    0.449607    0.340988    0.000000
   129  O2    c     0.513977    0.222908    0.676231    0.000000
   130  O2    c     0.215903    0.690702    0.509676    0.000000
   131  O2    c     0.287760    0.521924    0.838745    0.000000
   132  O2    c     0.450046    0.764955    0.173293    0.000000
   133  O2    c     0.284759    0.750395    0.318930    0.000000
   134  O2    c     0.449519    0.685404    0.985258    0.000000
   135  O3    c     0.219571    0.515777    0.658656    0.000000
   136  O2    c     0.686980    0.218929    0.821083    0.000000
   137  O2    c     0.517333    0.298871    0.486501    0.000000
   138  O2    c     0.750139    0.458380    0.150642    0.000000
   139  O3    c     0.767711    0.542922    0.017620    0.000000
   140  O2    c     0.450738    0.233985    0.357919    0.000000
   141  O2    c     0.732708    0.207439    0.691671    0.000000
   142  O2    c     0.199183    0.460245    0.527490    0.000000
   143  O2    c     0.518138    0.737818    0.858115    0.000000
   144  O2    c     0.230436    0.775047    0.191460    0.000000
   145  O2    c     0.516925    0.767066    0.301859    0.000000
   146  O2    c     0.230373    0.452397    0.965980    0.000000
   147  O3    c     0.198071    0.758430    0.642571    0.000000
   148  O2    c     0.455792    0.205402    0.804778    0.000000
   149  O2    c     0.736693    0.528507    0.468445    0.000000
   150  O2    c     0.766959    0.244941    0.133130    0.000000
   151  O2    c     0.215060    0.310803    0.891883    0.000000
   152  O2    c     0.660529    0.896217    0.229495    0.000000
   153  O2    c     0.083781    0.761461    0.565283    0.000000
   154  O2    c     0.751194    0.662118    0.392745    0.000000
   155  O2    c     0.307212    0.084319    0.730533    0.000000
   156  O2    c     0.886828    0.224849    0.059542    0.000000
   157  O2    c     0.306994    0.219467    0.430200    0.000000
   158  O2    c     0.882799    0.660754    0.094933    0.000000
   159  O2    c     0.755616    0.085185    0.764891    0.000000
   160  O2    c     0.660544    0.754867    0.932692    0.000000
   161  O2    c     0.078922    0.321558    0.601443    0.000000
   162  O2    c     0.215942    0.894151    0.267171    0.000000
   163  O2    c     0.569335    0.549259    0.988781    0.000000
   164  O2    c     0.427238    0.007900    0.324264    0.000000
   165  O2    c     0.965697    0.415512    0.656362    0.000000
   166  O2    c     0.392210    0.431359    0.483627    0.000000
   167  O2    c     0.546941    0.957802    0.818791    0.000000
   168  O2    c     0.004858    0.574705    0.148129    0.000000
   169  O2    c     0.540187    0.564447    0.335588    0.000000
   170  O2    c     0.999651    0.431163    0.004447    0.000000
   171  O2    c     0.391431    0.964864    0.673202    0.000000
   172  O2    c     0.428551    0.401244    0.839640    0.000000
   173  O2    c     0.961518    0.552987    0.512269    0.000000
   174  O2    c     0.574990    0.022479    0.176126    0.000000
   175  O2    c     0.568308    0.150295    0.251989    0.000000
   176  O2    c     0.826840    0.412657    0.583421    0.000000
   177  O2    c     0.571717    0.411148    0.915141    0.000000
   178  O2    c     0.396615    0.823418    0.744930    0.000000
   179  O2    c     0.139244    0.568670    0.076984    0.000000
   180  O2    c     0.398943    0.565891    0.407884    0.000000
   181  F     c     0.434519    0.889212    0.247917    0.000000
   182  F     c     0.118712    0.566941    0.590204    0.000000
   183  F     c     0.431072    0.537730    0.912420    0.000000
   184  F     c     0.535866    0.093188    0.747601    0.000000
   185  F     c     0.846671    0.431100    0.070123    0.000000
   186  F     c     0.532680    0.438560    0.411841    0.000000
   187  O2    s     0.912435    0.998375    0.999207    0.000000
   188  O2    s     0.983707    0.903671    0.329944    0.000000
   189  O2    s     0.049947    0.070039    0.657946    0.000000
   190  O2    s     0.056080    0.994390    0.495019    0.000000
   191  O3    s     0.977701    0.051132    0.832252    0.000000
   192  O2    s     0.911057    0.921278    0.164474    0.000000
   193  O2    s     0.333085    0.565296    0.325240    0.000000
   194  O3    s     0.397596    0.761902    0.661720    0.000000
   195  O2    s     0.214556    0.633838    0.993962    0.000000
   196  O2    s     0.637818    0.402719    0.832451    0.000000
   197  O2    s     0.572515    0.225392    0.170049    0.000000
   198  O2    s     0.750229    0.348079    0.499229    0.000000
   199  O3    s     0.566987    0.343810    0.997955    0.000000
   200  O2    s     0.750563    0.405458    0.666256    0.000000
   201  O2    s     0.634478    0.216034    0.334669    0.000000
   202  O2    s     0.393540    0.635724    0.490037    0.000000
   203  O2    s     0.216793    0.581267    0.160930    0.000000
   204  O2    s     0.336856    0.752549    0.828551    0.000000
   205  O2    s     0.110213    0.205864    0.964542    0.000000
   206  O2    s     0.765777    0.885123    0.301131    0.000000
   207  O2    s     0.066933    0.873215    0.633773    0.000000
   208  O2    s     0.861060    0.774939    0.464844    0.000000
   209  O3    s     0.210791    0.078530    0.803860    0.000000
   210  O2    s     0.887599    0.115448    0.132601    0.000000
   211  O2    s     0.201696    0.102830    0.358697    0.000000
   212  O2    s     0.899717    0.788949    0.026593    0.000000
   213  O2    s     0.852410    0.080496    0.691862    0.000000
   214  O2    s     0.763672    0.861365    0.860436    0.000000
   215  O2    s     0.078869    0.210343    0.528501    0.000000
   216  O2    s     0.105956    0.897133    0.195052    0.000000
   217  O2    s     0.909411    0.842828    0.246266    0.000000
   218  O2    s     0.128983    0.061924    0.577803    0.000000
   219  O2    s     0.912677    0.050770    0.914350    0.000000
   220  O3    s     0.043449    0.108158    0.742358    0.000000
   221  O2    s     0.841875    0.922121    0.081406    0.000000
   222  O2    s     0.057958    0.916370    0.413576    0.000000
   223  O2    s     0.898136    0.195807    0.975885    0.000000
   224  O2    s     0.777468    0.683991    0.310757    0.000000
   225  O2    s     0.273364    0.083886    0.647896    0.000000
   226  O2    s     0.074375    0.788864    0.482046    0.000000
   227  O3    s     0.195000    0.292943    0.809597    0.000000
   228  O2    s     0.688542    0.903478    0.146938    0.000000
   229  O2    s     0.189974    0.890017    0.349111    0.000000
   230  O2    s     0.690510    0.787858    0.014571    0.000000
   231  O2    s     0.066723    0.280766    0.685126    0.000000
   232  O2    s     0.781722    0.077582    0.847665    0.000000
   233  O2    s     0.278810    0.199279    0.512592    0.000000
   234  O2    s     0.892264    0.697838    0.178134    0.000000
   235  O2    s     0.309989    0.644446    0.244448    0.000000
   236  O3    s     0.345769    0.667453    0.573652    0.000000
   237  O2    s     0.309219    0.659107    0.911662    0.000000
   238  O2    s     0.660487    0.335539    0.749129    0.000000
   239  O3    s     0.619831    0.305207    0.086598    0.000000
   240  O2    s     0.657662    0.318485    0.415487    0.000000
   241  O2    s     0.362610    0.331791    0.963730    0.000000
   242  O2    s     0.645472    0.018851    0.301761    0.000000
   243  O2    s     0.946414    0.615893    0.634349    0.000000
   244  O2    s     0.604982    0.648145    0.461624    0.000000
   245  O2    s     0.329563    0.951325    0.798836    0.000000
   246  O2    s     0.016295    0.370527    0.128837    0.000000
   247  O2    s     0.321966    0.357049    0.358024    0.000000
   248  O2    s     0.019584    0.651474    0.025791    0.000000
   249  O2    s     0.600993    0.955146    0.694572    0.000000
   250  O2    s     0.644405    0.610323    0.862561    0.000000
   251  O2    s     0.950081    0.337183    0.531834    0.000000
   252  O2    s     0.361977    0.026184    0.198300    0.000000
   253  O3    s     0.756962    0.285084    0.005205    0.000000
   254  O2    s     0.675061    0.449097    0.343993    0.000000
   255  O2    s     0.515041    0.215916    0.679311    0.000000
   256  O2    s     0.209300    0.684172    0.512353    0.000000
   257  O2    s     0.295618    0.522837    0.842005    0.000000
   258  O2    s     0.449506    0.771496    0.176588    0.000000
   259  O2    s     0.292583    0.757725    0.315919    0.000000
   260  O2    s     0.448805    0.677663    0.982151    0.000000
   261  O3    s     0.208177    0.511488    0.655603    0.000000
   262  O2    s     0.679146    0.212199    0.817847    0.000000
   263  O2    s     0.517927    0.305969    0.483207    0.000000
   264  O2    s     0.756778    0.458406    0.147945    0.000000
   265  O3    s     0.777342    0.544972    0.021007    0.000000
   266  O2    s     0.453376    0.241908    0.360506    0.000000
   267  O2    s     0.724378    0.202207    0.694358    0.000000
   268  O2    s     0.194845    0.461862    0.529680    0.000000
   269  O2    s     0.515085    0.729478    0.860687    0.000000
   270  O2    s     0.238862    0.780232    0.194089    0.000000
   271  O2    s     0.514260    0.772338    0.299278    0.000000
   272  O2    s     0.239032    0.455776    0.963513    0.000000
   273  O3    s     0.188365    0.750885    0.639179    0.000000
   274  O2    s     0.458785    0.200309    0.802089    0.000000
   275  O2    s     0.728291    0.525239    0.465824    0.000000
   276  O2    s     0.771318    0.250843    0.130928    0.000000
   277  O2    s     0.224781    0.320643    0.892915    0.000000
   278  O2    s     0.650968    0.896000    0.230369    0.000000
   279  O2    s     0.082937    0.752929    0.565550    0.000000
   280  O2    s     0.741878    0.652510    0.393669    0.000000
   281  O2    s     0.316953    0.084142    0.731182    0.000000
   282  O2    s     0.886418    0.232453    0.060627    0.000000
   283  O2    s     0.316574    0.228850    0.429311    0.000000
   284  O2    s     0.883581    0.653011    0.094659    0.000000
   285  O2    s     0.745471    0.084603    0.764131    0.000000
   286  O2    s     0.650689    0.745516    0.931807    0.000000
   287  O2    s     0.079302    0.329422    0.600343    0.000000
   288  O2    s     0.225268    0.893886    0.266239    0.000000
   289  O2    s     0.565755    0.550350    0.985413    0.000000
   290  O2    s     0.426913    0.003597    0.320776    0.000000
   291  O2    s     0.968001    0.418232    0.653506    0.000000
   292  O2    s     0.397232    0.430977    0.480364    0.000000
   293  O2    s     0.546900    0.962985    0.815659    0.000000
   294  O2    s     0.001117    0.571018    0.145362    0.000000
   295  O2    s     0.540525    0.560471    0.339085    0.000000
   296  O2    s     0.997336    0.431676    0.007311    0.000000
   297  O2    s     0.395667    0.969605    0.676409    0.000000
   298  O2    s     0.428372    0.406056    0.842877    0.000000
   299  O2    s     0.965279    0.553055    0.515027    0.000000
   300  O2    s     0.570002    0.017046    0.179380    0.000000
   301  O2    s     0.562842    0.139370    0.251827    0.000000
   302  O2    s     0.836284    0.417661    0.583214    0.000000
   303  O2    s     0.566296    0.415803    0.914798    0.000000
   304  O2    s     0.402060    0.833738    0.745258    0.000000
   305  O2    s     0.129777    0.564154    0.077189    0.000000
   306  O2    s     0.404399    0.560424    0.408062    0.000000
   307  F     s     0.434145    0.888640    0.247881    0.000000
   308  F     s     0.130007    0.574102    0.592844    0.000000
   309  F     s     0.430239    0.538102    0.912355    0.000000
   310  F     s     0.536507    0.094431    0.747631    0.000000
   311  F     s     0.835588    0.427036    0.067530    0.000000
   312  F     s     0.533023    0.438360    0.411865    0.000000
--------------------------------------------------------------------------------

  Final Cartesian lattice vectors (Angstroms) :

       11.945580    0.002670   -0.008696
       -6.094941   10.411111    0.013466
       -0.430656   -0.298465   29.436222


  Final cell parameters and derivatives :

--------------------------------------------------------------------------------
       a           11.945583 Angstrom     dE/de1(xx)     0.000643 eV/strain
       b           12.063984 Angstrom     dE/de2(yy)    -0.000058 eV/strain
       c           29.440885 Angstrom     dE/de3(zz)     0.000514 eV/strain
       alpha       90.013896 Degrees      dE/de4(yz)    -0.000036 eV/strain
       beta        90.879978 Degrees      dE/de5(xz)     0.000223 eV/strain
       gamma      120.333060 Degrees      dE/de6(xy)     0.000019 eV/strain
--------------------------------------------------------------------------------

  Primitive cell volume =          3661.359387 Angs**3

  Density of cell =      1.747464 g/cm**3

  Non-primitive cell volume =          3661.359387 Angs**3


  Final internal derivatives :

--------------------------------------------------------------------------------
   No.  Atomic          a             b             c           Radius
        Label          (eV)          (eV)          (eV)        (eV/Angs)
--------------------------------------------------------------------------------
      1 Ge    c       0.000000      0.000000      0.000000      0.000000
      2 Si    c       0.000019      0.000000      0.000074      0.000000
      3 Si    c      -0.000007      0.000011     -0.000031      0.000000
      4 Si    c       0.000021      0.000046      0.000149      0.000000
      5 Si    c      -0.000010      0.000011     -0.000108      0.000000
      6 Si    c       0.000014     -0.000016      0.000292      0.000000
      7 Si    c      -0.000004     -0.000068     -0.000070      0.000000
      8 Si    c       0.000202     -0.000194     -0.000126      0.000000
      9 Ge    c       0.000047      0.000049     -0.000020      0.000000
     10 Si    c       0.000004     -0.000017     -0.000042      0.000000
     11 Si    c      -0.000009      0.000011     -0.000056      0.000000
     12 Si    c       0.000202     -0.000685      0.003791      0.000000
     13 Si    c      -0.001849      0.001392     -0.003846      0.000000
     14 Si    c      -0.000006      0.000059     -0.000132      0.000000
     15 Si    c       0.000014     -0.000037     -0.000122      0.000000
     16 Si    c      -0.000031      0.000034     -0.000045      0.000000
     17 Si    c      -0.000005     -0.000022     -0.000053      0.000000
     18 Si    c       0.000055      0.000009      0.000514      0.000000
     19 Si    c      -0.000026      0.000042      0.000043      0.000000
     20 Si    c       0.000071      0.000218     -0.000349      0.000000
     21 Si    c      -0.000005     -0.000028      0.000016      0.000000
     22 Si    c       0.000033      0.000000      0.000236      0.000000
     23 Si    c       0.000010     -0.000025      0.000161      0.000000
     24 Si    c       0.000061      0.000052      0.000117      0.000000
     25 Si    c      -0.000057      0.000049     -0.000115      0.000000
     26 Si    c       0.000066     -0.000019      0.000064      0.000000
     27 Si    c       0.000043      0.000009      0.000167      0.000000
     28 Si    c       0.000022      0.000005      0.000105      0.000000
     29 Si    c       0.000024     -0.000013      0.000097      0.000000
     30 Si    c       0.000206     -0.000344     -0.000408      0.000000
     31 Si    c       0.000021     -0.000029     -0.000109      0.000000
     32 Si    c       0.000132      0.000055      0.000755      0.000000
     33 Si    c      -0.000042      0.000001     -0.000016      0.000000
     34 Si    c       0.000072     -0.000161      0.000050      0.000000
     35 Si    c      -0.000014      0.000002     -0.000091      0.000000
     36 Si    c      -0.000016     -0.000010     -0.000127      0.000000
     37 Si    c      -0.000009      0.000094      0.000033      0.000000
     38 Si    c       0.000050     -0.000018     -0.000166      0.000000
     39 Si    c       0.000043     -0.000021     -0.000062      0.000000
     40 Si    c       0.000014      0.000018     -0.000085      0.000000
     41 Si    c       0.000028     -0.000016     -0.000037      0.000000
     42 Si    c       0.000036     -0.000164      0.000926      0.000000
     43 Si    c      -0.000003     -0.000015      0.000079      0.000000
     44 Si    c      -0.000024     -0.000290     -0.002024      0.000000
     45 Si    c      -0.000031      0.000004      0.000023      0.000000
     46 Si    c       0.000035      0.000001      0.000019      0.000000
     47 Si    c      -0.000033     -0.000001      0.000132      0.000000
     48 Si    c      -0.000028      0.000005      0.000057      0.000000
     49 Si    c       0.000249     -0.000289      0.000201      0.000000
     50 Si    c      -0.000005      0.000020     -0.000118      0.000000
     51 Si    c       0.000015     -0.000018     -0.000212      0.000000
     52 Si    c      -0.000045      0.000052     -0.000250      0.000000
     53 Ge    c      -0.000023      0.000008      0.000132      0.000000
     54 Si    c      -0.000049      0.000059      0.000015      0.000000
     55 Si    c      -0.000075      0.000026      0.000103      0.000000
     56 Si    c      -0.000235      0.000602     -0.000248      0.000000
     57 Si    c      -0.000008      0.000000      0.000001      0.000000
     58 Si    c       0.000078      0.000010      0.000278      0.000000
     59 Si    c      -0.000020     -0.000000      0.000159      0.000000
     60 Si    c      -0.000013      0.000003      0.000209      0.000000
     61 O2    c       0.000059     -0.000109      0.000201      0.000000
     62 O2    c       0.000056     -0.000048      0.000112      0.000000
     63 O2    c      -0.000019      0.000022      0.000067      0.000000
     64 O2    c      -0.000000     -0.000032     -0.000062      0.000000
     65 O3    c      -0.000042      0.000034      0.000001      0.000000
     66 O2    c      -0.000046      0.000042     -0.000101      0.000000
     67 O2    c      -0.000032      0.000089     -0.000179      0.000000
     68 O3    c      -0.000133      0.000020     -0.000142      0.000000
     69 O2    c      -0.000106      0.000170      0.000218      0.000000
     70 O2    c      -0.000034      0.000040      0.000104      0.000000
     71 O2    c      -0.000055     -0.000048      0.000237      0.000000
     72 O2    c      -0.000005      0.000011     -0.000010      0.000000
     73 O3    c       0.001458     -0.002909      0.002180      0.000000
     74 O2    c       0.000002     -0.000035      0.000083      0.000000
     75 O2    c       0.000004     -0.000040     -0.000095      0.000000
     76 O2    c      -0.000020     -0.000012      0.000075      0.000000
     77 O2    c       0.000011      0.000002      0.000006      0.000000
     78 O2    c       0.000005      0.000047     -0.000031      0.000000
     79 O2    c       0.000051     -0.000071      0.000154      0.000000
     80 O2    c       0.000001     -0.000006     -0.000054      0.000000
     81 O2    c      -0.000005      0.000084     -0.000022      0.000000
     82 O2    c       0.000023     -0.000007     -0.000019      0.000000
     83 O3    c      -0.000005      0.000009     -0.000001      0.000000
     84 O2    c       0.000034     -0.000096     -0.000013      0.000000
     85 O2    c       0.000006      0.000002      0.000026      0.000000
     86 O2    c       0.001081     -0.001035     -0.000095      0.000000
     87 O2    c       0.000026      0.000000      0.000007      0.000000
     88 O2    c      -0.000005     -0.000000      0.000013      0.000000
     89 O2    c       0.000010     -0.000001      0.000005      0.000000
     90 O2    c      -0.000008      0.000002      0.000008      0.000000
     91 O2    c       0.000015     -0.000011     -0.000190      0.000000
     92 O2    c      -0.000006     -0.000030      0.000232      0.000000
     93 O2    c      -0.000117     -0.000093     -0.001081      0.000000
     94 O3    c       0.000002      0.000002     -0.000014      0.000000
     95 O2    c      -0.000001      0.000044      0.000778      0.000000
     96 O2    c       0.000027     -0.000027      0.000057      0.000000
     97 O2    c      -0.000316      0.000316      0.000124      0.000000
     98 O2    c      -0.000001      0.000043     -0.000029      0.000000
     99 O2    c      -0.000037      0.000004     -0.000036      0.000000
    100 O2    c       0.000023     -0.000038      0.000069      0.000000
    101 O3    c      -0.000013     -0.000089     -0.000079      0.000000
    102 O2    c       0.000023      0.000008     -0.000046      0.000000
    103 O2    c       0.000013     -0.000018     -0.000002      0.000000
    104 O2    c      -0.000640     -0.000009     -0.000336      0.000000
    105 O2    c      -0.000004     -0.000014     -0.000000      0.000000
    106 O2    c       0.000026     -0.000032      0.000038      0.000000
    107 O2    c       0.000012     -0.000008      0.000006      0.000000
    108 O2    c       0.000007      0.000014      0.000031      0.000000
    109 O2    c      -0.000014      0.000079     -0.000180      0.000000
    110 O3    c      -0.000087     -0.000005     -0.000093      0.000000
    111 O2    c      -0.000033      0.000042      0.000086      0.000000
    112 O2    c      -0.000001     -0.000023      0.000036      0.000000
    113 O3    c      -0.001182      0.000267     -0.004428      0.000000
    114 O2    c      -0.000019      0.000014     -0.000052      0.000000
    115 O2    c      -0.000069      0.000018     -0.000068      0.000000
    116 O2    c       0.000001      0.000011      0.000001      0.000000
    117 O2    c      -0.000010      0.000001      0.000008      0.000000
    118 O2    c      -0.000011      0.000006      0.000008      0.000000
    119 O2    c      -0.000003      0.000018     -0.000012      0.000000
    120 O2    c       0.000097      0.000062      0.000169      0.000000
    121 O2    c      -0.000002     -0.000009      0.000002      0.000000
    122 O2    c      -0.000210      0.000247     -0.000055      0.000000
    123 O2    c      -0.000001      0.000014      0.000023      0.000000
    124 O2    c       0.000022     -0.000096      0.000008      0.000000
    125 O2    c       0.000017     -0.000001      0.000028      0.000000
    126 O2    c      -0.000011      0.000010     -0.000023      0.000000
    127 O3    c      -0.000369     -0.000022      0.000001      0.000000
    128 O2    c      -0.000004      0.000018      0.000012      0.000000
    129 O2    c      -0.000006     -0.000019      0.000019      0.000000
    130 O2    c      -0.000074      0.000033      0.000044      0.000000
    131 O2    c       0.000002      0.000042      0.000065      0.000000
    132 O2    c       0.000005     -0.000003     -0.000018      0.000000
    133 O2    c      -0.000014      0.000025      0.000002      0.000000
    134 O2    c      -0.000057      0.000017     -0.000048      0.000000
    135 O3    c      -0.000016     -0.000046      0.000062      0.000000
    136 O2    c      -0.000005     -0.000014     -0.000010      0.000000
    137 O2    c      -0.000015      0.000005     -0.000008      0.000000
    138 O2    c       0.000020      0.000105      0.000525      0.000000
    139 O3    c      -0.000044     -0.000534     -0.000766      0.000000
    140 O2    c      -0.000012      0.000011      0.000003      0.000000
    141 O2    c       0.000005     -0.000028      0.000039      0.000000
    142 O2    c      -0.000006     -0.000016      0.000005      0.000000
    143 O2    c      -0.000013      0.000021     -0.000029      0.000000
    144 O2    c      -0.000012      0.000025      0.000027      0.000000
    145 O2    c      -0.000003      0.000000      0.000015      0.000000
    146 O2    c       0.000027      0.000063     -0.000013      0.000000
    147 O3    c      -0.000045     -0.000027     -0.000186      0.000000
    148 O2    c      -0.000009     -0.000025     -0.000029      0.000000
    149 O2    c       0.000007     -0.000049      0.000012      0.000000
    150 O2    c      -0.000098      0.000012      0.000176      0.000000
    151 O2    c       0.000026     -0.000002      0.000210      0.000000
    152 O2    c      -0.000051      0.000020     -0.000052      0.000000
    153 O2    c       0.000029     -0.000053     -0.000180      0.000000
    154 O2    c      -0.000009     -0.000020     -0.000024      0.000000
    155 O2    c       0.000028     -0.000017      0.000036      0.000000
    156 O2    c       0.000002     -0.000093     -0.001252      0.000000
    157 O2    c       0.000008      0.000020      0.000021      0.000000
    158 O2    c      -0.000006      0.000178      0.001373      0.000000
    159 O2    c      -0.000020      0.000009     -0.000007      0.000000
    160 O2    c       0.000029      0.000009     -0.000050      0.000000
    161 O2    c      -0.000018      0.000037     -0.000025      0.000000
    162 O2    c       0.000042     -0.000008     -0.000045      0.000000
    163 O2    c      -0.000004     -0.000057     -0.000266      0.000000
    164 O2    c       0.000008      0.000002      0.000001      0.000000
    165 O2    c       0.000026     -0.000018     -0.000031      0.000000
    166 O2    c      -0.000006      0.000018      0.000015      0.000000
    167 O2    c       0.000037      0.000027      0.000008      0.000000
    168 O2    c      -0.000024      0.000018      0.000046      0.000000
    169 O2    c      -0.000002      0.000003     -0.000007      0.000000
    170 O2    c       0.000036     -0.000301     -0.000192      0.000000
    171 O2    c       0.000003      0.000012      0.000063      0.000000
    172 O2    c       0.000103     -0.000037     -0.000008      0.000000
    173 O2    c      -0.000008      0.000010     -0.000021      0.000000
    174 O2    c       0.000024     -0.000015     -0.000052      0.000000
    175 O2    c      -0.000015     -0.000034     -0.000106      0.000000
    176 O2    c       0.000033      0.000003      0.000015      0.000000
    177 O2    c      -0.000041      0.000024     -0.000239      0.000000
    178 O2    c      -0.000006      0.000038      0.000059      0.000000
    179 O2    c       0.000126      0.000002      0.000183      0.000000
    180 O2    c       0.000024     -0.000025      0.000014      0.000000
    181 F     c       0.000012     -0.000003      0.000042      0.000000
    182 F     c       0.000010      0.000011      0.000037      0.000000
    183 F     c       0.000017      0.000024     -0.000036      0.000000
    184 F     c       0.000001     -0.000002     -0.000014      0.000000
    185 F     c       0.000209     -0.000003      0.000791      0.000000
    186 F     c       0.000008      0.000006     -0.000007      0.000000
    187 O2    s      -0.000054      0.000258     -0.000268      0.000000
    188 O2    s      -0.000006     -0.000012     -0.000006      0.000000
    189 O2    s       0.000021     -0.000005     -0.000044      0.000000
    190 O2    s       0.000018     -0.000010     -0.000010      0.000000
    191 O3    s      -0.000023      0.000023      0.000028      0.000000
    192 O2    s       0.000021     -0.000028      0.000106      0.000000
    193 O2    s       0.000019     -0.000009      0.000030      0.000000
    194 O3    s       0.000052      0.000007      0.000052      0.000000
    195 O2    s       0.000056     -0.000092     -0.000225      0.000000
    196 O2    s       0.000021     -0.000018      0.000018      0.000000
    197 O2    s      -0.000113     -0.000126      0.000379      0.000000
    198 O2    s       0.000003      0.000012     -0.000027      0.000000
    199 O3    s      -0.000759      0.002273      0.000201      0.000000
    200 O2    s       0.000007     -0.000006     -0.000021      0.000000
    201 O2    s      -0.000013      0.000024      0.000037      0.000000
    202 O2    s      -0.000021      0.000009     -0.000008      0.000000
    203 O2    s       0.000038     -0.000052     -0.000053      0.000000
    204 O2    s      -0.000008      0.000004     -0.000051      0.000000
    205 O2    s       0.000190      0.000085     -0.000198      0.000000
    206 O2    s       0.000011     -0.000019      0.000046      0.000000
    207 O2    s       0.000038      0.000003     -0.000012      0.000000
    208 O2    s       0.000018     -0.000009     -0.000003      0.000000
    209 O3    s       0.000010      0.000006     -0.000079      0.000000
    210 O2    s       0.000037     -0.000067      0.000315      0.000000
    211 O2    s      -0.000009     -0.000012     -0.000029      0.000000
    212 O2    s       0.000040      0.000111     -0.000267      0.000000
    213 O2    s       0.000007      0.000003      0.000026      0.000000
    214 O2    s       0.000057     -0.000006     -0.000128      0.000000
    215 O2    s      -0.000003      0.000024      0.000045      0.000000
    216 O2    s       0.000006     -0.000020      0.000080      0.000000
    217 O2    s       0.000014     -0.000007      0.000131      0.000000
    218 O2    s       0.000009     -0.000016     -0.000005      0.000000
    219 O2    s       0.000004     -0.000032     -0.000002      0.000000
    220 O3    s      -0.000005      0.000021      0.000021      0.000000
    221 O2    s      -0.000055      0.000209      0.000611      0.000000
    222 O2    s      -0.000027      0.000039     -0.000039      0.000000
    223 O2    s      -0.000065      0.000125      0.000107      0.000000
    224 O2    s       0.000004      0.000019      0.000025      0.000000
    225 O2    s      -0.000016     -0.000032     -0.000044      0.000000
    226 O2    s      -0.000018      0.000011      0.000070      0.000000
    227 O3    s      -0.000015      0.000039      0.000022      0.000000
    228 O2    s      -0.000007     -0.000008      0.000126      0.000000
    229 O2    s      -0.000009      0.000036     -0.000026      0.000000
    230 O2    s      -0.000270      0.000031     -0.000385      0.000000
    231 O2    s      -0.000007     -0.000007     -0.000047      0.000000
    232 O2    s       0.000047     -0.000005     -0.000061      0.000000
    233 O2    s      -0.000009      0.000010     -0.000030      0.000000
    234 O2    s       0.000006     -0.000016      0.000051      0.000000
    235 O2    s       0.000003     -0.000052      0.000199      0.000000
    236 O3    s       0.000012     -0.000003     -0.000022      0.000000
    237 O2    s      -0.000001     -0.000034     -0.000139      0.000000
    238 O2    s       0.000000     -0.000006     -0.000045      0.000000
    239 O3    s       0.000620      0.000125      0.001502      0.000000
    240 O2    s      -0.000003      0.000001      0.000041      0.000000
    241 O2    s      -0.000217      0.000014      0.000110      0.000000
    242 O2    s      -0.000011      0.000001      0.000032      0.000000
    243 O2    s       0.000007     -0.000012      0.000001      0.000000
    244 O2    s      -0.000001     -0.000012     -0.000015      0.000000
    245 O2    s       0.000011     -0.000001     -0.000047      0.000000
    246 O2    s       0.000108      0.000018     -0.000028      0.000000
    247 O2    s       0.000017     -0.000005      0.000008      0.000000
    248 O2    s       0.000266     -0.000230      0.000201      0.000000
    249 O2    s      -0.000004     -0.000001      0.000006      0.000000
    250 O2    s      -0.000010     -0.000004     -0.000059      0.000000
    251 O2    s       0.000004      0.000009      0.000007      0.000000
    252 O2    s       0.000028     -0.000023      0.000019      0.000000
    253 O3    s       0.000317      0.000170      0.000024      0.000000
    254 O2    s      -0.000011      0.000004      0.000001      0.000000
    255 O2    s       0.000015     -0.000006      0.000020      0.000000
    256 O2    s       0.000007     -0.000020      0.000008      0.000000
    257 O2    s      -0.000011     -0.000011     -0.000051      0.000000
    258 O2    s       0.000001      0.000032      0.000002      0.000000
    259 O2    s       0.000013     -0.000019      0.000034      0.000000
    260 O2    s       0.000076     -0.000029      0.000112      0.000000
    261 O3    s      -0.000037      0.000047     -0.000160      0.000000
    262 O2    s       0.000008     -0.000007     -0.000070      0.000000
    263 O2    s       0.000013     -0.000001     -0.000013      0.000000
    264 O2    s      -0.000073      0.000271     -0.000999      0.000000
    265 O3    s       0.000028     -0.000541      0.002139      0.000000
    266 O2    s       0.000010      0.000003      0.000041      0.000000
    267 O2    s      -0.000004      0.000008     -0.000004      0.000000
    268 O2    s      -0.000008      0.000024      0.000036      0.000000
    269 O2    s       0.000007     -0.000024      0.000013      0.000000
    270 O2    s      -0.000024      0.000038     -0.000016      0.000000
    271 O2    s      -0.000003     -0.000010      0.000012      0.000000
    272 O2    s      -0.000011     -0.000039     -0.000067      0.000000
    273 O3    s       0.000034      0.000029      0.000190      0.000000
    274 O2    s      -0.000008      0.000003     -0.000029      0.000000
    275 O2    s       0.000014     -0.000011     -0.000007      0.000000
    276 O2    s       0.000034     -0.000102      0.000334      0.000000
    277 O2    s      -0.000021      0.000012      0.000047      0.000000
    278 O2    s       0.000024     -0.000002      0.000025      0.000000
    279 O2    s       0.000017     -0.000005     -0.000051      0.000000
    280 O2    s      -0.000001      0.000004     -0.000034      0.000000
    281 O2    s      -0.000015      0.000007      0.000007      0.000000
    282 O2    s      -0.000049      0.000212     -0.000161      0.000000
    283 O2    s       0.000010     -0.000016     -0.000014      0.000000
    284 O2    s       0.000010     -0.000241     -0.000181      0.000000
    285 O2    s      -0.000000      0.000004      0.000004      0.000000
    286 O2    s      -0.000047     -0.000022      0.000066      0.000000
    287 O2    s       0.000003     -0.000006      0.000008      0.000000
    288 O2    s      -0.000025     -0.000004      0.000054      0.000000
    289 O2    s       0.000135     -0.000265      0.000290      0.000000
    290 O2    s       0.000005      0.000004      0.000006      0.000000
    291 O2    s       0.000017     -0.000007     -0.000010      0.000000
    292 O2    s       0.000003      0.000004     -0.000018      0.000000
    293 O2    s      -0.000013      0.000007     -0.000085      0.000000
    294 O2    s      -0.000027      0.000011     -0.000168      0.000000
    295 O2    s       0.000020     -0.000006      0.000024      0.000000
    296 O2    s      -0.000256      0.000143      0.000310      0.000000
    297 O2    s      -0.000018     -0.000003     -0.000065      0.000000
    298 O2    s       0.000029     -0.000001      0.000013      0.000000
    299 O2    s       0.000044     -0.000005      0.000053      0.000000
    300 O2    s      -0.000028     -0.000018      0.000113      0.000000
    301 O2    s       0.000010      0.000013      0.000107      0.000000
    302 O2    s      -0.000004     -0.000009      0.000005      0.000000
    303 O2    s       0.000145      0.000050     -0.000547      0.000000
    304 O2    s       0.000014     -0.000018     -0.000007      0.000000
    305 O2    s      -0.000090     -0.000029     -0.000009      0.000000
    306 O2    s      -0.000009      0.000024      0.000037      0.000000
    307 F     s      -0.000015      0.000014     -0.000081      0.000000
    308 F     s       0.000032     -0.000027      0.000007      0.000000
    309 F     s      -0.000021     -0.000056      0.000014      0.000000
    310 F     s       0.000001      0.000002      0.000035      0.000000
    311 F     s       0.000303     -0.000005     -0.000210      0.000000
    312 F     s      -0.000009     -0.000011      0.000002      0.000000
--------------------------------------------------------------------------------
  Maximum abs         0.001849      0.002909      0.004428      0.000000
--------------------------------------------------------------------------------


  Time to end of optimisation =       7.4198 seconds


  Peak dynamic memory used =      19.13 MB 


  Timing analysis for GULP :

--------------------------------------------------------------------------------
  Task / Subroutine                                          Time (Seconds)
--------------------------------------------------------------------------------
  Calculation of reciprocal space energy and derivatives          0.2891
  Calculation of real space energy and derivatives                6.2119
  Calculation of three-body energy and derivatives                0.6910
  Calculation of matrix inversion                                 0.1919
--------------------------------------------------------------------------------
  Total CPU time                                                  7.4199
--------------------------------------------------------------------------------


  Dump file written as out.res                                                 
  CIF file written as out.cif                                                 


  Job Finished at 18:08.11  3rd December   2016                               

