********************************************************************************
*                       GENERAL UTILITY LATTICE PROGRAM                        *
*                                 Julian Gale                                  *
*                      Nanochemistry Research Institute                        *
*                           Department of Chemistry                            *
*                    Curtin University, Western Australia                      *
********************************************************************************
* Version = 4.2.0 * Last modified =  20th January 2014                         *
********************************************************************************
*  optimise     - perform optimisation run                                     *
*  conp         - constant pressure calculation                                *
*  qok          - running with non charge neutral cell is OK                   *
********************************************************************************

  Job Started  at 14:55.04  3rd December   2016                               

  Number of CPUs =     1


  Total number of configurations input =   1

********************************************************************************
*  Input for Configuration =   1                                               *
********************************************************************************

  Formula = Ge3Si57O120F6                                               

  Number of irreducible atoms/shells =     312


  Total number atoms/shells =     312

  Dimensionality = 3               :  Bulk   


  Charge on solid   =  -6.000000 =>neutralising background added


  Cartesian lattice vectors (Angstroms) :

       11.937709    0.000000    0.000000
       -6.001474   10.408091    0.000000
       -0.375703   -0.068567   29.459380

  Cell parameters (Angstroms/Degrees):

  a =      11.9377    alpha =  89.7505
  b =      12.0144    beta  =  90.7307
  c =      29.4619    gamma = 119.9684

  Initial cell volume =        3660.291390 Angs**3

  Temperature of configuration =  0.000     K 

  Pressure of configuration =         0.000 GPa 

  Fractional coordinates of asymmetric unit :

--------------------------------------------------------------------------------
   No.  Atomic       x           y          z         Charge      Occupancy
        Label      (Frac)      (Frac)     (Frac)        (e)         (Frac)  
--------------------------------------------------------------------------------
      1 Ge    c    0.699600    0.375700    0.033890     4.00000    1.000000    
      2 Si    c    0.629093 *  0.316851 *  0.365425 *   4.00000    1.000000    
      3 Si    c    0.676427 *  0.301074 *  0.699502 *   4.00000    1.000000    
      4 Si    c    0.292217 *  0.623183 *  0.531077 *   4.00000    1.000000    
      5 Si    c    0.375734 *  0.677005 *  0.862959 *   4.00000    1.000000    
      6 Si    c    0.318889 *  0.699159 *  0.196419 *   4.00000    1.000000    
      7 Si    c    0.378222 *  0.696801 *  0.296794 *   4.00000    1.000000    
      8 Si    c    0.319330 *  0.622215 *  0.963053 *   4.00000    1.000000    
      9 Si    c    0.298678 *  0.674772 *  0.631818 *   4.00000    1.000000    
     10 Si    c    0.618183 *  0.297510 *  0.799644 *   4.00000    1.000000    
     11 Ge    c    0.665745 *  0.391860 *  0.463083 *   4.00000    1.000000    
     12 Si    c    0.685025 *  0.315677 *  0.132292 *   4.00000    1.000000    
     13 Si    c    0.528341 *  0.419476 *  0.966790 *   4.00000    1.000000    
     14 Si    c    0.582924 *  0.105423 *  0.299746 *   4.00000    1.000000    
     15 Si    c    0.884634 *  0.468635 *  0.633716 *   4.00000    1.000000    
     16 Si    c    0.466551 *  0.585976 *  0.466673 *   4.00000    1.000000    
     17 Si    c    0.413974 *  0.887202 *  0.798009 *   4.00000    1.000000    
     18 Si    c    0.106495 *  0.528837 *  0.129398 *   4.00000    1.000000    
     19 Si    c    0.416982 *  0.526257 *  0.363537 *   4.00000    1.000000    
     20 Si    c    0.103167 *  0.579861 *  0.026040 *   4.00000    1.000000    
     21 Si    c    0.467756 *  0.887147 *  0.696549 *   4.00000    1.000000    
     22 Si    c    0.581087 *  0.470433 *  0.864679 *   4.00000    1.000000    
     23 Si    c    0.877586 *  0.421718 *  0.530868 *   4.00000    1.000000    
     24 Si    c    0.525456 *  0.106715 *  0.198658 *   4.00000    1.000000    
     25 Si    c    0.299229 *  0.400116 *  0.849312 *   4.00000    1.000000    
     26 Si    c    0.598016 *  0.900390 *  0.182372 *   4.00000    1.000000    
     27 Si    c    0.091642 *  0.703074 *  0.518611 *   4.00000    1.000000    
     28 Si    c    0.704260 *  0.598720 *  0.351873 *   4.00000    1.000000    
     29 Si    c    0.399883 *  0.098634 *  0.682016 *   4.00000    1.000000    
     30 Si    c    0.889065 *  0.293254 *  0.011454 *   4.00000    1.000000    
     31 Si    c    0.392808 *  0.300656 *  0.484574 *   4.00000    1.000000    
     32 Si    c    0.890955 *  0.599205 *  0.142474 *   4.00000    1.000000    
     33 Si    c    0.694891 *  0.095670 *  0.814371 *   4.00000    1.000000    
     34 Si    c    0.597822 *  0.699763 *  0.979092 *   4.00000    1.000000    
     35 Si    c    0.097030 *  0.398841 *  0.646258 *   4.00000    1.000000    
     36 Si    c    0.302131 *  0.897346 *  0.313317 *   4.00000    1.000000    
     37 Si    c    0.248595 *  0.343229 *  0.949556 *   4.00000    1.000000    
     38 Si    c    0.659585 *  0.904898 *  0.283074 *   4.00000    1.000000    
     39 Si    c    0.088314 *  0.745920 *  0.619967 *   4.00000    1.000000    
     40 Si    c    0.753071 *  0.671297 *  0.454038 *   4.00000    1.000000    
     41 Si    c    0.336987 *  0.088523 *  0.781986 *   4.00000    1.000000    
     42 Si    c    0.901249 *  0.247704 *  0.114499 *   4.00000    1.000000    
     43 Si    c    0.342605 *  0.247081 *  0.381250 *   4.00000    1.000000    
     44 Si    c    0.898079 *  0.659056 *  0.039916 *   4.00000    1.000000    
     45 Si    c    0.745225 *  0.090793 *  0.713923 *   4.00000    1.000000    
     46 Si    c    0.657468 *  0.748605 *  0.878517 *   4.00000    1.000000    
     47 Si    c    0.082045 *  0.345255 *  0.545287 *   4.00000    1.000000    
     48 Si    c    0.246269 *  0.906121 *  0.212778 *   4.00000    1.000000    
     49 Si    c    0.971979 *  0.121771 *  0.964138 *   4.00000    1.000000    
     50 Si    c    0.879082 *  0.843872 *  0.298407 *   4.00000    1.000000    
     51 Ge    c    0.145275 *  0.026665 *  0.632192 *   4.00000    1.000000    
     52 Si    c    0.029430 *  0.887455 *  0.464789 *   4.00000    1.000000    
     53 Si    c    0.119686 *  0.151026 *  0.798897 *   4.00000    1.000000    
     54 Si    c    0.845464 *  0.971056 *  0.131433 *   4.00000    1.000000    
     55 Si    c    0.124909 *  0.967877 *  0.363466 *   4.00000    1.000000    
     56 Si    c    0.847624 *  0.882506 *  0.030019 *   4.00000    1.000000    
     57 Si    c    0.024165 *  0.152211 *  0.698078 *   4.00000    1.000000    
     58 Si    c    0.877154 *  0.026195 *  0.863758 *   4.00000    1.000000    
     59 Si    c    0.137580 *  0.126091 *  0.530606 *   4.00000    1.000000    
     60 Si    c    0.965825 *  0.846216 *  0.196269 *   4.00000    1.000000    
     61 O2    c    0.929353 *  0.006924 *  0.999624 *   0.87073    1.000000    
     62 O2    c    0.005558 *  0.929056 *  0.328979 *   0.87073    1.000000    
     63 O3    c    0.057267 *  0.066400 *  0.666879 *   1.33043    1.000000    
     64 O2    c    0.075390 *  0.016693 *  0.492358 *   0.87073    1.000000    
     65 O2    c    0.998922 *  0.069636 *  0.831469 *   0.87073    1.000000    
     66 O2    c    0.927130 *  0.932677 *  0.165486 *   0.87073    1.000000    
     67 O2    c    0.342162 *  0.573311 *  0.329145 *   0.87073    1.000000    
     68 O2    c    0.423282 *  0.762212 *  0.664354 *   0.87073    1.000000    
     69 O2    c    0.230165 *  0.656897 *  0.995119 *   0.87073    1.000000    
     70 O2    c    0.655924 *  0.418801 *  0.832957 *   0.87073    1.000000    
     71 O2    c    0.574917 *  0.236210 *  0.169532 *   0.87073    1.000000    
     72 O3    c    0.756262 *  0.347995 *  0.499135 *   1.33043    1.000000    
     73 O3    c    0.566071 *  0.337741 *  0.998989 *   1.33043    1.000000    
     74 O2    c    0.762034 *  0.423035 *  0.666991 *   0.87073    1.000000    
     75 O2    c    0.661120 *  0.233466 *  0.330176 *   0.87073    1.000000    
     76 O2    c    0.413227 *  0.660755 *  0.497048 *   0.87073    1.000000    
     77 O2    c    0.231843 *  0.578717 *  0.162538 *   0.87073    1.000000    
     78 O2    c    0.337116 *  0.761559 *  0.829977 *   0.87073    1.000000    
     79 O2    c    0.125526 *  0.215354 *  0.969975 *   0.87073    1.000000    
     80 O2    c    0.786852 *  0.905593 *  0.303275 *   0.87073    1.000000    
     81 O3    c    0.084690 *  0.865499 *  0.641775 *   1.33043    1.000000    
     82 O2    c    0.874287 *  0.808805 *  0.469415 *   0.87073    1.000000    
     83 O2    c    0.210982 *  0.087631 *  0.802468 *   0.87073    1.000000    
     84 O2    c    0.905205 *  0.124813 *  0.135744 *   0.87073    1.000000    
     85 O2    c    0.218236 *  0.121750 *  0.359613 *   0.87073    1.000000    
     86 O2    c    0.915451 *  0.796710 *  0.024124 *   0.87073    1.000000    
     87 O2    c    0.870249 *  0.092427 *  0.693120 *   0.87073    1.000000    
     88 O2    c    0.784626 *  0.872734 *  0.858177 *   0.87073    1.000000    
     89 O2    c    0.074533 *  0.216671 *  0.524264 *   0.87073    1.000000    
     90 O2    c    0.120395 *  0.908107 *  0.192557 *   0.87073    1.000000    
     91 O2    c    0.923637 *  0.849368 *  0.247213 *   0.87073    1.000000    
     92 O3    c    0.111361 *  0.057727 *  0.578288 *   1.33043    1.000000    
     93 O2    c    0.932672 *  0.061560 *  0.914464 *   0.87073    1.000000    
     94 O2    c    0.064602 *  0.140759 *  0.748869 *   0.87073    1.000000    
     95 O2    c    0.858621 *  0.930105 *  0.081502 *   0.87073    1.000000    
     96 O2    c    0.069778 *  0.925434 *  0.413034 *   0.87073    1.000000    
     97 O2    c    0.900857 *  0.202561 *  0.973790 *   0.87073    1.000000    
     98 O2    c    0.799638 *  0.694717 *  0.313136 *   0.87073    1.000000    
     99 O3    c    0.309087 *  0.104806 *  0.642216 *   1.33043    1.000000    
    100 O2    c    0.093205 *  0.803198 *  0.480885 *   0.87073    1.000000    
    101 O2    c    0.201656 *  0.301851 *  0.811020 *   0.87073    1.000000    
    102 O2    c    0.693750 *  0.900341 *  0.143790 *   0.87073    1.000000    
    103 O2    c    0.205965 *  0.897108 *  0.351756 *   0.87073    1.000000    
    104 O2    c    0.695650 *  0.800186 *  0.017371 *   0.87073    1.000000    
    105 O2    c    0.099719 *  0.302383 *  0.684381 *   0.87073    1.000000    
    106 O2    c    0.794195 *  0.096096 *  0.852852 *   0.87073    1.000000    
    107 O2    c    0.291075 *  0.213738 *  0.522916 *   0.87073    1.000000    
    108 O2    c    0.895548 *  0.697582 *  0.180986 *   0.87073    1.000000    
    109 O2    c    0.319073 *  0.639434 *  0.246389 *   0.87073    1.000000    
    110 O2    c    0.355687 *  0.677495 *  0.581265 *   0.87073    1.000000    
    111 O2    c    0.317010 *  0.678398 *  0.912751 *   0.87073    1.000000    
    112 O2    c    0.677294 *  0.357018 *  0.749963 *   0.87073    1.000000    
    113 O3    c    0.613216 *  0.303189 *  0.085235 *   1.33043    1.000000    
    114 O3    c    0.686425 *  0.314321 *  0.413626 *   1.33043    1.000000    
    115 O2    c    0.371049 *  0.333996 *  0.967520 *   0.87073    1.000000    
    116 O2    c    0.669441 *  0.035396 *  0.302629 *   0.87073    1.000000    
    117 O2    c    0.956347 *  0.623487 *  0.637453 *   0.87073    1.000000    
    118 O2    c    0.622777 *  0.674641 *  0.467916 *   0.87073    1.000000    
    119 O2    c    0.326921 *  0.956501 *  0.800500 *   0.87073    1.000000    
    120 O2    c    0.033708 *  0.373490 *  0.131511 *   0.87073    1.000000    
    121 O2    c    0.335497 *  0.370751 *  0.362484 *   0.87073    1.000000    
    122 O2    c    0.031862 *  0.664206 *  0.024801 *   0.87073    1.000000    
    123 O2    c    0.624391 *  0.958304 *  0.694921 *   0.87073    1.000000    
    124 O2    c    0.666791 *  0.626082 *  0.860638 *   0.87073    1.000000    
    125 O2    c    0.949921 *  0.336996 *  0.528305 *   0.87073    1.000000    
    126 O2    c    0.368818 *  0.037563 *  0.194894 *   0.87073    1.000000    
    127 O3    c    0.754242 *  0.284016 *  0.002524 *   1.33043    1.000000    
    128 O2    c    0.701472 *  0.464066 *  0.345040 *   0.87073    1.000000    
    129 O2    c    0.533398 *  0.233404 *  0.676421 *   0.87073    1.000000    
    130 O2    c    0.225254 *  0.701417 *  0.509903 *   0.87073    1.000000    
    131 O2    c    0.301083 *  0.534267 *  0.840264 *   0.87073    1.000000    
    132 O2    c    0.462175 *  0.767660 *  0.174366 *   0.87073    1.000000    
    133 O2    c    0.303638 *  0.763871 *  0.319992 *   0.87073    1.000000    
    134 O2    c    0.463041 *  0.700305 *  0.986103 *   0.87073    1.000000    
    135 O2    c    0.232182 *  0.532125 *  0.654261 *   0.87073    1.000000    
    136 O2    c    0.692418 *  0.227871 *  0.822267 *   0.87073    1.000000    
    137 O3    c    0.520481 *  0.296861 *  0.494526 *   1.33043    1.000000    
    138 O2    c    0.759863 *  0.464371 *  0.151067 *   0.87073    1.000000    
    139 O3    c    0.772309 *  0.545689 *  0.018482 *   1.33043    1.000000    
    140 O2    c    0.471285 *  0.251329 *  0.363328 *   0.87073    1.000000    
    141 O2    c    0.748965 *  0.218401 *  0.694926 *   0.87073    1.000000    
    142 O2    c    0.209978 *  0.467941 *  0.525011 *   0.87073    1.000000    
    143 O2    c    0.532352 *  0.751330 *  0.858608 *   0.87073    1.000000    
    144 O2    c    0.243042 *  0.779518 *  0.192752 *   0.87073    1.000000    
    145 O2    c    0.534852 *  0.776614 *  0.301661 *   0.87073    1.000000    
    146 O2    c    0.244676 *  0.467008 *  0.969066 *   0.87073    1.000000    
    147 O2    c    0.217581 *  0.748829 *  0.638328 *   0.87073    1.000000    
    148 O2    c    0.461574 *  0.215549 *  0.802072 *   0.87073    1.000000    
    149 O3    c    0.764548 *  0.560112 *  0.477782 *   1.33043    1.000000    
    150 O2    c    0.778328 *  0.251847 *  0.134144 *   0.87073    1.000000    
    151 O2    c    0.226189 *  0.326888 *  0.895253 *   0.87073    1.000000    
    152 O2    c    0.674805 *  0.904722 *  0.228667 *   0.87073    1.000000    
    153 O2    c    0.091215 *  0.772225 *  0.565635 *   0.87073    1.000000    
    154 O2    c    0.768953 *  0.670429 *  0.398908 *   0.87073    1.000000    
    155 O2    c    0.318434 *  0.089698 *  0.727317 *   0.87073    1.000000    
    156 O2    c    0.897212 *  0.231711 *  0.060303 *   0.87073    1.000000    
    157 O2    c    0.326880 *  0.235191 *  0.435478 *   0.87073    1.000000    
    158 O2    c    0.891219 *  0.666160 *  0.095317 *   0.87073    1.000000    
    159 O2    c    0.765222 *  0.091956 *  0.768308 *   0.87073    1.000000    
    160 O2    c    0.674290 *  0.768179 *  0.932972 *   0.87073    1.000000    
    161 O2    c    0.092320 *  0.326221 *  0.599407 *   0.87073    1.000000    
    162 O2    c    0.230003 *  0.903107 *  0.267160 *   0.87073    1.000000    
    163 O2    c    0.581211 *  0.560961 *  0.989429 *   0.87073    1.000000    
    164 O2    c    0.442273 *  0.021550 *  0.322897 *   0.87073    1.000000    
    165 O2    c    0.970411 *  0.410481 *  0.655194 *   0.87073    1.000000    
    166 O2    c    0.416801 *  0.446180 *  0.488469 *   0.87073    1.000000    
    167 O2    c    0.555142 *  0.970513 *  0.822115 *   0.87073    1.000000    
    168 O2    c    0.015028 *  0.580533 *  0.148723 *   0.87073    1.000000    
    169 O2    c    0.560925 *  0.577990 *  0.344759 *   0.87073    1.000000    
    170 O2    c    0.011611 *  0.437858 *  0.005578 *   0.87073    1.000000    
    171 O2    c    0.412184 *  0.972600 *  0.672977 *   0.87073    1.000000    
    172 O2    c    0.438423 *  0.412237 *  0.841892 *   0.87073    1.000000    
    173 O2    c    0.966551 *  0.565193 *  0.509651 *   0.87073    1.000000    
    174 O2    c    0.583098 *  0.025263 *  0.174243 *   0.87073    1.000000    
    175 O2    c    0.580224 *  0.157229 *  0.249307 *   0.87073    1.000000    
    176 O2    c    0.830383 *  0.420732 *  0.582788 *   0.87073    1.000000    
    177 O2    c    0.583479 *  0.423156 *  0.916016 *   0.87073    1.000000    
    178 O2    c    0.413929 *  0.834716 *  0.747201 *   0.87073    1.000000    
    179 O2    c    0.150519 *  0.575942 *  0.077978 *   0.87073    1.000000    
    180 O2    c    0.417155 *  0.577185 *  0.414256 *   0.87073    1.000000    
    181 F     c    0.448875 *  0.896529 *  0.247957 *   0.56000    1.000000    
    182 F     c    0.100489 *  0.552419 *  0.582522 *   0.56000    1.000000    
    183 F     c    0.445975 *  0.552667 *  0.914221 *   0.56000    1.000000    
    184 F     c    0.543888 *  0.096452 *  0.748014 *   0.56000    1.000000    
    185 F     c    0.850996 *  0.433392 *  0.070422 *   0.56000    1.000000    
    186 F     c    0.573641 *  0.442037 *  0.424834 *   0.56000    1.000000    
    187 O2    s    0.924811 *  0.005668 *  0.999098 *  -2.87073    1.000000    
    188 O2    s    0.004570 *  0.923837 *  0.329355 *  -2.87073    1.000000    
    189 O3    s    0.061432 *  0.072270 *  0.667220 *  -3.33043    1.000000    
    190 O2    s    0.076985 *  0.013838 *  0.493404 *  -2.87073    1.000000    
    191 O2    s    0.998656 *  0.073771 *  0.831477 *  -2.87073    1.000000    
    192 O2    s    0.922501 *  0.927309 *  0.165179 *  -2.87073    1.000000    
    193 O2    s    0.353584 *  0.580820 *  0.329462 *  -2.87073    1.000000    
    194 O2    s    0.415188 *  0.766101 *  0.664333 *  -2.87073    1.000000    
    195 O2    s    0.225630 *  0.645341 *  0.995192 *  -2.87073    1.000000    
    196 O2    s    0.644368 *  0.411646 *  0.832782 *  -2.87073    1.000000    
    197 O2    s    0.581091 *  0.230593 *  0.168773 *  -2.87073    1.000000    
    198 O3    s    0.763077 *  0.359295 *  0.500011 *  -3.33043    1.000000    
    199 O3    s    0.572315 *  0.349243 *  0.998273 *  -3.33043    1.000000    
    200 O2    s    0.765743 *  0.415080 *  0.666958 *  -2.87073    1.000000    
    201 O2    s    0.649491 *  0.228417 *  0.330569 *  -2.87073    1.000000    
    202 O2    s    0.406942 *  0.649137 *  0.497191 *  -2.87073    1.000000    
    203 O2    s    0.227566 *  0.585665 *  0.162520 *  -2.87073    1.000000    
    204 O2    s    0.348963 *  0.765805 *  0.830080 *  -2.87073    1.000000    
    205 O2    s    0.121521 *  0.218349 *  0.967272 *  -2.87073    1.000000    
    206 O2    s    0.783414 *  0.898917 *  0.300671 *  -2.87073    1.000000    
    207 O3    s    0.090090 *  0.866851 *  0.638806 *  -3.33043    1.000000    
    208 O2    s    0.878236 *  0.802960 *  0.467346 *  -2.87073    1.000000    
    209 O2    s    0.214276 *  0.094469 *  0.799993 *  -2.87073    1.000000    
    210 O2    s    0.898535 *  0.121395 *  0.133126 *  -2.87073    1.000000    
    211 O2    s    0.221324 *  0.118567 *  0.362241 *  -2.87073    1.000000    
    212 O2    s    0.906368 *  0.791960 *  0.026346 *  -2.87073    1.000000    
    213 O2    s    0.873474 *  0.098733 *  0.695863 *  -2.87073    1.000000    
    214 O2    s    0.781362 *  0.876243 *  0.860829 *  -2.87073    1.000000    
    215 O2    s    0.082034 *  0.220060 *  0.527062 *  -2.87073    1.000000    
    216 O2    s    0.117009 *  0.901278 *  0.195043 *  -2.87073    1.000000    
    217 O2    s    0.923364 *  0.848394 *  0.247241 *  -2.87073    1.000000    
    218 O3    s    0.117063 *  0.062492 *  0.577674 *  -3.33043    1.000000    
    219 O2    s    0.930908 *  0.064435 *  0.914422 *  -2.87073    1.000000    
    220 O2    s    0.066405 *  0.143262 *  0.748912 *  -2.87073    1.000000    
    221 O2    s    0.855876 *  0.929628 *  0.081629 *  -2.87073    1.000000    
    222 O2    s    0.071745 *  0.926185 *  0.412991 *  -2.87073    1.000000    
    223 O2    s    0.907404 *  0.203327 *  0.976715 *  -2.87073    1.000000    
    224 O2    s    0.798283 *  0.700691 *  0.315549 *  -2.87073    1.000000    
    225 O3    s    0.304123 *  0.097786 *  0.645130 *  -3.33043    1.000000    
    226 O2    s    0.086153 *  0.802157 *  0.482973 *  -2.87073    1.000000    
    227 O2    s    0.202981 *  0.295877 *  0.813697 *  -2.87073    1.000000    
    228 O2    s    0.699832 *  0.907776 *  0.146477 *  -2.87073    1.000000    
    229 O2    s    0.207361 *  0.904564 *  0.349008 *  -2.87073    1.000000    
    230 O2    s    0.702001 *  0.798900 *  0.014891 *  -2.87073    1.000000    
    231 O2    s    0.091505 *  0.296494 *  0.681888 *  -2.87073    1.000000    
    232 O2    s    0.792882 *  0.088692 *  0.850110 *  -2.87073    1.000000    
    233 O2    s    0.285522 *  0.213657 *  0.519688 *  -2.87073    1.000000    
    234 O2    s    0.902581 *  0.703328 *  0.178642 *  -2.87073    1.000000    
    235 O2    s    0.324984 *  0.651192 *  0.246429 *  -2.87073    1.000000    
    236 O2    s    0.343601 *  0.671719 *  0.581235 *  -2.87073    1.000000    
    237 O2    s    0.323110 *  0.672505 *  0.912908 *  -2.87073    1.000000    
    238 O2    s    0.671212 *  0.345308 *  0.749873 *  -2.87073    1.000000    
    239 O3    s    0.626437 *  0.309332 *  0.086648 *  -3.33043    1.000000    
    240 O3    s    0.678941 *  0.319572 *  0.411597 *  -3.33043    1.000000    
    241 O2    s    0.373427 *  0.343751 *  0.965427 *  -2.87073    1.000000    
    242 O2    s    0.659500 *  0.028865 *  0.300275 *  -2.87073    1.000000    
    243 O2    s    0.962810 *  0.620111 *  0.635182 *  -2.87073    1.000000    
    244 O2    s    0.619607 *  0.665085 *  0.466376 *  -2.87073    1.000000    
    245 O2    s    0.336933 *  0.963163 *  0.798296 *  -2.87073    1.000000    
    246 O2    s    0.027629 *  0.376695 *  0.129539 *  -2.87073    1.000000    
    247 O2    s    0.344708 *  0.374256 *  0.364521 *  -2.87073    1.000000    
    248 O2    s    0.026004 *  0.654764 *  0.026451 *  -2.87073    1.000000    
    249 O2    s    0.620846 *  0.964890 *  0.697108 *  -2.87073    1.000000    
    250 O2    s    0.657029 *  0.622940 *  0.862925 *  -2.87073    1.000000    
    251 O2    s    0.957343 *  0.346448 *  0.530463 *  -2.87073    1.000000    
    252 O2    s    0.371950 *  0.030711 *  0.197188 *  -2.87073    1.000000    
    253 O3    s    0.764995 *  0.291075 *  0.005629 *  -3.33043    1.000000    
    254 O2    s    0.694829 *  0.464255 *  0.347739 *  -2.87073    1.000000    
    255 O2    s    0.534209 *  0.226207 *  0.679474 *  -2.87073    1.000000    
    256 O2    s    0.218505 *  0.693568 *  0.512995 *  -2.87073    1.000000    
    257 O2    s    0.308522 *  0.534822 *  0.843567 *  -2.87073    1.000000    
    258 O2    s    0.461484 *  0.774352 *  0.177506 *  -2.87073    1.000000    
    259 O2    s    0.311127 *  0.770848 *  0.316879 *  -2.87073    1.000000    
    260 O2    s    0.462169 *  0.692303 *  0.983008 *  -2.87073    1.000000    
    261 O2    s    0.224953 *  0.532879 *  0.651089 *  -2.87073    1.000000    
    262 O2    s    0.685084 *  0.221129 *  0.819102 *  -2.87073    1.000000    
    263 O3    s    0.516337 *  0.303629 *  0.491279 *  -3.33043    1.000000    
    264 O2    s    0.766450 *  0.464177 *  0.148294 *  -2.87073    1.000000    
    265 O3    s    0.781894 *  0.547804 *  0.021745 *  -3.33043    1.000000    
    266 O2    s    0.472837 *  0.257431 *  0.365492 *  -2.87073    1.000000    
    267 O2    s    0.740727 *  0.213167 *  0.697471 *  -2.87073    1.000000    
    268 O2    s    0.204992 *  0.471114 *  0.527739 *  -2.87073    1.000000    
    269 O2    s    0.529646 *  0.743223 *  0.861193 *  -2.87073    1.000000    
    270 O2    s    0.251364 *  0.784695 *  0.195262 *  -2.87073    1.000000    
    271 O2    s    0.531861 *  0.782061 *  0.299187 *  -2.87073    1.000000    
    272 O2    s    0.252839 *  0.469956 *  0.966417 *  -2.87073    1.000000    
    273 O2    s    0.212030 *  0.740677 *  0.635685 *  -2.87073    1.000000    
    274 O2    s    0.464625 *  0.210398 *  0.799666 *  -2.87073    1.000000    
    275 O3    s    0.756676 *  0.561274 *  0.474270 *  -3.33043    1.000000    
    276 O2    s    0.782534 *  0.257826 *  0.131810 *  -2.87073    1.000000    
    277 O2    s    0.236171 *  0.336294 *  0.896201 *  -2.87073    1.000000    
    278 O2    s    0.665135 *  0.904278 *  0.229602 *  -2.87073    1.000000    
    279 O2    s    0.091038 *  0.762458 *  0.566255 *  -2.87073    1.000000    
    280 O2    s    0.760301 *  0.662605 *  0.399194 *  -2.87073    1.000000    
    281 O2    s    0.328382 *  0.090407 *  0.728394 *  -2.87073    1.000000    
    282 O2    s    0.896819 *  0.239464 *  0.061412 *  -2.87073    1.000000    
    283 O2    s    0.335009 *  0.242861 *  0.434406 *  -2.87073    1.000000    
    284 O2    s    0.891773 *  0.657981 *  0.095115 *  -2.87073    1.000000    
    285 O2    s    0.755695 *  0.092212 *  0.767407 *  -2.87073    1.000000    
    286 O2    s    0.664558 *  0.759004 *  0.932042 *  -2.87073    1.000000    
    287 O2    s    0.091825 *  0.335711 *  0.598655 *  -2.87073    1.000000    
    288 O2    s    0.239271 *  0.902814 *  0.266190 *  -2.87073    1.000000    
    289 O2    s    0.577405 *  0.561840 *  0.985996 *  -2.87073    1.000000    
    290 O2    s    0.441910 *  0.016810 *  0.319457 *  -2.87073    1.000000    
    291 O2    s    0.975308 *  0.415461 *  0.651973 *  -2.87073    1.000000    
    292 O2    s    0.419952 *  0.446514 *  0.485686 *  -2.87073    1.000000    
    293 O2    s    0.555568 *  0.975558 *  0.818770 *  -2.87073    1.000000    
    294 O2    s    0.011482 *  0.576882 *  0.145988 *  -2.87073    1.000000    
    295 O2    s    0.560858 *  0.574563 *  0.347533 *  -2.87073    1.000000    
    296 O2    s    0.008770 *  0.438395 *  0.008396 *  -2.87073    1.000000    
    297 O2    s    0.416794 *  0.977310 *  0.676388 *  -2.87073    1.000000    
    298 O2    s    0.438381 *  0.417206 *  0.845095 *  -2.87073    1.000000    
    299 O2    s    0.971774 *  0.566119 *  0.512788 *  -2.87073    1.000000    
    300 O2    s    0.578555 *  0.020129 *  0.177637 *  -2.87073    1.000000    
    301 O2    s    0.574584 *  0.146139 *  0.249295 *  -2.87073    1.000000    
    302 O2    s    0.840900 *  0.425949 *  0.583013 *  -2.87073    1.000000    
    303 O2    s    0.577706 *  0.427841 *  0.915698 *  -2.87073    1.000000    
    304 O2    s    0.419481 *  0.845570 *  0.747228 *  -2.87073    1.000000    
    305 O2    s    0.141091 *  0.571312 *  0.078246 *  -2.87073    1.000000    
    306 O2    s    0.422111 *  0.572697 *  0.414190 *  -2.87073    1.000000    
    307 F     s    0.448574 *  0.895925 *  0.247967 *  -1.56000    1.000000    
    308 F     s    0.101787 *  0.552976 *  0.582575 *  -1.56000    1.000000    
    309 F     s    0.445369 *  0.553220 *  0.914216 *  -1.56000    1.000000    
    310 F     s    0.543923 *  0.096835 *  0.747970 *  -1.56000    1.000000    
    311 F     s    0.840972 *  0.429544 *  0.068235 *  -1.56000    1.000000    
    312 F     s    0.580485 *  0.438477 *  0.427488 *  -1.56000    1.000000    
--------------------------------------------------------------------------------



********************************************************************************
*  General input information                                                   *
********************************************************************************

  Species output for all configurations : 

--------------------------------------------------------------------------------
  Species    Type    Atomic    Atomic    Charge       Radii (Angs)     Library
                     Number     Mass       (e)     Cova   Ionic  VDW   Symbol
--------------------------------------------------------------------------------
    Si       Core       14      28.09   4.000000   1.200  0.000  2.100          
    O1       Core        8      16.00   1.733957   0.730  0.000  1.360          
    O1       Shell       8       0.00  -3.733957   0.730  0.000  1.360          
    O2       Core        8      16.00   0.870733   0.730  0.000  1.360          
    O2       Shell       8       0.00  -2.870733   0.730  0.000  1.360          
    O3       Core        8      16.00   1.330431   0.730  0.000  1.360          
    O3       Shell       8       0.00  -3.330431   0.730  0.000  1.360          
    F        Core        9      19.00   0.560000   0.710  0.000  1.300          
    F        Shell       9       0.00  -1.560000   0.710  0.000  1.300          
    Ge       Core       32      72.61   4.000000   1.170  0.000  1.750          
--------------------------------------------------------------------------------


  Lattice summation method               =    Ewald          (3-D)
                                         =    Parry          (2-D)
                                         =    Saunders et al (1-D)
  Accuracy factor for lattice sums       =   12.000


  Time limit = Infinity

  Maximum range for interatomic potentials =        16.000000 Angstroms

  Taper potentials to zero over   1.0000 Angstroms using polynomial

  General interatomic potentials :

--------------------------------------------------------------------------------
Atom  Types   Potential         A         B         C         D     Cutoffs(Ang)
  1     2                                                            Min    Max 
--------------------------------------------------------------------------------
Si   c O1   s Buckingham    0.132E+04 0.318      10.1      0.00     0.000 16.000
Si   c O2   s Buckingham    0.132E+04 0.318      10.1      0.00     0.000 16.000
Si   c O3   s Buckingham    0.132E+04 0.318      10.1      0.00     0.000 16.000
Ge   c O1   s Buckingham    0.150E+04 0.326      16.8      0.00     0.000 16.000
Ge   c O2   s Buckingham    0.150E+04 0.326      16.8      0.00     0.000 16.000
Ge   c O3   s Buckingham    0.150E+04 0.326      16.8      0.00     0.000 16.000
O1   s O1   s Buckingham    0.228E+05 0.149      10.9      0.00     0.000 16.000
O1   s O2   s Buckingham    0.228E+05 0.149      10.9      0.00     0.000 16.000
O1   s O3   s Buckingham    0.228E+05 0.149      10.9      0.00     0.000 16.000
O2   s O2   s Buckingham    0.228E+05 0.149      10.9      0.00     0.000 16.000
O2   s O3   s Buckingham    0.228E+05 0.149      10.9      0.00     0.000 16.000
O3   s O3   s Buckingham    0.228E+05 0.149      10.9      0.00     0.000 16.000
Si   c F    s Buckingham     977.     0.282      0.00      0.00     0.000 16.000
Ge   c F    s Buckingham     681.     0.320      0.00      0.00     0.000 16.000
F    s F    s Buckingham     540.     0.262      0.00      0.00     0.000 16.000
O1   s F    s Buckingham    0.168E+04 0.268      0.00      0.00     0.000 16.000
O2   s F    s Buckingham    0.168E+04 0.268      0.00      0.00     0.000 16.000
O3   s F    s Buckingham    0.168E+04 0.268      0.00      0.00     0.000 16.000
O2   c O2   s Spring (c-s)   76.0      0.00      0.00      0.00     0.000  0.800
O3   c O3   s Spring (c-s)   128.      0.00      0.00      0.00     0.000  0.800
O1   c O1   s Spring (c-s)   180.      0.00      0.00      0.00     0.000  0.800
F    c F    s Spring (c-s)   33.5      0.00      0.00      0.00     0.000  0.800
--------------------------------------------------------------------------------

  General Three-body potentials :

  Harmonic form:

--------------------------------------------------------------------------------
Atom    Atom    Atom           Force Constants            Theta     Cutoffs  
  1       2       3     (eVrad**-2/eVrad**-3/eVrad**-4)   (deg)  1-2  1-3  2-3
--------------------------------------------------------------------------------
Si    c O1    s O1    s  1.261        0.0000    0.0000   109.470 0.00 0.00 0.00
                                                                 1.90 1.90 3.50
Si    c O1    s O2    s  1.261        0.0000    0.0000   109.470 0.00 0.00 0.00
                                                                 1.90 1.90 3.50
Si    c O2    s O2    s  1.261        0.0000    0.0000   109.470 0.00 0.00 0.00
                                                                 1.90 1.90 3.50
--------------------------------------------------------------------------------

********************************************************************************
*  Output for configuration   1                                                *
********************************************************************************


  Components of energy : 

--------------------------------------------------------------------------------
  Interatomic potentials     =        2063.84523648 eV
  Three-body potentials      =           0.46416123 eV
  Monopole - monopole (real) =       -6614.32016575 eV
  Monopole - monopole (recip)=       -3170.33886045 eV
  Monopole - monopole (total)=       -9784.65902620 eV
  Neutralising energy        =          -6.45798043 eV
--------------------------------------------------------------------------------
  Total lattice energy       =       -7726.80760893 eV
--------------------------------------------------------------------------------
  Total lattice energy       =         -745518.8192 kJ/(mole unit cells)
--------------------------------------------------------------------------------


  Number of variables =      939

  Maximum number of calculations  =          1000
  Maximum Hessian update interval =            10
  Maximum step size               =   1.000000000
  Maximum parameter tolerance     =   0.000010000
  Maximum function  tolerance     =   0.000010000
  Maximum gradient  tolerance     =   0.001000000
  Maximum gradient  component     =   0.010000000

  Symmetry not applied to optimisation

  Cell parameters to be optimised using strains

  Newton-Raphson optimiser to be used

  BFGS hessian update to be used

  Dumpfile to be written after every cycle

  Start of bulk optimisation :

  Cycle:      0 Energy:     -7726.807609  Gnorm:      0.000953  CPU:    1.055
  ** Hessian calculated **
  Cycle:      1 Energy:     -7726.895385  Gnorm:      0.005966  CPU:    3.310
  Cycle:      2 Energy:     -7726.899922  Gnorm:      0.001676  CPU:    5.037
  Cycle:      3 Energy:     -7726.900000  Gnorm:      0.000220  CPU:    6.429
  Cycle:      4 Energy:     -7726.900006  Gnorm:      0.000088  CPU:    7.822


  **** Optimisation achieved ****


  Final energy =   -7726.90000614 eV
  Final Gnorm  =       0.00001115

  Components of energy : 

--------------------------------------------------------------------------------
  Interatomic potentials     =        2064.12581462 eV
  Three-body potentials      =           0.46764947 eV
  Monopole - monopole (real) =       -6615.71406085 eV
  Monopole - monopole (recip)=       -3169.32349332 eV
  Monopole - monopole (total)=       -9785.03755417 eV
  Neutralising energy        =          -6.45591606 eV
--------------------------------------------------------------------------------
  Total lattice energy       =       -7726.90000614 eV
--------------------------------------------------------------------------------
  Total lattice energy       =         -745527.7341 kJ/(mole unit cells)
--------------------------------------------------------------------------------

  Final fractional coordinates of atoms :

--------------------------------------------------------------------------------
   No.  Atomic        x           y          z          Radius
        Label       (Frac)      (Frac)     (Frac)       (Angs) 
--------------------------------------------------------------------------------
     1  Ge    c     0.699600    0.375700    0.033890    0.000000
     2  Si    c     0.604257    0.301617    0.365577    0.000000
     3  Si    c     0.654789    0.287177    0.699403    0.000000
     4  Si    c     0.270544    0.610234    0.532098    0.000000
     5  Si    c     0.357259    0.664253    0.864163    0.000000
     6  Si    c     0.296882    0.684532    0.198061    0.000000
     7  Si    c     0.355223    0.683472    0.298453    0.000000
     8  Si    c     0.305717    0.608616    0.964513    0.000000
     9  Si    c     0.277183    0.662236    0.632823    0.000000
    10  Si    c     0.598225    0.284829    0.799643    0.000000
    11  Ge    c     0.642262    0.376134    0.463345    0.000000
    12  Si    c     0.665158    0.302156    0.131729    0.000000
    13  Si    c     0.517736    0.407840    0.966969    0.000000
    14  Si    c     0.558626    0.091564    0.299382    0.000000
    15  Si    c     0.862825    0.455850    0.633719    0.000000
    16  Si    c     0.443877    0.570755    0.468060    0.000000
    17  Si    c     0.394106    0.874630    0.799269    0.000000
    18  Si    c     0.086761    0.513254    0.131552    0.000000
    19  Si    c     0.393128    0.511675    0.364954    0.000000
    20  Si    c     0.092765    0.570624    0.028365    0.000000
    21  Si    c     0.446627    0.874077    0.697617    0.000000
    22  Si    c     0.563938    0.459472    0.864269    0.000000
    23  Si    c     0.856343    0.409426    0.530826    0.000000
    24  Si    c     0.501896    0.091756    0.197924    0.000000
    25  Si    c     0.281857    0.388219    0.849802    0.000000
    26  Si    c     0.574826    0.885107    0.182844    0.000000
    27  Si    c     0.070610    0.690504    0.519214    0.000000
    28  Si    c     0.679967    0.583929    0.352740    0.000000
    29  Si    c     0.378215    0.085075    0.682550    0.000000
    30  Si    c     0.880464    0.284601    0.011893    0.000000
    31  Si    c     0.369945    0.285160    0.485402    0.000000
    32  Si    c     0.871924    0.584652    0.143947    0.000000
    33  Si    c     0.674921    0.083186    0.815193    0.000000
    34  Si    c     0.584704    0.687351    0.979249    0.000000
    35  Si    c     0.075250    0.386256    0.646757    0.000000
    36  Si    c     0.278375    0.883744    0.313820    0.000000
    37  Si    c     0.237099    0.330846    0.950381    0.000000
    38  Si    c     0.635847    0.891003    0.283759    0.000000
    39  Si    c     0.066520    0.732965    0.620544    0.000000
    40  Si    c     0.730106    0.655840    0.454940    0.000000
    41  Si    c     0.317220    0.075980    0.782723    0.000000
    42  Si    c     0.881975    0.233544    0.115250    0.000000
    43  Si    c     0.318343    0.232394    0.382005    0.000000
    44  Si    c     0.892090    0.655831    0.041697    0.000000
    45  Si    c     0.723994    0.077450    0.714594    0.000000
    46  Si    c     0.639611    0.736855    0.878424    0.000000
    47  Si    c     0.060550    0.332443    0.545808    0.000000
    48  Si    c     0.223283    0.890913    0.213024    0.000000
    49  Si    c     0.959898    0.111171    0.964260    0.000000
    50  Si    c     0.854900    0.829277    0.299151    0.000000
    51  Ge    c     0.123205    0.013274    0.632856    0.000000
    52  Si    c     0.005995    0.873469    0.465538    0.000000
    53  Si    c     0.100935    0.139774    0.799479    0.000000
    54  Si    c     0.822729    0.956041    0.132291    0.000000
    55  Si    c     0.100753    0.953842    0.364079    0.000000
    56  Si    c     0.833606    0.873037    0.030845    0.000000
    57  Si    c     0.003253    0.139738    0.698763    0.000000
    58  Si    c     0.858507    0.014772    0.864325    0.000000
    59  Si    c     0.114149    0.111706    0.531149    0.000000
    60  Si    c     0.942457    0.829914    0.197236    0.000000
    61  O2    c     0.914370    0.997437    0.000435    0.000000
    62  O2    c     0.981340    0.914583    0.329613    0.000000
    63  O3    c     0.036093    0.054019    0.667501    0.000000
    64  O2    c     0.050387    0.002634    0.492893    0.000000
    65  O2    c     0.979788    0.058894    0.831866    0.000000
    66  O2    c     0.902595    0.915098    0.166178    0.000000
    67  O2    c     0.318583    0.560150    0.330982    0.000000
    68  O2    c     0.401363    0.749050    0.665515    0.000000
    69  O2    c     0.220147    0.645281    0.997660    0.000000
    70  O2    c     0.637516    0.407436    0.832202    0.000000
    71  O2    c     0.551978    0.220209    0.167897    0.000000
    72  O3    c     0.735447    0.334502    0.499032    0.000000
    73  O3    c     0.563689    0.332576    0.998523    0.000000
    74  O2    c     0.739621    0.409067    0.666720    0.000000
    75  O2    c     0.636048    0.219595    0.329696    0.000000
    76  O2    c     0.391787    0.646552    0.498352    0.000000
    77  O2    c     0.210399    0.561893    0.165254    0.000000
    78  O2    c     0.317811    0.749305    0.831550    0.000000
    79  O2    c     0.113824    0.201111    0.970009    0.000000
    80  O2    c     0.763263    0.891708    0.303847    0.000000
    81  O3    c     0.062760    0.852188    0.642451    0.000000
    82  O2    c     0.851092    0.793057    0.470342    0.000000
    83  O2    c     0.191605    0.075715    0.803243    0.000000
    84  O2    c     0.882808    0.109525    0.137004    0.000000
    85  O2    c     0.193687    0.107672    0.360416    0.000000
    86  O2    c     0.908573    0.793250    0.026575    0.000000
    87  O2    c     0.849274    0.079078    0.694103    0.000000
    88  O2    c     0.766147    0.861772    0.858206    0.000000
    89  O2    c     0.052932    0.203932    0.524860    0.000000
    90  O2    c     0.096856    0.892304    0.193012    0.000000
    91  O2    c     0.899965    0.833948    0.248056    0.000000
    92  O3    c     0.087774    0.043247    0.578903    0.000000
    93  O2    c     0.915681    0.049523    0.914955    0.000000
    94  O2    c     0.045969    0.129635    0.749405    0.000000
    95  O2    c     0.837835    0.918568    0.082118    0.000000
    96  O2    c     0.045310    0.910988    0.413629    0.000000
    97  O2    c     0.893566    0.196311    0.973910    0.000000
    98  O2    c     0.774970    0.680323    0.313975    0.000000
    99  O3    c     0.286900    0.090981    0.642808    0.000000
   100  O2    c     0.072080    0.791226    0.481621    0.000000
   101  O2    c     0.183002    0.290243    0.811788    0.000000
   102  O2    c     0.670839    0.885164    0.144335    0.000000
   103  O2    c     0.182388    0.883896    0.352207    0.000000
   104  O2    c     0.683312    0.787306    0.017272    0.000000
   105  O2    c     0.077675    0.289716    0.684980    0.000000
   106  O2    c     0.774739    0.084183    0.853731    0.000000
   107  O2    c     0.267771    0.197605    0.523557    0.000000
   108  O2    c     0.873466    0.681009    0.182589    0.000000
   109  O2    c     0.296639    0.625437    0.248199    0.000000
   110  O2    c     0.334060    0.664847    0.582245    0.000000
   111  O2    c     0.300030    0.664712    0.914365    0.000000
   112  O2    c     0.656284    0.343425    0.749752    0.000000
   113  O3    c     0.603142    0.297863    0.083739    0.000000
   114  O3    c     0.661557    0.298091    0.413740    0.000000
   115  O2    c     0.360112    0.322206    0.968277    0.000000
   116  O2    c     0.645431    0.021840    0.302625    0.000000
   117  O2    c     0.934336    0.610450    0.637757    0.000000
   118  O2    c     0.599935    0.659082    0.468967    0.000000
   119  O2    c     0.307140    0.944087    0.801554    0.000000
   120  O2    c     0.013396    0.358055    0.133341    0.000000
   121  O2    c     0.311313    0.356395    0.363484    0.000000
   122  O2    c     0.025357    0.658980    0.027409    0.000000
   123  O2    c     0.603154    0.945032    0.695764    0.000000
   124  O2    c     0.649114    0.615045    0.860063    0.000000
   125  O2    c     0.928954    0.324907    0.528630    0.000000
   126  O2    c     0.345215    0.022091    0.194501    0.000000
   127  O3    c     0.748229    0.279729    0.002478    0.000000
   128  O2    c     0.676805    0.449313    0.345588    0.000000
   129  O2    c     0.511654    0.219396    0.676495    0.000000
   130  O2    c     0.204280    0.688950    0.510538    0.000000
   131  O2    c     0.282112    0.521903    0.841395    0.000000
   132  O2    c     0.439370    0.752234    0.175410    0.000000
   133  O2    c     0.280488    0.750812    0.321212    0.000000
   134  O2    c     0.449883    0.687036    0.986962    0.000000
   135  O2    c     0.210110    0.519230    0.655017    0.000000
   136  O2    c     0.672375    0.215343    0.822610    0.000000
   137  O3    c     0.497490    0.280773    0.495049    0.000000
   138  O2    c     0.740466    0.449938    0.151488    0.000000
   139  O3    c     0.768792    0.543509    0.018485    0.000000
   140  O2    c     0.446597    0.236511    0.363757    0.000000
   141  O2    c     0.727456    0.204578    0.695063    0.000000
   142  O2    c     0.188654    0.455231    0.525798    0.000000
   143  O2    c     0.513653    0.739093    0.859114    0.000000
   144  O2    c     0.220175    0.764109    0.193426    0.000000
   145  O2    c     0.511735    0.763607    0.303117    0.000000
   146  O2    c     0.231673    0.453292    0.970489    0.000000
   147  O2    c     0.195585    0.735758    0.639114    0.000000
   148  O2    c     0.441774    0.203030    0.802541    0.000000
   149  O3    c     0.741131    0.544020    0.478386    0.000000
   150  O2    c     0.757940    0.237550    0.133580    0.000000
   151  O2    c     0.212381    0.314547    0.896156    0.000000
   152  O2    c     0.651006    0.889803    0.229357    0.000000
   153  O2    c     0.069824    0.759506    0.566173    0.000000
   154  O2    c     0.745300    0.655053    0.399732    0.000000
   155  O2    c     0.297797    0.076763    0.728041    0.000000
   156  O2    c     0.883640    0.220722    0.060970    0.000000
   157  O2    c     0.303614    0.220463    0.436294    0.000000
   158  O2    c     0.876878    0.655350    0.096926    0.000000
   159  O2    c     0.744396    0.078992    0.769004    0.000000
   160  O2    c     0.658623    0.756289    0.932820    0.000000
   161  O2    c     0.070737    0.313675    0.599997    0.000000
   162  O2    c     0.206580    0.888553    0.267410    0.000000
   163  O2    c     0.569688    0.549418    0.989303    0.000000
   164  O2    c     0.418349    0.008194    0.322755    0.000000
   165  O2    c     0.948538    0.397763    0.655388    0.000000
   166  O2    c     0.394508    0.430746    0.489751    0.000000
   167  O2    c     0.535322    0.958320    0.823177    0.000000
   168  O2    c     0.995105    0.564900    0.150654    0.000000
   169  O2    c     0.536702    0.563417    0.345903    0.000000
   170  O2    c     0.001617    0.430179    0.007078    0.000000
   171  O2    c     0.390535    0.959024    0.673855    0.000000
   172  O2    c     0.421243    0.401864    0.841588    0.000000
   173  O2    c     0.945667    0.553082    0.509818    0.000000
   174  O2    c     0.559296    0.009456    0.174216    0.000000
   175  O2    c     0.555884    0.142521    0.248649    0.000000
   176  O2    c     0.809110    0.408783    0.582712    0.000000
   177  O2    c     0.568324    0.412011    0.915366    0.000000
   178  O2    c     0.393668    0.822047    0.748455    0.000000
   179  O2    c     0.135330    0.562655    0.080595    0.000000
   180  O2    c     0.393499    0.561645    0.415752    0.000000
   181  F     c     0.424766    0.881299    0.248375    0.000000
   182  F     c     0.079339    0.540409    0.582857    0.000000
   183  F     c     0.429900    0.540706    0.914675    0.000000
   184  F     c     0.523120    0.083436    0.748559    0.000000
   185  F     c     0.843434    0.427340    0.071486    0.000000
   186  F     c     0.550057    0.426764    0.425484    0.000000
   187  O2    s     0.910201    0.995977    0.999845    0.000000
   188  O2    s     0.980392    0.909417    0.330004    0.000000
   189  O3    s     0.040229    0.059773    0.667848    0.000000
   190  O2    s     0.052330    0.999781    0.493963    0.000000
   191  O2    s     0.979616    0.062923    0.831922    0.000000
   192  O2    s     0.898249    0.910157    0.165906    0.000000
   193  O2    s     0.330095    0.567549    0.331236    0.000000
   194  O2    s     0.393385    0.752972    0.665461    0.000000
   195  O2    s     0.215055    0.633714    0.997645    0.000000
   196  O2    s     0.625911    0.400153    0.832130    0.000000
   197  O2    s     0.558330    0.214986    0.167359    0.000000
   198  O3    s     0.741956    0.345737    0.499926    0.000000
   199  O3    s     0.568470    0.343940    0.997628    0.000000
   200  O2    s     0.743498    0.401240    0.666724    0.000000
   201  O2    s     0.624550    0.214412    0.330164    0.000000
   202  O2    s     0.385356    0.634950    0.498472    0.000000
   203  O2    s     0.206182    0.569212    0.165052    0.000000
   204  O2    s     0.329643    0.753482    0.831576    0.000000
   205  O2    s     0.109653    0.204516    0.967426    0.000000
   206  O2    s     0.759756    0.884980    0.301276    0.000000
   207  O3    s     0.068152    0.853575    0.639477    0.000000
   208  O2    s     0.855055    0.787437    0.468252    0.000000
   209  O2    s     0.194909    0.082564    0.800748    0.000000
   210  O2    s     0.876427    0.106253    0.134288    0.000000
   211  O2    s     0.196836    0.104429    0.363014    0.000000
   212  O2    s     0.898910    0.787576    0.028582    0.000000
   213  O2    s     0.852473    0.085468    0.696781    0.000000
   214  O2    s     0.762952    0.865184    0.860903    0.000000
   215  O2    s     0.060255    0.207137    0.527643    0.000000
   216  O2    s     0.093559    0.885503    0.195526    0.000000
   217  O2    s     0.899694    0.832985    0.248078    0.000000
   218  O3    s     0.093617    0.048131    0.578272    0.000000
   219  O2    s     0.914345    0.052653    0.914921    0.000000
   220  O2    s     0.047500    0.131978    0.749466    0.000000
   221  O2    s     0.835611    0.917891    0.082272    0.000000
   222  O2    s     0.047448    0.911857    0.413601    0.000000
   223  O2    s     0.899463    0.196507    0.976937    0.000000
   224  O2    s     0.773715    0.686263    0.316383    0.000000
   225  O3    s     0.281990    0.084025    0.645716    0.000000
   226  O2    s     0.064790    0.789928    0.483690    0.000000
   227  O2    s     0.184445    0.284283    0.814406    0.000000
   228  O2    s     0.676917    0.892592    0.147035    0.000000
   229  O2    s     0.183717    0.891242    0.349478    0.000000
   230  O2    s     0.689632    0.786517    0.014914    0.000000
   231  O2    s     0.069578    0.283838    0.682475    0.000000
   232  O2    s     0.773496    0.076803    0.850976    0.000000
   233  O2    s     0.262307    0.197803    0.520332    0.000000
   234  O2    s     0.880670    0.686969    0.180166    0.000000
   235  O2    s     0.302613    0.637331    0.248213    0.000000
   236  O2    s     0.321995    0.659065    0.582227    0.000000
   237  O2    s     0.306316    0.658956    0.914442    0.000000
   238  O2    s     0.650218    0.331708    0.749686    0.000000
   239  O3    s     0.615957    0.303292    0.085729    0.000000
   240  O3    s     0.654177    0.303432    0.411711    0.000000
   241  O2    s     0.362257    0.331721    0.966158    0.000000
   242  O2    s     0.635518    0.015256    0.300308    0.000000
   243  O2    s     0.940835    0.607107    0.635485    0.000000
   244  O2    s     0.596764    0.649567    0.467447    0.000000
   245  O2    s     0.317125    0.950703    0.799344    0.000000
   246  O2    s     0.007501    0.361406    0.131288    0.000000
   247  O2    s     0.320555    0.359838    0.365540    0.000000
   248  O2    s     0.019018    0.649482    0.028957    0.000000
   249  O2    s     0.599622    0.951600    0.697950    0.000000
   250  O2    s     0.639425    0.611892    0.862414    0.000000
   251  O2    s     0.936325    0.334249    0.530775    0.000000
   252  O2    s     0.348481    0.015428    0.196809    0.000000
   253  O3    s     0.759306    0.286680    0.005664    0.000000
   254  O2    s     0.670196    0.449464    0.348283    0.000000
   255  O2    s     0.512474    0.212251    0.679573    0.000000
   256  O2    s     0.197462    0.681070    0.513656    0.000000
   257  O2    s     0.289761    0.522484    0.844631    0.000000
   258  O2    s     0.438827    0.759111    0.178550    0.000000
   259  O2    s     0.287945    0.757720    0.318070    0.000000
   260  O2    s     0.448982    0.679068    0.983846    0.000000
   261  O2    s     0.202984    0.520070    0.651843    0.000000
   262  O2    s     0.665069    0.208546    0.819462    0.000000
   263  O3    s     0.493339    0.287597    0.491830    0.000000
   264  O2    s     0.747232    0.450093    0.148766    0.000000
   265  O3    s     0.777977    0.544984    0.021968    0.000000
   266  O2    s     0.448182    0.242587    0.365929    0.000000
   267  O2    s     0.719242    0.199393    0.697636    0.000000
   268  O2    s     0.183575    0.458305    0.528523    0.000000
   269  O2    s     0.511118    0.731021    0.861701    0.000000
   270  O2    s     0.228539    0.769441    0.195978    0.000000
   271  O2    s     0.508700    0.768932    0.300586    0.000000
   272  O2    s     0.239881    0.456378    0.967801    0.000000
   273  O2    s     0.190130    0.727656    0.636470    0.000000
   274  O2    s     0.444784    0.197848    0.800119    0.000000
   275  O3    s     0.733356    0.545398    0.474886    0.000000
   276  O2    s     0.762438    0.243585    0.131391    0.000000
   277  O2    s     0.222273    0.324035    0.897031    0.000000
   278  O2    s     0.641402    0.889440    0.230256    0.000000
   279  O2    s     0.069643    0.749728    0.566819    0.000000
   280  O2    s     0.736652    0.647290    0.400021    0.000000
   281  O2    s     0.307749    0.077449    0.729090    0.000000
   282  O2    s     0.883148    0.228345    0.062044    0.000000
   283  O2    s     0.311668    0.228055    0.435204    0.000000
   284  O2    s     0.877776    0.647604    0.096631    0.000000
   285  O2    s     0.734908    0.079256    0.768124    0.000000
   286  O2    s     0.648881    0.747033    0.931942    0.000000
   287  O2    s     0.070226    0.323128    0.599221    0.000000
   288  O2    s     0.215894    0.888298    0.266487    0.000000
   289  O2    s     0.565873    0.550498    0.985938    0.000000
   290  O2    s     0.417964    0.003376    0.319358    0.000000
   291  O2    s     0.953463    0.402747    0.652177    0.000000
   292  O2    s     0.397553    0.431094    0.486942    0.000000
   293  O2    s     0.535736    0.963294    0.819832    0.000000
   294  O2    s     0.991619    0.561389    0.147890    0.000000
   295  O2    s     0.536676    0.559975    0.348675    0.000000
   296  O2    s     0.998933    0.430540    0.009895    0.000000
   297  O2    s     0.395192    0.963784    0.677248    0.000000
   298  O2    s     0.421100    0.406589    0.844856    0.000000
   299  O2    s     0.950787    0.553874    0.512981    0.000000
   300  O2    s     0.554836    0.004517    0.177603    0.000000
   301  O2    s     0.550377    0.131577    0.248655    0.000000
   302  O2    s     0.819575    0.413877    0.582945    0.000000
   303  O2    s     0.562780    0.416717    0.915080    0.000000
   304  O2    s     0.399167    0.832844    0.748454    0.000000
   305  O2    s     0.125869    0.558216    0.080728    0.000000
   306  O2    s     0.398552    0.557267    0.415651    0.000000
   307  F     s     0.424394    0.880591    0.248371    0.000000
   308  F     s     0.080664    0.541018    0.582882    0.000000
   309  F     s     0.429209    0.541301    0.914674    0.000000
   310  F     s     0.523147    0.083822    0.748509    0.000000
   311  F     s     0.832819    0.423630    0.068861    0.000000
   312  F     s     0.556990    0.423105    0.428148    0.000000
--------------------------------------------------------------------------------

  Final Cartesian lattice vectors (Angstroms) :

       11.942211    0.006173   -0.006098
       -5.998355   10.416816    0.018854
       -0.390929   -0.024152   29.443241


  Final cell parameters and derivatives :

--------------------------------------------------------------------------------
       a           11.942214 Angstrom     dE/de1(xx)     0.000463 eV/strain
       b           12.020427 Angstrom     dE/de2(yy)     0.000212 eV/strain
       c           29.445846 Angstrom     dE/de3(zz)     0.000847 eV/strain
       alpha       89.571275 Degrees      dE/de4(yz)    -0.000106 eV/strain
       beta        90.789973 Degrees      dE/de5(xz)     0.000056 eV/strain
       gamma      119.905183 Degrees      dE/de6(xy)     0.000061 eV/strain
--------------------------------------------------------------------------------

  Primitive cell volume =          3663.803807 Angs**3

  Density of cell =      1.746298 g/cm**3

  Non-primitive cell volume =          3663.803807 Angs**3


  Final internal derivatives :

--------------------------------------------------------------------------------
   No.  Atomic          a             b             c           Radius
        Label          (eV)          (eV)          (eV)        (eV/Angs)
--------------------------------------------------------------------------------
      1 Ge    c       0.000000      0.000000      0.000000      0.000000
      2 Si    c      -0.000027      0.000008     -0.000071      0.000000
      3 Si    c       0.000002     -0.000004      0.000023      0.000000
      4 Si    c      -0.000058      0.000026      0.000043      0.000000
      5 Si    c      -0.000068      0.000063      0.000098      0.000000
      6 Si    c      -0.000031      0.000031     -0.000300      0.000000
      7 Si    c       0.000039      0.000005      0.000149      0.000000
      8 Si    c      -0.000059      0.000010      0.000123      0.000000
      9 Si    c       0.000013      0.000017      0.000025      0.000000
     10 Si    c      -0.000010      0.000004     -0.000008      0.000000
     11 Ge    c      -0.000243      0.000115     -0.000352      0.000000
     12 Si    c      -0.000535     -0.000606      0.002834      0.000000
     13 Si    c      -0.000788      0.000597     -0.001422      0.000000
     14 Si    c       0.000015      0.000007     -0.000019      0.000000
     15 Si    c       0.000048     -0.000030     -0.000102      0.000000
     16 Si    c       0.000001     -0.000002     -0.000011      0.000000
     17 Si    c      -0.000012     -0.000005      0.000034      0.000000
     18 Si    c       0.000009     -0.000040      0.000180      0.000000
     19 Si    c       0.000007      0.000030     -0.000034      0.000000
     20 Si    c       0.000033      0.000260     -0.000415      0.000000
     21 Si    c      -0.000007      0.000024      0.000066      0.000000
     22 Si    c      -0.000015      0.000013      0.000277      0.000000
     23 Si    c       0.000126     -0.000007      0.000246      0.000000
     24 Si    c      -0.000007     -0.000033     -0.000022      0.000000
     25 Si    c      -0.000013      0.000046     -0.000184      0.000000
     26 Si    c      -0.000012      0.000033     -0.000157      0.000000
     27 Si    c       0.000019     -0.000012     -0.000036      0.000000
     28 Si    c      -0.000005      0.000005     -0.000014      0.000000
     29 Si    c       0.000007     -0.000021      0.000069      0.000000
     30 Si    c      -0.000006     -0.000361      0.000151      0.000000
     31 Si    c       0.000042     -0.000010     -0.000095      0.000000
     32 Si    c      -0.000172     -0.000249     -0.000281      0.000000
     33 Si    c      -0.000017     -0.000003     -0.000023      0.000000
     34 Si    c       0.000168     -0.000165     -0.000036      0.000000
     35 Si    c      -0.000007     -0.000017      0.000011      0.000000
     36 Si    c       0.000031      0.000008      0.000040      0.000000
     37 Si    c       0.000020      0.000160     -0.000352      0.000000
     38 Si    c       0.000006      0.000007      0.000020      0.000000
     39 Si    c      -0.000007      0.000014      0.000025      0.000000
     40 Si    c       0.000026      0.000006      0.000021      0.000000
     41 Si    c      -0.000015      0.000008     -0.000004      0.000000
     42 Si    c      -0.000084      0.000012      0.001324      0.000000
     43 Si    c       0.000022     -0.000025     -0.000021      0.000000
     44 Si    c       0.000260     -0.000236     -0.001881      0.000000
     45 Si    c      -0.000010     -0.000016      0.000005      0.000000
     46 Si    c       0.000045     -0.000004      0.000038      0.000000
     47 Si    c       0.000001     -0.000000      0.000041      0.000000
     48 Si    c       0.000053      0.000007     -0.000130      0.000000
     49 Si    c       0.000185     -0.000180      0.000359      0.000000
     50 Si    c      -0.000015      0.000018     -0.000068      0.000000
     51 Ge    c      -0.000002      0.000014      0.000017      0.000000
     52 Si    c       0.000013     -0.000011     -0.000271      0.000000
     53 Si    c       0.000063     -0.000030      0.000094      0.000000
     54 Si    c      -0.000098      0.000165      0.000415      0.000000
     55 Si    c       0.000015      0.000019      0.000057      0.000000
     56 Si    c       0.000265     -0.000183     -0.000774      0.000000
     57 Si    c       0.000029     -0.000013     -0.000057      0.000000
     58 Si    c      -0.000017     -0.000065     -0.000068      0.000000
     59 Si    c       0.000018      0.000028      0.000363      0.000000
     60 Si    c       0.000024      0.000040      0.000040      0.000000
     61 O2    c      -0.000173      0.000139      0.000068      0.000000
     62 O2    c       0.000001      0.000003      0.000001      0.000000
     63 O3    c       0.000012      0.000006      0.000005      0.000000
     64 O2    c      -0.000128     -0.000004     -0.000349      0.000000
     65 O2    c      -0.000016      0.000032     -0.000043      0.000000
     66 O2    c      -0.000035      0.000010     -0.000056      0.000000
     67 O2    c       0.000010     -0.000002      0.000012      0.000000
     68 O2    c      -0.000010     -0.000048     -0.000097      0.000000
     69 O2    c       0.000202     -0.000100     -0.000252      0.000000
     70 O2    c      -0.000024      0.000056      0.000086      0.000000
     71 O2    c      -0.000130     -0.000028      0.000421      0.000000
     72 O3    c       0.000289     -0.000325      0.000338      0.000000
     73 O3    c       0.000535     -0.000871     -0.000306      0.000000
     74 O2    c      -0.000072     -0.000003      0.000175      0.000000
     75 O2    c       0.000008     -0.000009      0.000027      0.000000
     76 O2    c       0.000067     -0.000027     -0.000106      0.000000
     77 O2    c      -0.000039      0.000082      0.000105      0.000000
     78 O2    c       0.000012      0.000008      0.000007      0.000000
     79 O2    c      -0.000057     -0.000153      0.000114      0.000000
     80 O2    c       0.000028     -0.000009     -0.000009      0.000000
     81 O3    c      -0.000011      0.000021      0.000019      0.000000
     82 O2    c      -0.000110     -0.000020      0.000048      0.000000
     83 O2    c      -0.000031      0.000039     -0.000015      0.000000
     84 O2    c       0.000028     -0.000116      0.000069      0.000000
     85 O2    c      -0.000005     -0.000007      0.000019      0.000000
     86 O2    c      -0.000114      0.000161      0.000021      0.000000
     87 O2    c      -0.000003     -0.000016     -0.000014      0.000000
     88 O2    c       0.000004      0.000049      0.000049      0.000000
     89 O2    c      -0.000058      0.000072     -0.000051      0.000000
     90 O2    c      -0.000079      0.000044     -0.000053      0.000000
     91 O2    c       0.000001      0.000010      0.000105      0.000000
     92 O3    c      -0.000023     -0.000000     -0.000090      0.000000
     93 O2    c      -0.000034     -0.000075     -0.000456      0.000000
     94 O2    c       0.000005      0.000012     -0.000034      0.000000
     95 O2    c       0.000047      0.000121      0.000755      0.000000
     96 O2    c       0.000001     -0.000002      0.000120      0.000000
     97 O2    c      -0.000102      0.000107      0.000121      0.000000
     98 O2    c      -0.000000      0.000005     -0.000007      0.000000
     99 O3    c      -0.000036      0.000012     -0.000062      0.000000
    100 O2    c       0.000127     -0.000127      0.000090      0.000000
    101 O2    c      -0.000015     -0.000055     -0.000093      0.000000
    102 O2    c      -0.000000      0.000017     -0.000076      0.000000
    103 O2    c       0.000001      0.000005      0.000014      0.000000
    104 O2    c      -0.000255      0.000046      0.000015      0.000000
    105 O2    c       0.000010     -0.000016      0.000009      0.000000
    106 O2    c       0.000007     -0.000006      0.000020      0.000000
    107 O2    c       0.000042     -0.000015      0.000046      0.000000
    108 O2    c       0.000007      0.000031      0.000073      0.000000
    109 O2    c       0.000009     -0.000015     -0.000126      0.000000
    110 O2    c      -0.000001     -0.000004     -0.000047      0.000000
    111 O2    c      -0.000000     -0.000001      0.000086      0.000000
    112 O2    c       0.000004     -0.000006      0.000059      0.000000
    113 O3    c      -0.000754      0.000686     -0.006094      0.000000
    114 O3    c       0.000029     -0.000033      0.000006      0.000000
    115 O2    c      -0.000105      0.000036     -0.000199      0.000000
    116 O2    c       0.000003      0.000014      0.000006      0.000000
    117 O2    c      -0.000014      0.000016      0.000020      0.000000
    118 O2    c      -0.000012     -0.000000      0.000008      0.000000
    119 O2    c       0.000005      0.000001      0.000002      0.000000
    120 O2    c       0.000098      0.000182      0.000057      0.000000
    121 O2    c      -0.000010      0.000003     -0.000035      0.000000
    122 O2    c      -0.000141      0.000202      0.000098      0.000000
    123 O2    c       0.000002     -0.000010      0.000007      0.000000
    124 O2    c       0.000012     -0.000030      0.000048      0.000000
    125 O2    c       0.000019     -0.000018      0.000008      0.000000
    126 O2    c       0.000013     -0.000003     -0.000033      0.000000
    127 O3    c      -0.000122     -0.000093      0.000350      0.000000
    128 O2    c       0.000006      0.000023     -0.000004      0.000000
    129 O2    c       0.000006      0.000007     -0.000010      0.000000
    130 O2    c       0.000016     -0.000023      0.000028      0.000000
    131 O2    c      -0.000010      0.000033     -0.000080      0.000000
    132 O2    c      -0.000019      0.000001      0.000036      0.000000
    133 O2    c       0.000014      0.000005     -0.000027      0.000000
    134 O2    c      -0.000097      0.000047      0.000025      0.000000
    135 O2    c       0.000002     -0.000025      0.000031      0.000000
    136 O2    c      -0.000005      0.000012      0.000004      0.000000
    137 O3    c      -0.000010      0.000017     -0.000061      0.000000
    138 O2    c       0.000173      0.000274     -0.000067      0.000000
    139 O3    c       0.000177     -0.000489      0.000509      0.000000
    140 O2    c       0.000022      0.000011      0.000015      0.000000
    141 O2    c      -0.000007      0.000010     -0.000013      0.000000
    142 O2    c      -0.000002      0.000024      0.000004      0.000000
    143 O2    c       0.000079      0.000013     -0.000073      0.000000
    144 O2    c       0.000062     -0.000025     -0.000043      0.000000
    145 O2    c      -0.000018     -0.000006     -0.000004      0.000000
    146 O2    c       0.000036     -0.000006     -0.000106      0.000000
    147 O2    c      -0.000005      0.000002      0.000018      0.000000
    148 O2    c      -0.000011      0.000009      0.000037      0.000000
    149 O3    c       0.000059      0.000017      0.000114      0.000000
    150 O2    c      -0.000272      0.000149      0.000329      0.000000
    151 O2    c       0.000004     -0.000061      0.000641      0.000000
    152 O2    c       0.000004      0.000013     -0.000090      0.000000
    153 O2    c      -0.000002     -0.000003     -0.000006      0.000000
    154 O2    c       0.000003      0.000004     -0.000018      0.000000
    155 O2    c       0.000010     -0.000005      0.000003      0.000000
    156 O2    c      -0.000299     -0.000050     -0.002295      0.000000
    157 O2    c      -0.000004     -0.000002      0.000016      0.000000
    158 O2    c      -0.000088     -0.000238      0.004372      0.000000
    159 O2    c       0.000009     -0.000009      0.000010      0.000000
    160 O2    c       0.000025     -0.000015      0.000049      0.000000
    161 O2    c       0.000002     -0.000006     -0.000022      0.000000
    162 O2    c       0.000022      0.000001      0.000009      0.000000
    163 O2    c       0.000069     -0.000104     -0.000135      0.000000
    164 O2    c      -0.000018     -0.000013     -0.000012      0.000000
    165 O2    c      -0.000013      0.000002      0.000006      0.000000
    166 O2    c      -0.000014      0.000033      0.000015      0.000000
    167 O2    c       0.000020     -0.000003      0.000040      0.000000
    168 O2    c      -0.000144      0.000095      0.000026      0.000000
    169 O2    c       0.000004      0.000004     -0.000001      0.000000
    170 O2    c      -0.000011     -0.000375      0.000066      0.000000
    171 O2    c       0.000006     -0.000010      0.000006      0.000000
    172 O2    c       0.000136     -0.000061      0.000007      0.000000
    173 O2    c      -0.000039      0.000023     -0.000116      0.000000
    174 O2    c      -0.000002     -0.000004      0.000023      0.000000
    175 O2    c       0.000020      0.000008      0.000085      0.000000
    176 O2    c      -0.000001     -0.000007      0.000024      0.000000
    177 O2    c      -0.000043      0.000020     -0.000321      0.000000
    178 O2    c      -0.000000     -0.000007      0.000004      0.000000
    179 O2    c       0.000112     -0.000041      0.000853      0.000000
    180 O2    c       0.000004      0.000005      0.000047      0.000000
    181 F     c       0.000036      0.000016      0.000019      0.000000
    182 F     c      -0.000019     -0.000004      0.000017      0.000000
    183 F     c       0.000030     -0.000008     -0.000026      0.000000
    184 F     c       0.000004     -0.000009     -0.000005      0.000000
    185 F     c      -0.000211      0.000003      0.000685      0.000000
    186 F     c       0.000007     -0.000010      0.000004      0.000000
    187 O2    s       0.000056     -0.000034     -0.000190      0.000000
    188 O2    s       0.000001      0.000007     -0.000019      0.000000
    189 O3    s       0.000010     -0.000008      0.000026      0.000000
    190 O2    s      -0.000020      0.000041      0.000067      0.000000
    191 O2    s       0.000002      0.000029      0.000036      0.000000
    192 O2    s       0.000034     -0.000107      0.000027      0.000000
    193 O2    s      -0.000002      0.000011     -0.000016      0.000000
    194 O2    s       0.000003      0.000001      0.000005      0.000000
    195 O2    s      -0.000089      0.000123     -0.000073      0.000000
    196 O2    s       0.000050     -0.000041     -0.000043      0.000000
    197 O2    s      -0.000018     -0.000216      0.000207      0.000000
    198 O3    s      -0.000218      0.000277     -0.000189      0.000000
    199 O3    s      -0.000789      0.000765      0.000176      0.000000
    200 O2    s       0.000011     -0.000009     -0.000040      0.000000
    201 O2    s       0.000019     -0.000009      0.000007      0.000000
    202 O2    s      -0.000023      0.000020      0.000063      0.000000
    203 O2    s       0.000041     -0.000080     -0.000101      0.000000
    204 O2    s      -0.000006     -0.000007     -0.000043      0.000000
    205 O2    s       0.000121      0.000082     -0.000052      0.000000
    206 O2    s       0.000017     -0.000000      0.000043      0.000000
    207 O3    s       0.000014     -0.000024     -0.000031      0.000000
    208 O2    s      -0.000018     -0.000002     -0.000068      0.000000
    209 O2    s       0.000002     -0.000010      0.000015      0.000000
    210 O2    s       0.000150     -0.000132      0.000462      0.000000
    211 O2    s       0.000004     -0.000001     -0.000058      0.000000
    212 O2    s       0.000146     -0.000072     -0.000668      0.000000
    213 O2    s      -0.000001     -0.000012     -0.000003      0.000000
    214 O2    s       0.000004     -0.000016     -0.000053      0.000000
    215 O2    s      -0.000030      0.000057      0.000091      0.000000
    216 O2    s       0.000022     -0.000021      0.000053      0.000000
    217 O2    s       0.000021      0.000006     -0.000105      0.000000
    218 O3    s       0.000046     -0.000017      0.000179      0.000000
    219 O2    s      -0.000015      0.000029      0.000070      0.000000
    220 O2    s       0.000007      0.000003      0.000053      0.000000
    221 O2    s       0.000061     -0.000146     -0.000064      0.000000
    222 O2    s       0.000007      0.000022     -0.000153      0.000000
    223 O2    s       0.000031      0.000102      0.000185      0.000000
    224 O2    s       0.000008      0.000013      0.000006      0.000000
    225 O3    s       0.000020     -0.000022     -0.000005      0.000000
    226 O2    s       0.000064     -0.000035     -0.000003      0.000000
    227 O2    s      -0.000038      0.000024     -0.000135      0.000000
    228 O2    s       0.000061     -0.000047      0.000200      0.000000
    229 O2    s       0.000018      0.000004     -0.000036      0.000000
    230 O2    s      -0.000088      0.000185      0.000025      0.000000
    231 O2    s      -0.000004      0.000002      0.000013      0.000000
    232 O2    s       0.000045     -0.000023      0.000073      0.000000
    233 O2    s       0.000084     -0.000029      0.000058      0.000000
    234 O2    s      -0.000010     -0.000037     -0.000399      0.000000
    235 O2    s      -0.000042      0.000085      0.000074      0.000000
    236 O2    s      -0.000001      0.000004      0.000061      0.000000
    237 O2    s      -0.000002      0.000003      0.000088      0.000000
    238 O2    s       0.000001      0.000006     -0.000079      0.000000
    239 O3    s       0.000485     -0.000335      0.003021      0.000000
    240 O3    s      -0.000006      0.000011     -0.000034      0.000000
    241 O2    s      -0.000090     -0.000047      0.000460      0.000000
    242 O2    s       0.000011      0.000006      0.000059      0.000000
    243 O2    s       0.000013     -0.000002      0.000004      0.000000
    244 O2    s       0.000001      0.000000     -0.000004      0.000000
    245 O2    s       0.000002     -0.000002     -0.000003      0.000000
    246 O2    s       0.000307     -0.000041      0.000236      0.000000
    247 O2    s       0.000004      0.000005      0.000011      0.000000
    248 O2    s       0.000441     -0.000269     -0.000447      0.000000
    249 O2    s       0.000019     -0.000014     -0.000041      0.000000
    250 O2    s      -0.000002      0.000028     -0.000068      0.000000
    251 O2    s       0.000001      0.000001     -0.000015      0.000000
    252 O2    s       0.000032      0.000038      0.000077      0.000000
    253 O3    s       0.000231      0.000096     -0.000760      0.000000
    254 O2    s      -0.000001      0.000003     -0.000001      0.000000
    255 O2    s       0.000013      0.000001     -0.000014      0.000000
    256 O2    s      -0.000002      0.000034     -0.000050      0.000000
    257 O2    s      -0.000062      0.000064     -0.000124      0.000000
    258 O2    s       0.000026      0.000026      0.000006      0.000000
    259 O2    s      -0.000006      0.000015     -0.000041      0.000000
    260 O2    s      -0.000037      0.000027      0.000038      0.000000
    261 O2    s       0.000000      0.000012     -0.000027      0.000000
    262 O2    s       0.000028     -0.000012      0.000051      0.000000
    263 O3    s       0.000007     -0.000038      0.000125      0.000000
    264 O2    s       0.000095      0.000335     -0.000798      0.000000
    265 O3    s      -0.000652     -0.000246     -0.000649      0.000000
    266 O2    s       0.000005     -0.000019     -0.000025      0.000000
    267 O2    s       0.000002      0.000000     -0.000006      0.000000
    268 O2    s       0.000030     -0.000041     -0.000023      0.000000
    269 O2    s       0.000007     -0.000043      0.000059      0.000000
    270 O2    s      -0.000034      0.000003      0.000136      0.000000
    271 O2    s       0.000018      0.000011     -0.000016      0.000000
    272 O2    s      -0.000019     -0.000035      0.000175      0.000000
    273 O2    s       0.000005     -0.000008     -0.000032      0.000000
    274 O2    s       0.000006     -0.000025     -0.000067      0.000000
    275 O3    s      -0.000054     -0.000055     -0.000120      0.000000
    276 O2    s      -0.000066     -0.000058      0.000790      0.000000
    277 O2    s      -0.000024     -0.000029     -0.000048      0.000000
    278 O2    s       0.000004     -0.000000      0.000009      0.000000
    279 O2    s       0.000018     -0.000013      0.000006      0.000000
    280 O2    s      -0.000004      0.000007     -0.000006      0.000000
    281 O2    s      -0.000014      0.000002      0.000020      0.000000
    282 O2    s       0.000235      0.000214     -0.000737      0.000000
    283 O2    s       0.000013     -0.000005      0.000014      0.000000
    284 O2    s       0.000220      0.000188     -0.000259      0.000000
    285 O2    s       0.000006     -0.000001     -0.000014      0.000000
    286 O2    s       0.000002      0.000075     -0.000302      0.000000
    287 O2    s       0.000000     -0.000006      0.000005      0.000000
    288 O2    s      -0.000001     -0.000004      0.000051      0.000000
    289 O2    s      -0.000082     -0.000037      0.000217      0.000000
    290 O2    s       0.000008      0.000006      0.000019      0.000000
    291 O2    s       0.000015     -0.000020      0.000016      0.000000
    292 O2    s       0.000011      0.000006     -0.000010      0.000000
    293 O2    s       0.000000      0.000002     -0.000031      0.000000
    294 O2    s      -0.000131      0.000099     -0.000089      0.000000
    295 O2    s       0.000018      0.000001      0.000012      0.000000
    296 O2    s      -0.000255      0.000129     -0.000188      0.000000
    297 O2    s       0.000000     -0.000012     -0.000057      0.000000
    298 O2    s       0.000032     -0.000018     -0.000049      0.000000
    299 O2    s       0.000078     -0.000072      0.000196      0.000000
    300 O2    s      -0.000001      0.000055      0.000084      0.000000
    301 O2    s      -0.000021      0.000024     -0.000011      0.000000
    302 O2    s      -0.000007     -0.000008     -0.000074      0.000000
    303 O2    s       0.000034      0.000023     -0.000571      0.000000
    304 O2    s       0.000006     -0.000009      0.000033      0.000000
    305 O2    s       0.000106     -0.000043     -0.000144      0.000000
    306 O2    s       0.000008      0.000008      0.000028      0.000000
    307 F     s      -0.000049     -0.000031     -0.000032      0.000000
    308 F     s       0.000031      0.000004     -0.000030      0.000000
    309 F     s      -0.000052      0.000024      0.000093      0.000000
    310 F     s      -0.000000      0.000005      0.000023      0.000000
    311 F     s       0.000067      0.000150     -0.001251      0.000000
    312 F     s       0.000002      0.000013     -0.000005      0.000000
--------------------------------------------------------------------------------
  Maximum abs         0.000789      0.000871      0.006094      0.000000
--------------------------------------------------------------------------------


  Time to end of optimisation =       9.2158 seconds


  Peak dynamic memory used =      19.13 MB 


  Timing analysis for GULP :

--------------------------------------------------------------------------------
  Task / Subroutine                                          Time (Seconds)
--------------------------------------------------------------------------------
  Calculation of reciprocal space energy and derivatives          0.3237
  Calculation of real space energy and derivatives                7.7519
  Calculation of three-body energy and derivatives                0.9101
  Calculation of matrix inversion                                 0.1920
--------------------------------------------------------------------------------
  Total CPU time                                                  9.2158
--------------------------------------------------------------------------------


  Dump file written as out.res                                                 
  CIF file written as out.cif                                                 


  Job Finished at 14:55.13  3rd December   2016                               

