********************************************************************************
*                       GENERAL UTILITY LATTICE PROGRAM                        *
*                                 Julian Gale                                  *
*                      Nanochemistry Research Institute                        *
*                           Department of Chemistry                            *
*                    Curtin University, Western Australia                      *
********************************************************************************
* Version = 4.2.0 * Last modified =  20th January 2014                         *
********************************************************************************
*  optimise     - perform optimisation run                                     *
*  conp         - constant pressure calculation                                *
*  qok          - running with non charge neutral cell is OK                   *
********************************************************************************

  Job Started  at 14:49.06  3rd December   2016                               

  Number of CPUs =     1


  Total number of configurations input =   1

********************************************************************************
*  Input for Configuration =   1                                               *
********************************************************************************

  Formula = Ge3Si57O120F6                                               

  Number of irreducible atoms/shells =     312


  Total number atoms/shells =     312

  Dimensionality = 3               :  Bulk   


  Charge on solid   =  -6.000000 =>neutralising background added


  Cartesian lattice vectors (Angstroms) :

       11.938748    0.000000    0.000000
       -5.963430   10.407890    0.000000
       -0.360843   -0.109784   29.469145

  Cell parameters (Angstroms/Degrees):

  a =      11.9387    alpha =  89.8364
  b =      11.9953    beta  =  90.7015
  c =      29.4716    gamma = 119.8115

  Initial cell volume =        3661.752690 Angs**3

  Temperature of configuration =  0.000     K 

  Pressure of configuration =         0.000 GPa 

  Fractional coordinates of asymmetric unit :

--------------------------------------------------------------------------------
   No.  Atomic       x           y          z         Charge      Occupancy
        Label      (Frac)      (Frac)     (Frac)        (e)         (Frac)  
--------------------------------------------------------------------------------
      1 Ge    c    0.699600    0.375700    0.033890     4.00000    1.000000    
      2 Si    c    0.629492 *  0.317081 *  0.364880 *   4.00000    1.000000    
      3 Si    c    0.673000 *  0.301601 *  0.697404 *   4.00000    1.000000    
      4 Si    c    0.290083 *  0.620740 *  0.530935 *   4.00000    1.000000    
      5 Si    c    0.376699 *  0.678153 *  0.863693 *   4.00000    1.000000    
      6 Si    c    0.317155 *  0.697388 *  0.196594 *   4.00000    1.000000    
      7 Si    c    0.377154 *  0.696524 *  0.296804 *   4.00000    1.000000    
      8 Si    c    0.317691 *  0.618167 *  0.963114 *   4.00000    1.000000    
      9 Si    c    0.293582 *  0.676875 *  0.631076 *   4.00000    1.000000    
     10 Si    c    0.624849 *  0.300714 *  0.798566 *   4.00000    1.000000    
     11 Ge    c    0.666887 *  0.391934 *  0.462562 *   4.00000    1.000000    
     12 Si    c    0.682798 *  0.314737 *  0.132248 *   4.00000    1.000000    
     13 Si    c    0.526935 *  0.415425 *  0.965745 *   4.00000    1.000000    
     14 Si    c    0.580796 *  0.104508 *  0.299327 *   4.00000    1.000000    
     15 Si    c    0.882882 *  0.473383 *  0.632921 *   4.00000    1.000000    
     16 Si    c    0.466773 *  0.585910 *  0.466504 *   4.00000    1.000000    
     17 Si    c    0.420366 *  0.887574 *  0.797670 *   4.00000    1.000000    
     18 Si    c    0.104400 *  0.526600 *  0.130037 *   4.00000    1.000000    
     19 Si    c    0.417354 *  0.526877 *  0.363364 *   4.00000    1.000000    
     20 Si    c    0.102659 *  0.577945 *  0.026747 *   4.00000    1.000000    
     21 Si    c    0.465960 *  0.888990 *  0.695731 *   4.00000    1.000000    
     22 Si    c    0.583011 *  0.469596 *  0.863824 *   4.00000    1.000000    
     23 Si    c    0.877333 *  0.419972 *  0.530319 *   4.00000    1.000000    
     24 Si    c    0.522878 *  0.105139 *  0.198251 *   4.00000    1.000000    
     25 Si    c    0.302777 *  0.403257 *  0.847442 *   4.00000    1.000000    
     26 Si    c    0.595525 *  0.898085 *  0.182234 *   4.00000    1.000000    
     27 Si    c    0.089371 *  0.699765 *  0.516779 *   4.00000    1.000000    
     28 Si    c    0.704241 *  0.598912 *  0.351665 *   4.00000    1.000000    
     29 Si    c    0.394057 *  0.099516 *  0.683094 *   4.00000    1.000000    
     30 Si    c    0.888538 *  0.291934 *  0.012105 *   4.00000    1.000000    
     31 Si    c    0.393997 *  0.300482 *  0.483591 *   4.00000    1.000000    
     32 Si    c    0.889026 *  0.597626 *  0.142894 *   4.00000    1.000000    
     33 Si    c    0.701137 *  0.097996 *  0.811221 *   4.00000    1.000000    
     34 Si    c    0.596491 *  0.695770 *  0.979750 *   4.00000    1.000000    
     35 Si    c    0.093710 *  0.401666 *  0.647116 *   4.00000    1.000000    
     36 Si    c    0.300433 *  0.897079 *  0.313306 *   4.00000    1.000000    
     37 Si    c    0.247556 *  0.339193 *  0.947110 *   4.00000    1.000000    
     38 Si    c    0.657855 *  0.903645 *  0.282876 *   4.00000    1.000000    
     39 Si    c    0.084951 *  0.750581 *  0.617544 *   4.00000    1.000000    
     40 Si    c    0.753085 *  0.671581 *  0.453821 *   4.00000    1.000000    
     41 Si    c    0.344922 *  0.090638 *  0.784097 *   4.00000    1.000000    
     42 Si    c    0.898868 *  0.245896 *  0.115048 *   4.00000    1.000000    
     43 Si    c    0.343202 *  0.247433 *  0.380433 *   4.00000    1.000000    
     44 Si    c    0.898179 *  0.658292 *  0.040395 *   4.00000    1.000000    
     45 Si    c    0.744827 *  0.092093 *  0.710205 *   4.00000    1.000000    
     46 Si    c    0.656410 *  0.746475 *  0.879393 *   4.00000    1.000000    
     47 Si    c    0.080862 *  0.343070 *  0.546546 *   4.00000    1.000000    
     48 Si    c    0.244389 *  0.904766 *  0.212717 *   4.00000    1.000000    
     49 Si    c    0.970468 *  0.119659 *  0.964013 *   4.00000    1.000000    
     50 Si    c    0.878492 *  0.844140 *  0.298560 *   4.00000    1.000000    
     51 Si    c    0.144394 *  0.028904 *  0.631345 *   4.00000    1.000000    
     52 Si    c    0.029177 *  0.887158 *  0.464797 *   4.00000    1.000000    
     53 Ge    c    0.121793 *  0.150225 *  0.797923 *   4.00000    1.000000    
     54 Si    c    0.843009 *  0.969089 *  0.131592 *   4.00000    1.000000    
     55 Si    c    0.124350 *  0.969209 *  0.363535 *   4.00000    1.000000    
     56 Si    c    0.846515 *  0.881003 *  0.030184 *   4.00000    1.000000    
     57 Si    c    0.022096 *  0.150811 *  0.695122 *   4.00000    1.000000    
     58 Si    c    0.875375 *  0.022893 *  0.863616 *   4.00000    1.000000    
     59 Si    c    0.141493 *  0.125607 *  0.531482 *   4.00000    1.000000    
     60 Si    c    0.964313 *  0.845111 *  0.196449 *   4.00000    1.000000    
     61 O2    c    0.928338 *  0.005374 *  0.999818 *   0.87073    1.000000    
     62 O2    c    0.003925 *  0.929367 *  0.329534 *   0.87073    1.000000    
     63 O2    c    0.063292 *  0.072719 *  0.661618 *   0.87073    1.000000    
     64 O2    c    0.074620 *  0.012744 *  0.494814 *   0.87073    1.000000    
     65 O3    c    0.996656 *  0.058855 *  0.833412 *   1.33043    1.000000    
     66 O2    c    0.924802 *  0.930774 *  0.165572 *   0.87073    1.000000    
     67 O2    c    0.341686 *  0.573466 *  0.329236 *   0.87073    1.000000    
     68 O2    c    0.418524 *  0.764451 *  0.663195 *   0.87073    1.000000    
     69 O2    c    0.229504 *  0.652737 *  0.995817 *   0.87073    1.000000    
     70 O2    c    0.661791 *  0.421948 *  0.832082 *   0.87073    1.000000    
     71 O2    c    0.571864 *  0.234451 *  0.169057 *   0.87073    1.000000    
     72 O3    c    0.755923 *  0.346293 *  0.498680 *   1.33043    1.000000    
     73 O3    c    0.566490 *  0.335762 *  0.998277 *   1.33043    1.000000    
     74 O2    c    0.757613 *  0.424830 *  0.665155 *   0.87073    1.000000    
     75 O2    c    0.660347 *  0.232887 *  0.329494 *   0.87073    1.000000    
     76 O2    c    0.411647 *  0.658580 *  0.497241 *   0.87073    1.000000    
     77 O2    c    0.229620 *  0.576144 *  0.163094 *   0.87073    1.000000    
     78 O2    c    0.341621 *  0.764282 *  0.830279 *   0.87073    1.000000    
     79 O2    c    0.124647 *  0.211379 *  0.967500 *   0.87073    1.000000    
     80 O2    c    0.785380 *  0.905127 *  0.303155 *   0.87073    1.000000    
     81 O2    c    0.084384 *  0.876038 *  0.637812 *   0.87073    1.000000    
     82 O2    c    0.874147 *  0.809440 *  0.468901 *   0.87073    1.000000    
     83 O3    c    0.221589 *  0.086871 *  0.806051 *   1.33043    1.000000    
     84 O2    c    0.902066 *  0.122697 *  0.136410 *   0.87073    1.000000    
     85 O2    c    0.218851 *  0.122609 *  0.358630 *   0.87073    1.000000    
     86 O2    c    0.915568 *  0.795970 *  0.024566 *   0.87073    1.000000    
     87 O2    c    0.868412 *  0.092138 *  0.688104 *   0.87073    1.000000    
     88 O2    c    0.781002 *  0.870039 *  0.858730 *   0.87073    1.000000    
     89 O2    c    0.074443 *  0.213013 *  0.527083 *   0.87073    1.000000    
     90 O2    c    0.118528 *  0.906524 *  0.192399 *   0.87073    1.000000    
     91 O2    c    0.924007 *  0.850178 *  0.247498 *   0.87073    1.000000    
     92 O2    c    0.127468 *  0.061994 *  0.580047 *   0.87073    1.000000    
     93 O2    c    0.925086 *  0.058592 *  0.914940 *   0.87073    1.000000    
     94 O3    c    0.055267 *  0.125322 *  0.744738 *   1.33043    1.000000    
     95 O2    c    0.857063 *  0.929425 *  0.081546 *   0.87073    1.000000    
     96 O2    c    0.071542 *  0.932002 *  0.413622 *   0.87073    1.000000    
     97 O2    c    0.901688 *  0.202221 *  0.974480 *   0.87073    1.000000    
     98 O2    c    0.799661 *  0.694905 *  0.313059 *   0.87073    1.000000    
     99 O2    c    0.296008 *  0.101145 *  0.644585 *   0.87073    1.000000    
    100 O2    c    0.090962 *  0.799207 *  0.478646 *   0.87073    1.000000    
    101 O3    c    0.207395 *  0.312793 *  0.807809 *   1.33043    1.000000    
    102 O2    c    0.691297 *  0.897814 *  0.143690 *   0.87073    1.000000    
    103 O2    c    0.204208 *  0.896833 *  0.351810 *   0.87073    1.000000    
    104 O2    c    0.694468 *  0.796621 *  0.017928 *   0.87073    1.000000    
    105 O2    c    0.094896 *  0.303867 *  0.685323 *   0.87073    1.000000    
    106 O2    c    0.800462 *  0.099112 *  0.849562 *   0.87073    1.000000    
    107 O2    c    0.292544 *  0.213594 *  0.521664 *   0.87073    1.000000    
    108 O2    c    0.893579 *  0.696098 *  0.181474 *   0.87073    1.000000    
    109 O2    c    0.317751 *  0.638117 *  0.246552 *   0.87073    1.000000    
    110 O2    c    0.352044 *  0.677001 *  0.581048 *   0.87073    1.000000    
    111 O2    c    0.317028 *  0.678406 *  0.913420 *   0.87073    1.000000    
    112 O2    c    0.677502 *  0.358352 *  0.748137 *   0.87073    1.000000    
    113 O3    c    0.612258 *  0.303488 *  0.085040 *   1.33043    1.000000    
    114 O3    c    0.687395 *  0.314512 *  0.412938 *   1.33043    1.000000    
    115 O2    c    0.369765 *  0.330138 *  0.965719 *   0.87073    1.000000    
    116 O2    c    0.667233 *  0.034284 *  0.302192 *   0.87073    1.000000    
    117 O2    c    0.953853 *  0.629287 *  0.636327 *   0.87073    1.000000    
    118 O2    c    0.622750 *  0.674907 *  0.467831 *   0.87073    1.000000    
    119 O2    c    0.334986 *  0.957697 *  0.800910 *   0.87073    1.000000    
    120 O2    c    0.031279 *  0.371236 *  0.132127 *   0.87073    1.000000    
    121 O2    c    0.336100 *  0.371453 *  0.362045 *   0.87073    1.000000    
    122 O2    c    0.031919 *  0.663129 *  0.025407 *   0.87073    1.000000    
    123 O2    c    0.622142 *  0.959836 *  0.692231 *   0.87073    1.000000    
    124 O2    c    0.667434 *  0.625224 *  0.861019 *   0.87073    1.000000    
    125 O2    c    0.948852 *  0.333973 *  0.528768 *   0.87073    1.000000    
    126 O2    c    0.366449 *  0.035860 *  0.194623 *   0.87073    1.000000    
    127 O3    c    0.754207 *  0.283279 *  0.002830 *   1.33043    1.000000    
    128 O2    c    0.701783 *  0.464279 *  0.344578 *   0.87073    1.000000    
    129 O2    c    0.528047 *  0.233055 *  0.675517 *   0.87073    1.000000    
    130 O2    c    0.223402 *  0.698527 *  0.508947 *   0.87073    1.000000    
    131 O2    c    0.302557 *  0.536955 *  0.840315 *   0.87073    1.000000    
    132 O2    c    0.459941 *  0.765384 *  0.174297 *   0.87073    1.000000    
    133 O2    c    0.302416 *  0.763696 *  0.320025 *   0.87073    1.000000    
    134 O2    c    0.460710 *  0.694393 *  0.986618 *   0.87073    1.000000    
    135 O2    c    0.227857 *  0.535692 *  0.654789 *   0.87073    1.000000    
    136 O2    c    0.701365 *  0.231670 *  0.819764 *   0.87073    1.000000    
    137 O3    c    0.521410 *  0.296364 *  0.493567 *   1.33043    1.000000    
    138 O2    c    0.757627 *  0.463275 *  0.151288 *   0.87073    1.000000    
    139 O3    c    0.772615 *  0.545432 *  0.018692 *   1.33043    1.000000    
    140 O2    c    0.471941 *  0.251780 *  0.362614 *   0.87073    1.000000    
    141 O2    c    0.745719 *  0.218935 *  0.691538 *   0.87073    1.000000    
    142 O2    c    0.208415 *  0.465026 *  0.525809 *   0.87073    1.000000    
    143 O2    c    0.532582 *  0.751614 *  0.859880 *   0.87073    1.000000    
    144 O2    c    0.241102 *  0.777773 *  0.192806 *   0.87073    1.000000    
    145 O2    c    0.533575 *  0.775797 *  0.301648 *   0.87073    1.000000    
    146 O2    c    0.241949 *  0.462376 *  0.966843 *   0.87073    1.000000    
    147 O2    c    0.213382 *  0.752954 *  0.636444 *   0.87073    1.000000    
    148 O2    c    0.469663 *  0.217850 *  0.803734 *   0.87073    1.000000    
    149 O3    c    0.764774 *  0.560254 *  0.477486 *   1.33043    1.000000    
    150 O2    c    0.775869 *  0.250500 *  0.134381 *   0.87073    1.000000    
    151 O2    c    0.227251 *  0.322695 *  0.892493 *   0.87073    1.000000    
    152 O2    c    0.672461 *  0.902482 *  0.228473 *   0.87073    1.000000    
    153 O2    c    0.084837 *  0.769123 *  0.563180 *   0.87073    1.000000    
    154 O2    c    0.768884 *  0.670624 *  0.398706 *   0.87073    1.000000    
    155 O2    c    0.322197 *  0.096646 *  0.729783 *   0.87073    1.000000    
    156 O2    c    0.895559 *  0.229745 *  0.060898 *   0.87073    1.000000    
    157 O2    c    0.327543 *  0.235054 *  0.434614 *   0.87073    1.000000    
    158 O2    c    0.890237 *  0.665068 *  0.095751 *   0.87073    1.000000    
    159 O2    c    0.770162 *  0.095276 *  0.764493 *   0.87073    1.000000    
    160 O2    c    0.672875 *  0.764628 *  0.933853 *   0.87073    1.000000    
    161 O2    c    0.088937 *  0.327255 *  0.600766 *   0.87073    1.000000    
    162 O2    c    0.228363 *  0.902520 *  0.267104 *   0.87073    1.000000    
    163 O2    c    0.579307 *  0.556287 *  0.989112 *   0.87073    1.000000    
    164 O2    c    0.440493 *  0.021253 *  0.322632 *   0.87073    1.000000    
    165 O2    c    0.968595 *  0.416563 *  0.655680 *   0.87073    1.000000    
    166 O2    c    0.417481 *  0.445822 *  0.487834 *   0.87073    1.000000    
    167 O2    c    0.563549 *  0.971432 *  0.819969 *   0.87073    1.000000    
    168 O2    c    0.012737 *  0.578387 *  0.149287 *   0.87073    1.000000    
    169 O2    c    0.561108 *  0.578511 *  0.344561 *   0.87073    1.000000    
    170 O2    c    0.011039 *  0.436141 *  0.006399 *   0.87073    1.000000    
    171 O2    c    0.406433 *  0.973429 *  0.674117 *   0.87073    1.000000    
    172 O2    c    0.441689 *  0.414007 *  0.840181 *   0.87073    1.000000    
    173 O2    c    0.966284 *  0.561114 *  0.507527 *   0.87073    1.000000    
    174 O2    c    0.580391 *  0.023035 *  0.174024 *   0.87073    1.000000    
    175 O2    c    0.577396 *  0.155723 *  0.248887 *   0.87073    1.000000    
    176 O2    c    0.830960 *  0.424137 *  0.581931 *   0.87073    1.000000    
    177 O2    c    0.582717 *  0.419815 *  0.914995 *   0.87073    1.000000    
    178 O2    c    0.417490 *  0.834849 *  0.746634 *   0.87073    1.000000    
    179 O2    c    0.149230 *  0.573929 *  0.078736 *   0.87073    1.000000    
    180 O2    c    0.417689 *  0.577838 *  0.414115 *   0.87073    1.000000    
    181 F     c    0.446571 *  0.894494 *  0.247808 *   0.56000    1.000000    
    182 F     c    0.098275 *  0.552965 *  0.582058 *   0.56000    1.000000    
    183 F     c    0.444031 *  0.548863 *  0.913411 *   0.56000    1.000000    
    184 F     c    0.547661 *  0.098779 *  0.747408 *   0.56000    1.000000    
    185 F     c    0.850080 *  0.432374 *  0.070848 *   0.56000    1.000000    
    186 F     c    0.574727 *  0.442499 *  0.424322 *   0.56000    1.000000    
    187 O2    s    0.923732 *  0.004003 *  0.999279 *  -2.87073    1.000000    
    188 O2    s    0.003197 *  0.924275 *  0.329819 *  -2.87073    1.000000    
    189 O2    s    0.067998 *  0.076390 *  0.661865 *  -2.87073    1.000000    
    190 O2    s    0.076956 *  0.011008 *  0.495497 *  -2.87073    1.000000    
    191 O3    s    0.994181 *  0.062825 *  0.833645 *  -3.33043    1.000000    
    192 O2    s    0.920236 *  0.925462 *  0.165285 *  -2.87073    1.000000    
    193 O2    s    0.353180 *  0.581006 *  0.329522 *  -2.87073    1.000000    
    194 O2    s    0.410641 *  0.768383 *  0.663267 *  -2.87073    1.000000    
    195 O2    s    0.224836 *  0.641390 *  0.995839 *  -2.87073    1.000000    
    196 O2    s    0.650051 *  0.414464 *  0.831888 *  -2.87073    1.000000    
    197 O2    s    0.578162 *  0.228952 *  0.168354 *  -2.87073    1.000000    
    198 O3    s    0.762849 *  0.357686 *  0.499537 *  -3.33043    1.000000    
    199 O3    s    0.572313 *  0.347159 *  0.997532 *  -3.33043    1.000000    
    200 O2    s    0.761702 *  0.417188 *  0.665183 *  -2.87073    1.000000    
    201 O2    s    0.648681 *  0.227896 *  0.329933 *  -2.87073    1.000000    
    202 O2    s    0.405510 *  0.647120 *  0.497304 *  -2.87073    1.000000    
    203 O2    s    0.225389 *  0.583202 *  0.163039 *  -2.87073    1.000000    
    204 O2    s    0.353399 *  0.768112 *  0.830375 *  -2.87073    1.000000    
    205 O2    s    0.120551 *  0.214530 *  0.965061 *  -2.87073    1.000000    
    206 O2    s    0.782021 *  0.898442 *  0.300570 *  -2.87073    1.000000    
    207 O2    s    0.090820 *  0.879340 *  0.635064 *  -2.87073    1.000000    
    208 O2    s    0.878137 *  0.803499 *  0.466919 *  -2.87073    1.000000    
    209 O3    s    0.225724 *  0.092555 *  0.803171 *  -3.33043    1.000000    
    210 O2    s    0.895538 *  0.119346 *  0.133721 *  -2.87073    1.000000    
    211 O2    s    0.221809 *  0.119437 *  0.361378 *  -2.87073    1.000000    
    212 O2    s    0.906354 *  0.791095 *  0.026766 *  -2.87073    1.000000    
    213 O2    s    0.871756 *  0.098345 *  0.691118 *  -2.87073    1.000000    
    214 O2    s    0.777867 *  0.873297 *  0.861426 *  -2.87073    1.000000    
    215 O2    s    0.082346 *  0.216712 *  0.529507 *  -2.87073    1.000000    
    216 O2    s    0.115175 *  0.899771 *  0.194931 *  -2.87073    1.000000    
    217 O2    s    0.923409 *  0.848926 *  0.247504 *  -2.87073    1.000000    
    218 O2    s    0.130956 *  0.065572 *  0.580234 *  -2.87073    1.000000    
    219 O2    s    0.924797 *  0.061704 *  0.914914 *  -2.87073    1.000000    
    220 O3    s    0.057526 *  0.130298 *  0.744020 *  -3.33043    1.000000    
    221 O2    s    0.854256 *  0.928705 *  0.081705 *  -2.87073    1.000000    
    222 O2    s    0.072994 *  0.931364 *  0.413461 *  -2.87073    1.000000    
    223 O2    s    0.907885 *  0.202759 *  0.977370 *  -2.87073    1.000000    
    224 O2    s    0.798243 *  0.700911 *  0.315483 *  -2.87073    1.000000    
    225 O2    s    0.289875 *  0.093328 *  0.647080 *  -2.87073    1.000000    
    226 O2    s    0.084134 *  0.798680 *  0.480991 *  -2.87073    1.000000    
    227 O3    s    0.209481 *  0.308051 *  0.810803 *  -3.33043    1.000000    
    228 O2    s    0.697361 *  0.905316 *  0.146397 *  -2.87073    1.000000    
    229 O2    s    0.205705 *  0.904433 *  0.349077 *  -2.87073    1.000000    
    230 O2    s    0.700721 *  0.795473 *  0.015422 *  -2.87073    1.000000    
    231 O2    s    0.087273 *  0.297904 *  0.682506 *  -2.87073    1.000000    
    232 O2    s    0.798199 *  0.090998 *  0.847105 *  -2.87073    1.000000    
    233 O2    s    0.286854 *  0.213332 *  0.518626 *  -2.87073    1.000000    
    234 O2    s    0.900656 *  0.701860 *  0.179092 *  -2.87073    1.000000    
    235 O2    s    0.323665 *  0.649972 *  0.246574 *  -2.87073    1.000000    
    236 O2    s    0.339900 *  0.671238 *  0.580943 *  -2.87073    1.000000    
    237 O2    s    0.323034 *  0.672261 *  0.913498 *  -2.87073    1.000000    
    238 O2    s    0.671718 *  0.346790 *  0.748122 *  -2.87073    1.000000    
    239 O3    s    0.625407 *  0.309489 *  0.086486 *  -3.33043    1.000000    
    240 O3    s    0.679868 *  0.319761 *  0.410932 *  -3.33043    1.000000    
    241 O2    s    0.372222 *  0.339809 *  0.963648 *  -2.87073    1.000000    
    242 O2    s    0.657311 *  0.027719 *  0.299854 *  -2.87073    1.000000    
    243 O2    s    0.960343 *  0.626064 *  0.634007 *  -2.87073    1.000000    
    244 O2    s    0.619599 *  0.665346 *  0.466276 *  -2.87073    1.000000    
    245 O2    s    0.345165 *  0.964405 *  0.798751 *  -2.87073    1.000000    
    246 O2    s    0.025248 *  0.374501 *  0.130151 *  -2.87073    1.000000    
    247 O2    s    0.345309 *  0.374891 *  0.364080 *  -2.87073    1.000000    
    248 O2    s    0.026010 *  0.653657 *  0.027053 *  -2.87073    1.000000    
    249 O2    s    0.618946 *  0.966513 *  0.694511 *  -2.87073    1.000000    
    250 O2    s    0.657533 *  0.621866 *  0.863250 *  -2.87073    1.000000    
    251 O2    s    0.956250 *  0.343581 *  0.530893 *  -2.87073    1.000000    
    252 O2    s    0.369625 *  0.029072 *  0.196923 *  -2.87073    1.000000    
    253 O3    s    0.764936 *  0.290348 *  0.005962 *  -3.33043    1.000000    
    254 O2    s    0.695105 *  0.464461 *  0.347300 *  -2.87073    1.000000    
    255 O2    s    0.528947 *  0.226182 *  0.678583 *  -2.87073    1.000000    
    256 O2    s    0.216478 *  0.690700 *  0.512033 *  -2.87073    1.000000    
    257 O2    s    0.310330 *  0.537578 *  0.843563 *  -2.87073    1.000000    
    258 O2    s    0.459293 *  0.772126 *  0.177448 *  -2.87073    1.000000    
    259 O2    s    0.309873 *  0.770682 *  0.316904 *  -2.87073    1.000000    
    260 O2    s    0.460041 *  0.686784 *  0.983500 *  -2.87073    1.000000    
    261 O2    s    0.220540 *  0.536051 *  0.651547 *  -2.87073    1.000000    
    262 O2    s    0.693502 *  0.224848 *  0.816661 *  -2.87073    1.000000    
    263 O3    s    0.517297 *  0.303230 *  0.490332 *  -3.33043    1.000000    
    264 O2    s    0.764233 *  0.463038 *  0.148515 *  -2.87073    1.000000    
    265 O3    s    0.782078 *  0.547337 *  0.021986 *  -3.33043    1.000000    
    266 O2    s    0.473417 *  0.257844 *  0.364789 *  -2.87073    1.000000    
    267 O2    s    0.737849 *  0.213779 *  0.694163 *  -2.87073    1.000000    
    268 O2    s    0.203447 *  0.468309 *  0.528473 *  -2.87073    1.000000    
    269 O2    s    0.529647 *  0.743179 *  0.862407 *  -2.87073    1.000000    
    270 O2    s    0.249452 *  0.783000 *  0.195316 *  -2.87073    1.000000    
    271 O2    s    0.530597 *  0.781282 *  0.299156 *  -2.87073    1.000000    
    272 O2    s    0.250425 *  0.465581 *  0.964405 *  -2.87073    1.000000    
    273 O2    s    0.207623 *  0.744722 *  0.633856 *  -2.87073    1.000000    
    274 O2    s    0.472746 *  0.212896 *  0.801092 *  -2.87073    1.000000    
    275 O3    s    0.756968 *  0.561441 *  0.473978 *  -3.33043    1.000000    
    276 O2    s    0.780100 *  0.256480 *  0.132053 *  -2.87073    1.000000    
    277 O2    s    0.236812 *  0.332340 *  0.893618 *  -2.87073    1.000000    
    278 O2    s    0.662853 *  0.902136 *  0.229415 *  -2.87073    1.000000    
    279 O2    s    0.085329 *  0.759890 *  0.564038 *  -2.87073    1.000000    
    280 O2    s    0.760251 *  0.662813 *  0.398994 *  -2.87073    1.000000    
    281 O2    s    0.331915 *  0.096391 *  0.730464 *  -2.87073    1.000000    
    282 O2    s    0.895200 *  0.237598 *  0.062010 *  -2.87073    1.000000    
    283 O2    s    0.335738 *  0.242793 *  0.433542 *  -2.87073    1.000000    
    284 O2    s    0.890801 *  0.656889 *  0.095538 *  -2.87073    1.000000    
    285 O2    s    0.760435 *  0.095261 *  0.763700 *  -2.87073    1.000000    
    286 O2    s    0.663125 *  0.755483 *  0.932924 *  -2.87073    1.000000    
    287 O2    s    0.088627 *  0.336736 *  0.599889 *  -2.87073    1.000000    
    288 O2    s    0.237590 *  0.902185 *  0.266148 *  -2.87073    1.000000    
    289 O2    s    0.575660 *  0.557471 *  0.985727 *  -2.87073    1.000000    
    290 O2    s    0.440087 *  0.016457 *  0.319214 *  -2.87073    1.000000    
    291 O2    s    0.973301 *  0.421049 *  0.652395 *  -2.87073    1.000000    
    292 O2    s    0.420647 *  0.446209 *  0.485050 *  -2.87073    1.000000    
    293 O2    s    0.563441 *  0.976499 *  0.816679 *  -2.87073    1.000000    
    294 O2    s    0.009244 *  0.574785 *  0.146544 *  -2.87073    1.000000    
    295 O2    s    0.561054 *  0.575067 *  0.347335 *  -2.87073    1.000000    
    296 O2    s    0.008245 *  0.436772 *  0.009213 *  -2.87073    1.000000    
    297 O2    s    0.411473 *  0.978362 *  0.677342 *  -2.87073    1.000000    
    298 O2    s    0.441605 *  0.418796 *  0.843426 *  -2.87073    1.000000    
    299 O2    s    0.971340 *  0.562419 *  0.510846 *  -2.87073    1.000000    
    300 O2    s    0.575882 *  0.017983 *  0.177408 *  -2.87073    1.000000    
    301 O2    s    0.571850 *  0.144684 *  0.248871 *  -2.87073    1.000000    
    302 O2    s    0.841195 *  0.429013 *  0.582196 *  -2.87073    1.000000    
    303 O2    s    0.577171 *  0.424645 *  0.914698 *  -2.87073    1.000000    
    304 O2    s    0.422790 *  0.845877 *  0.746670 *  -2.87073    1.000000    
    305 O2    s    0.139788 *  0.569294 *  0.078969 *  -2.87073    1.000000    
    306 O2    s    0.422604 *  0.573277 *  0.414044 *  -2.87073    1.000000    
    307 F     s    0.446233 *  0.893795 *  0.247818 *  -1.56000    1.000000    
    308 F     s    0.099636 *  0.553553 *  0.582118 *  -1.56000    1.000000    
    309 F     s    0.443257 *  0.549268 *  0.913349 *  -1.56000    1.000000    
    310 F     s    0.547835 *  0.099209 *  0.747436 *  -1.56000    1.000000    
    311 F     s    0.840185 *  0.428629 *  0.068644 *  -1.56000    1.000000    
    312 F     s    0.581522 *  0.438936 *  0.426945 *  -1.56000    1.000000    
--------------------------------------------------------------------------------



********************************************************************************
*  General input information                                                   *
********************************************************************************

  Species output for all configurations : 

--------------------------------------------------------------------------------
  Species    Type    Atomic    Atomic    Charge       Radii (Angs)     Library
                     Number     Mass       (e)     Cova   Ionic  VDW   Symbol
--------------------------------------------------------------------------------
    Si       Core       14      28.09   4.000000   1.200  0.000  2.100          
    O1       Core        8      16.00   1.733957   0.730  0.000  1.360          
    O1       Shell       8       0.00  -3.733957   0.730  0.000  1.360          
    O2       Core        8      16.00   0.870733   0.730  0.000  1.360          
    O2       Shell       8       0.00  -2.870733   0.730  0.000  1.360          
    O3       Core        8      16.00   1.330431   0.730  0.000  1.360          
    O3       Shell       8       0.00  -3.330431   0.730  0.000  1.360          
    F        Core        9      19.00   0.560000   0.710  0.000  1.300          
    F        Shell       9       0.00  -1.560000   0.710  0.000  1.300          
    Ge       Core       32      72.61   4.000000   1.170  0.000  1.750          
--------------------------------------------------------------------------------


  Lattice summation method               =    Ewald          (3-D)
                                         =    Parry          (2-D)
                                         =    Saunders et al (1-D)
  Accuracy factor for lattice sums       =   12.000


  Time limit = Infinity

  Maximum range for interatomic potentials =        16.000000 Angstroms

  Taper potentials to zero over   1.0000 Angstroms using polynomial

  General interatomic potentials :

--------------------------------------------------------------------------------
Atom  Types   Potential         A         B         C         D     Cutoffs(Ang)
  1     2                                                            Min    Max 
--------------------------------------------------------------------------------
Si   c O1   s Buckingham    0.132E+04 0.318      10.1      0.00     0.000 16.000
Si   c O2   s Buckingham    0.132E+04 0.318      10.1      0.00     0.000 16.000
Si   c O3   s Buckingham    0.132E+04 0.318      10.1      0.00     0.000 16.000
Ge   c O1   s Buckingham    0.150E+04 0.326      16.8      0.00     0.000 16.000
Ge   c O2   s Buckingham    0.150E+04 0.326      16.8      0.00     0.000 16.000
Ge   c O3   s Buckingham    0.150E+04 0.326      16.8      0.00     0.000 16.000
O1   s O1   s Buckingham    0.228E+05 0.149      10.9      0.00     0.000 16.000
O1   s O2   s Buckingham    0.228E+05 0.149      10.9      0.00     0.000 16.000
O1   s O3   s Buckingham    0.228E+05 0.149      10.9      0.00     0.000 16.000
O2   s O2   s Buckingham    0.228E+05 0.149      10.9      0.00     0.000 16.000
O2   s O3   s Buckingham    0.228E+05 0.149      10.9      0.00     0.000 16.000
O3   s O3   s Buckingham    0.228E+05 0.149      10.9      0.00     0.000 16.000
Si   c F    s Buckingham     977.     0.282      0.00      0.00     0.000 16.000
Ge   c F    s Buckingham     681.     0.320      0.00      0.00     0.000 16.000
F    s F    s Buckingham     540.     0.262      0.00      0.00     0.000 16.000
O1   s F    s Buckingham    0.168E+04 0.268      0.00      0.00     0.000 16.000
O2   s F    s Buckingham    0.168E+04 0.268      0.00      0.00     0.000 16.000
O3   s F    s Buckingham    0.168E+04 0.268      0.00      0.00     0.000 16.000
O2   c O2   s Spring (c-s)   76.0      0.00      0.00      0.00     0.000  0.800
O3   c O3   s Spring (c-s)   128.      0.00      0.00      0.00     0.000  0.800
O1   c O1   s Spring (c-s)   180.      0.00      0.00      0.00     0.000  0.800
F    c F    s Spring (c-s)   33.5      0.00      0.00      0.00     0.000  0.800
--------------------------------------------------------------------------------

  General Three-body potentials :

  Harmonic form:

--------------------------------------------------------------------------------
Atom    Atom    Atom           Force Constants            Theta     Cutoffs  
  1       2       3     (eVrad**-2/eVrad**-3/eVrad**-4)   (deg)  1-2  1-3  2-3
--------------------------------------------------------------------------------
Si    c O1    s O1    s  1.261        0.0000    0.0000   109.470 0.00 0.00 0.00
                                                                 1.90 1.90 3.50
Si    c O1    s O2    s  1.261        0.0000    0.0000   109.470 0.00 0.00 0.00
                                                                 1.90 1.90 3.50
Si    c O2    s O2    s  1.261        0.0000    0.0000   109.470 0.00 0.00 0.00
                                                                 1.90 1.90 3.50
--------------------------------------------------------------------------------

********************************************************************************
*  Output for configuration   1                                                *
********************************************************************************


  Components of energy : 

--------------------------------------------------------------------------------
  Interatomic potentials     =        2063.72040824 eV
  Three-body potentials      =           0.46750266 eV
  Monopole - monopole (real) =       -6614.60534438 eV
  Monopole - monopole (recip)=       -3169.91640401 eV
  Monopole - monopole (total)=       -9784.52174839 eV
  Neutralising energy        =          -6.45712126 eV
--------------------------------------------------------------------------------
  Total lattice energy       =       -7726.79095875 eV
--------------------------------------------------------------------------------
  Total lattice energy       =         -745517.2127 kJ/(mole unit cells)
--------------------------------------------------------------------------------


  Number of variables =      939

  Maximum number of calculations  =          1000
  Maximum Hessian update interval =            10
  Maximum step size               =   1.000000000
  Maximum parameter tolerance     =   0.000010000
  Maximum function  tolerance     =   0.000010000
  Maximum gradient  tolerance     =   0.001000000
  Maximum gradient  component     =   0.010000000

  Symmetry not applied to optimisation

  Cell parameters to be optimised using strains

  Newton-Raphson optimiser to be used

  BFGS hessian update to be used

  Dumpfile to be written after every cycle

  Start of bulk optimisation :

  Cycle:      0 Energy:     -7726.790959  Gnorm:      0.000836  CPU:    1.059
  ** Hessian calculated **
  Cycle:      1 Energy:     -7726.864253  Gnorm:      0.005976  CPU:    3.291
  Cycle:      2 Energy:     -7726.866645  Gnorm:      0.000944  CPU:    5.000
  Cycle:      3 Energy:     -7726.866690  Gnorm:      0.000165  CPU:    6.463
  Cycle:      4 Energy:     -7726.866692  Gnorm:      0.000050  CPU:    7.842


  **** Optimisation achieved ****


  Final energy =   -7726.86669217 eV
  Final Gnorm  =       0.00000597

  Components of energy : 

--------------------------------------------------------------------------------
  Interatomic potentials     =        2063.93190552 eV
  Three-body potentials      =           0.46791735 eV
  Monopole - monopole (real) =       -6615.90303325 eV
  Monopole - monopole (recip)=       -3168.90841077 eV
  Monopole - monopole (total)=       -9784.81144402 eV
  Neutralising energy        =          -6.45507101 eV
--------------------------------------------------------------------------------
  Total lattice energy       =       -7726.86669217 eV
--------------------------------------------------------------------------------
  Total lattice energy       =         -745524.5198 kJ/(mole unit cells)
--------------------------------------------------------------------------------

  Final fractional coordinates of atoms :

--------------------------------------------------------------------------------
   No.  Atomic        x           y          z          Radius
        Label       (Frac)      (Frac)     (Frac)       (Angs) 
--------------------------------------------------------------------------------
     1  Ge    c     0.699600    0.375700    0.033890    0.000000
     2  Si    c     0.605509    0.303237    0.365228    0.000000
     3  Si    c     0.652491    0.287402    0.697568    0.000000
     4  Si    c     0.269665    0.607937    0.532601    0.000000
     5  Si    c     0.360111    0.666541    0.865501    0.000000
     6  Si    c     0.296694    0.684225    0.198665    0.000000
     7  Si    c     0.356102    0.685288    0.298943    0.000000
     8  Si    c     0.305791    0.605523    0.965164    0.000000
     9  Si    c     0.272738    0.663854    0.632766    0.000000
    10  Si    c     0.607011    0.289190    0.798814    0.000000
    11  Ge    c     0.644611    0.376715    0.463099    0.000000
    12  Si    c     0.664395    0.302442    0.131779    0.000000
    13  Si    c     0.517333    0.404471    0.966009    0.000000
    14  Si    c     0.558213    0.092604    0.299064    0.000000
    15  Si    c     0.861888    0.459936    0.633125    0.000000
    16  Si    c     0.445619    0.571425    0.468543    0.000000
    17  Si    c     0.402388    0.876190    0.799620    0.000000
    18  Si    c     0.086063    0.512072    0.132640    0.000000
    19  Si    c     0.394697    0.513928    0.365374    0.000000
    20  Si    c     0.093637    0.569408    0.029484    0.000000
    21  Si    c     0.445725    0.875547    0.697487    0.000000
    22  Si    c     0.567540    0.459727    0.863600    0.000000
    23  Si    c     0.857274    0.407461    0.530475    0.000000
    24  Si    c     0.500846    0.091702    0.197650    0.000000
    25  Si    c     0.287019    0.392626    0.848313    0.000000
    26  Si    c     0.573797    0.884261    0.182971    0.000000
    27  Si    c     0.069558    0.687154    0.517792    0.000000
    28  Si    c     0.680980    0.585619    0.352963    0.000000
    29  Si    c     0.373511    0.085716    0.684108    0.000000
    30  Si    c     0.881130    0.284167    0.012914    0.000000
    31  Si    c     0.372517    0.285652    0.484829    0.000000
    32  Si    c     0.871409    0.584172    0.144625    0.000000
    33  Si    c     0.683156    0.086604    0.812482    0.000000
    34  Si    c     0.585102    0.684044    0.980341    0.000000
    35  Si    c     0.072525    0.388327    0.648014    0.000000
    36  Si    c     0.278569    0.885677    0.314116    0.000000
    37  Si    c     0.237183    0.327693    0.948289    0.000000
    38  Si    c     0.635971    0.891822    0.283815    0.000000
    39  Si    c     0.063881    0.737117    0.618544    0.000000
    40  Si    c     0.731497    0.656726    0.455206    0.000000
    41  Si    c     0.327244    0.079304    0.785308    0.000000
    42  Si    c     0.880981    0.232821    0.116137    0.000000
    43  Si    c     0.319940    0.234247    0.381571    0.000000
    44  Si    c     0.893172    0.655261    0.042421    0.000000
    45  Si    c     0.724539    0.078377    0.711303    0.000000
    46  Si    c     0.640465    0.735817    0.879739    0.000000
    47  Si    c     0.060571    0.330255    0.547426    0.000000
    48  Si    c     0.223027    0.891202    0.213265    0.000000
    49  Si    c     0.959692    0.109800    0.964644    0.000000
    50  Si    c     0.855694    0.830987    0.299680    0.000000
    51  Si    c     0.123259    0.015033    0.632532    0.000000
    52  Si    c     0.007322    0.873434    0.466009    0.000000
    53  Ge    c     0.105018    0.140110    0.798952    0.000000
    54  Si    c     0.821645    0.955078    0.132811    0.000000
    55  Si    c     0.101546    0.956532    0.364610    0.000000
    56  Si    c     0.834154    0.872148    0.031454    0.000000
    57  Si    c     0.001842    0.137607    0.696300    0.000000
    58  Si    c     0.858732    0.012643    0.864650    0.000000
    59  Si    c     0.119760    0.111555    0.532529    0.000000
    60  Si    c     0.942394    0.829940    0.197799    0.000000
    61  O2    c     0.914990    0.996656    0.001129    0.000000
    62  O2    c     0.980873    0.915920    0.330700    0.000000
    63  O2    c     0.043030    0.059334    0.662972    0.000000
    64  O2    c     0.051438    0.998709    0.495992    0.000000
    65  O3    c     0.979923    0.049266    0.834469    0.000000
    66  O2    c     0.901383    0.914294    0.166791    0.000000
    67  O2    c     0.319808    0.562628    0.331713    0.000000
    68  O2    c     0.396982    0.750519    0.665205    0.000000
    69  O2    c     0.221156    0.641980    0.998925    0.000000
    70  O2    c     0.645290    0.411967    0.831468    0.000000
    71  O2    c     0.550369    0.219812    0.167496    0.000000
    72  O3    c     0.736410    0.332920    0.498688    0.000000
    73  O3    c     0.564598    0.330594    0.997805    0.000000
    74  O2    c     0.735954    0.410202    0.664995    0.000000
    75  O2    c     0.636640    0.221096    0.329090    0.000000
    76  O2    c     0.391810    0.644951    0.499335    0.000000
    77  O2    c     0.209539    0.560598    0.166319    0.000000
    78  O2    c     0.324214    0.753521    0.832637    0.000000
    79  O2    c     0.114166    0.198116    0.967937    0.000000
    80  O2    c     0.763751    0.893388    0.303914    0.000000
    81  O2    c     0.062986    0.862168    0.638902    0.000000
    82  O2    c     0.852541    0.794140    0.470331    0.000000
    83  O3    c     0.204607    0.076662    0.807329    0.000000
    84  O2    c     0.881000    0.108438    0.137965    0.000000
    85  O2    c     0.195043    0.110040    0.359913    0.000000
    86  O2    c     0.910048    0.792989    0.027339    0.000000
    87  O2    c     0.848117    0.077972    0.689446    0.000000
    88  O2    c     0.764303    0.860226    0.859188    0.000000
    89  O2    c     0.054386    0.200461    0.527990    0.000000
    90  O2    c     0.096434    0.892042    0.193176    0.000000
    91  O2    c     0.902052    0.835664    0.248794    0.000000
    92  O2    c     0.105456    0.048224    0.581254    0.000000
    93  O2    c     0.909723    0.047392    0.915990    0.000000
    94  O3    c     0.037268    0.114167    0.745925    0.000000
    95  O2    c     0.837933    0.918514    0.082614    0.000000
    96  O2    c     0.048725    0.918345    0.414705    0.000000
    97  O2    c     0.895677    0.196602    0.975069    0.000000
    98  O2    c     0.775767    0.682037    0.314311    0.000000
    99  O2    c     0.274795    0.086556    0.645648    0.000000
   100  O2    c     0.071152    0.787144    0.479743    0.000000
   101  O3    c     0.190357    0.302445    0.808937    0.000000
   102  O2    c     0.669708    0.883812    0.144498    0.000000
   103  O2    c     0.182577    0.885712    0.352594    0.000000
   104  O2    c     0.683803    0.784272    0.018305    0.000000
   105  O2    c     0.073535    0.290387    0.686268    0.000000
   106  O2    c     0.783164    0.088603    0.850854    0.000000
   107  O2    c     0.270891    0.197794    0.522722    0.000000
   108  O2    c     0.872997    0.680731    0.183331    0.000000
   109  O2    c     0.297224    0.626062    0.248850    0.000000
   110  O2    c     0.331283    0.664164    0.582743    0.000000
   111  O2    c     0.301939    0.665694    0.915632    0.000000
   112  O2    c     0.658224    0.345245    0.748105    0.000000
   113  O3    c     0.603074    0.298744    0.083695    0.000000
   114  O3    c     0.663326    0.299081    0.413204    0.000000
   115  O2    c     0.359932    0.318895    0.966638    0.000000
   116  O2    c     0.645148    0.022903    0.302388    0.000000
   117  O2    c     0.932501    0.615584    0.636926    0.000000
   118  O2    c     0.601431    0.659982    0.469535    0.000000
   119  O2    c     0.317215    0.946590    0.802583    0.000000
   120  O2    c     0.012400    0.356829    0.134354    0.000000
   121  O2    c     0.312901    0.358708    0.363535    0.000000
   122  O2    c     0.026442    0.658233    0.028248    0.000000
   123  O2    c     0.601728    0.946049    0.693647    0.000000
   124  O2    c     0.651523    0.615298    0.860763    0.000000
   125  O2    c     0.929141    0.321730    0.529300    0.000000
   126  O2    c     0.344352    0.021922    0.194427    0.000000
   127  O3    c     0.749360    0.279640    0.002930    0.000000
   128  O2    c     0.677988    0.451009    0.345454    0.000000
   129  O2    c     0.507366    0.218631    0.675926    0.000000
   130  O2    c     0.203773    0.686192    0.510174    0.000000
   131  O2    c     0.285455    0.525925    0.841886    0.000000
   132  O2    c     0.438582    0.751325    0.175731    0.000000
   133  O2    c     0.281348    0.752969    0.321614    0.000000
   134  O2    c     0.449389    0.681939    0.987983    0.000000
   135  O2    c     0.206239    0.522124    0.656091    0.000000
   136  O2    c     0.683633    0.220499    0.820367    0.000000
   137  O3    c     0.499747    0.280728    0.494375    0.000000
   138  O2    c     0.739514    0.450007    0.151846    0.000000
   139  O3    c     0.769903    0.543729    0.018907    0.000000
   140  O2    c     0.448107    0.238473    0.363265    0.000000
   141  O2    c     0.725184    0.204634    0.691980    0.000000
   142  O2    c     0.188437    0.452473    0.527109    0.000000
   143  O2    c     0.515751    0.740502    0.860929    0.000000
   144  O2    c     0.219878    0.763882    0.193907    0.000000
   145  O2    c     0.512405    0.764962    0.303468    0.000000
   146  O2    c     0.230628    0.449637    0.968819    0.000000
   147  O2    c     0.191952    0.739318    0.637793    0.000000
   148  O2    c     0.452101    0.206654    0.804535    0.000000
   149  O3    c     0.742797    0.544598    0.478415    0.000000
   150  O2    c     0.756951    0.237467    0.134097    0.000000
   151  O2    c     0.214700    0.311714    0.893725    0.000000
   152  O2    c     0.650336    0.889362    0.229420    0.000000
   153  O2    c     0.064464    0.756211    0.564144    0.000000
   154  O2    c     0.746404    0.656410    0.399995    0.000000
   155  O2    c     0.303140    0.084307    0.730977    0.000000
   156  O2    c     0.883259    0.219738    0.061921    0.000000
   157  O2    c     0.305466    0.221490    0.435812    0.000000
   158  O2    c     0.877539    0.655210    0.097596    0.000000
   159  O2    c     0.750742    0.082569    0.765598    0.000000
   160  O2    c     0.659058    0.753470    0.934157    0.000000
   161  O2    c     0.068193    0.314276    0.601702    0.000000
   162  O2    c     0.206780    0.890000    0.267657    0.000000
   163  O2    c     0.569169    0.545214    0.989321    0.000000
   164  O2    c     0.418428    0.010158    0.322711    0.000000
   165  O2    c     0.947219    0.402954    0.656180    0.000000
   166  O2    c     0.396650    0.431041    0.489701    0.000000
   167  O2    c     0.545676    0.960609    0.821651    0.000000
   168  O2    c     0.994071    0.563673    0.151615    0.000000
   169  O2    c     0.537977    0.565587    0.346251    0.000000
   170  O2    c     0.002628    0.429129    0.008269    0.000000
   171  O2    c     0.385640    0.959378    0.675653    0.000000
   172  O2    c     0.426075    0.404816    0.840180    0.000000
   173  O2    c     0.946758    0.548939    0.508012    0.000000
   174  O2    c     0.557987    0.008599    0.174143    0.000000
   175  O2    c     0.554842    0.142922    0.248322    0.000000
   176  O2    c     0.810621    0.411611    0.582035    0.000000
   177  O2    c     0.569011    0.409432    0.914513    0.000000
   178  O2    c     0.398715    0.822617    0.748666    0.000000
   179  O2    c     0.135327    0.561610    0.081801    0.000000
   180  O2    c     0.395394    0.563479    0.416294    0.000000
   181  F     c     0.424557    0.881596    0.248534    0.000000
   182  F     c     0.077807    0.540433    0.582822    0.000000
   183  F     c     0.429651    0.537681    0.914274    0.000000
   184  F     c     0.528420    0.086246    0.748404    0.000000
   185  F     c     0.843007    0.426754    0.072003    0.000000
   186  F     c     0.552250    0.428174    0.425415    0.000000
   187  O2    s     0.910727    0.995070    0.000522    0.000000
   188  O2    s     0.980232    0.910962    0.330975    0.000000
   189  O2    s     0.047645    0.062959    0.663177    0.000000
   190  O2    s     0.054088    0.997030    0.496664    0.000000
   191  O3    s     0.977415    0.053130    0.834708    0.000000
   192  O2    s     0.897172    0.909403    0.166506    0.000000
   193  O2    s     0.331359    0.569948    0.331916    0.000000
   194  O2    s     0.389300    0.754560    0.665211    0.000000
   195  O2    s     0.215928    0.630630    0.998838    0.000000
   196  O2    s     0.633508    0.404302    0.831391    0.000000
   197  O2    s     0.556838    0.214687    0.167026    0.000000
   198  O3    s     0.743024    0.344237    0.499590    0.000000
   199  O3    s     0.569106    0.341897    0.996933    0.000000
   200  O2    s     0.740253    0.402710    0.665089    0.000000
   201  O2    s     0.625079    0.215882    0.329621    0.000000
   202  O2    s     0.385482    0.633479    0.499347    0.000000
   203  O2    s     0.205394    0.568015    0.166067    0.000000
   204  O2    s     0.335986    0.757218    0.832625    0.000000
   205  O2    s     0.109930    0.201665    0.965621    0.000000
   206  O2    s     0.760255    0.886566    0.301390    0.000000
   207  O2    s     0.069478    0.865517    0.636158    0.000000
   208  O2    s     0.856519    0.788416    0.468321    0.000000
   209  O3    s     0.208668    0.082248    0.804422    0.000000
   210  O2    s     0.874772    0.105237    0.135190    0.000000
   211  O2    s     0.198155    0.106795    0.362618    0.000000
   212  O2    s     0.900243    0.787220    0.029324    0.000000
   213  O2    s     0.851487    0.084319    0.692415    0.000000
   214  O2    s     0.761263    0.863363    0.861935    0.000000
   215  O2    s     0.062088    0.203971    0.530425    0.000000
   216  O2    s     0.093191    0.885331    0.195740    0.000000
   217  O2    s     0.901383    0.834509    0.248780    0.000000
   218  O2    s     0.109080    0.051765    0.581415    0.000000
   219  O2    s     0.909863    0.050786    0.915954    0.000000
   220  O3    s     0.039395    0.119022    0.745189    0.000000
   221  O2    s     0.835617    0.917641    0.082790    0.000000
   222  O2    s     0.050298    0.917827    0.414554    0.000000
   223  O2    s     0.901216    0.196574    0.978046    0.000000
   224  O2    s     0.774535    0.687996    0.316733    0.000000
   225  O2    s     0.268743    0.078897    0.648150    0.000000
   226  O2    s     0.064114    0.786405    0.482084    0.000000
   227  O3    s     0.192575    0.297693    0.811884    0.000000
   228  O2    s     0.675782    0.891312    0.147226    0.000000
   229  O2    s     0.183937    0.893142    0.349890    0.000000
   230  O2    s     0.690001    0.783628    0.015907    0.000000
   231  O2    s     0.066027    0.284475    0.683457    0.000000
   232  O2    s     0.780928    0.080456    0.848388    0.000000
   233  O2    s     0.265248    0.197847    0.519697    0.000000
   234  O2    s     0.880227    0.686693    0.180886    0.000000
   235  O2    s     0.303162    0.638007    0.248838    0.000000
   236  O2    s     0.319174    0.658400    0.582643    0.000000
   237  O2    s     0.308115    0.659688    0.915632    0.000000
   238  O2    s     0.652429    0.333664    0.748139    0.000000
   239  O3    s     0.615810    0.304070    0.085680    0.000000
   240  O3    s     0.655938    0.304482    0.411225    0.000000
   241  O2    s     0.362202    0.328409    0.964553    0.000000
   242  O2    s     0.635232    0.016248    0.300084    0.000000
   243  O2    s     0.939065    0.612421    0.634607    0.000000
   244  O2    s     0.598261    0.650471    0.467983    0.000000
   245  O2    s     0.327363    0.953234    0.800407    0.000000
   246  O2    s     0.006556    0.360256    0.132299    0.000000
   247  O2    s     0.322155    0.362075    0.365586    0.000000
   248  O2    s     0.020098    0.648717    0.029809    0.000000
   249  O2    s     0.598561    0.952736    0.695920    0.000000
   250  O2    s     0.641699    0.611915    0.863055    0.000000
   251  O2    s     0.936465    0.331233    0.531425    0.000000
   252  O2    s     0.347653    0.015319    0.196746    0.000000
   253  O3    s     0.760323    0.286575    0.006155    0.000000
   254  O2    s     0.671352    0.451147    0.348173    0.000000
   255  O2    s     0.508276    0.211828    0.679025    0.000000
   256  O2    s     0.196754    0.678315    0.513273    0.000000
   257  O2    s     0.293412    0.526540    0.845076    0.000000
   258  O2    s     0.438080    0.758261    0.178872    0.000000
   259  O2    s     0.288747    0.759839    0.318466    0.000000
   260  O2    s     0.448649    0.674362    0.984846    0.000000
   261  O2    s     0.199073    0.522599    0.652845    0.000000
   262  O2    s     0.675744    0.213584    0.817299    0.000000
   263  O3    s     0.495648    0.287689    0.491181    0.000000
   264  O2    s     0.746319    0.450106    0.149131    0.000000
   265  O3    s     0.778942    0.544985    0.022400    0.000000
   266  O2    s     0.449632    0.244497    0.365461    0.000000
   267  O2    s     0.717352    0.199548    0.694642    0.000000
   268  O2    s     0.183356    0.455649    0.529766    0.000000
   269  O2    s     0.512998    0.732096    0.863453    0.000000
   270  O2    s     0.228259    0.769259    0.196447    0.000000
   271  O2    s     0.509350    0.770286    0.300919    0.000000
   272  O2    s     0.239092    0.452973    0.966325    0.000000
   273  O2    s     0.186326    0.731150    0.635202    0.000000
   274  O2    s     0.455117    0.201637    0.801883    0.000000
   275  O3    s     0.735059    0.546005    0.474935    0.000000
   276  O2    s     0.761460    0.243477    0.131902    0.000000
   277  O2    s     0.224209    0.321392    0.894790    0.000000
   278  O2    s     0.640789    0.889088    0.230330    0.000000
   279  O2    s     0.064944    0.746962    0.565023    0.000000
   280  O2    s     0.737776    0.648637    0.400286    0.000000
   281  O2    s     0.312847    0.084003    0.731627    0.000000
   282  O2    s     0.882797    0.227464    0.063001    0.000000
   283  O2    s     0.313596    0.229148    0.434728    0.000000
   284  O2    s     0.878349    0.647388    0.097301    0.000000
   285  O2    s     0.741065    0.082582    0.764828    0.000000
   286  O2    s     0.649297    0.744282    0.933272    0.000000
   287  O2    s     0.067882    0.323737    0.600814    0.000000
   288  O2    s     0.216037    0.889675    0.266751    0.000000
   289  O2    s     0.565506    0.546613    0.985992    0.000000
   290  O2    s     0.417964    0.005224    0.319333    0.000000
   291  O2    s     0.952007    0.407480    0.652906    0.000000
   292  O2    s     0.399709    0.431445    0.486880    0.000000
   293  O2    s     0.545559    0.965562    0.818348    0.000000
   294  O2    s     0.990680    0.560242    0.148833    0.000000
   295  O2    s     0.537965    0.562104    0.349018    0.000000
   296  O2    s     0.999921    0.429601    0.011086    0.000000
   297  O2    s     0.390761    0.964388    0.678843    0.000000
   298  O2    s     0.425934    0.409369    0.843485    0.000000
   299  O2    s     0.951684    0.550102    0.511357    0.000000
   300  O2    s     0.553584    0.003753    0.177529    0.000000
   301  O2    s     0.549393    0.131987    0.248334    0.000000
   302  O2    s     0.820820    0.416393    0.582313    0.000000
   303  O2    s     0.563672    0.414313    0.914254    0.000000
   304  O2    s     0.403949    0.833588    0.748647    0.000000
   305  O2    s     0.125875    0.557147    0.081897    0.000000
   306  O2    s     0.400401    0.559028    0.416172    0.000000
   307  F     s     0.424182    0.880844    0.248532    0.000000
   308  F     s     0.079165    0.541050    0.582853    0.000000
   309  F     s     0.428808    0.538116    0.914215    0.000000
   310  F     s     0.528573    0.086679    0.748422    0.000000
   311  F     s     0.832667    0.423177    0.069402    0.000000
   312  F     s     0.559110    0.424502    0.428026    0.000000
--------------------------------------------------------------------------------

  Final Cartesian lattice vectors (Angstroms) :

       11.944718    0.006450   -0.006752
       -5.960789   10.415466    0.017761
       -0.377750   -0.069355   29.452064


  Final cell parameters and derivatives :

--------------------------------------------------------------------------------
       a           11.944721 Angstrom     dE/de1(xx)    -0.000827 eV/strain
       b           12.000552 Angstrom     dE/de2(yy)    -0.000807 eV/strain
       c           29.454568 Angstrom     dE/de3(zz)    -0.000958 eV/strain
       alpha       89.667314 Degrees      dE/de4(yz)    -0.000017 eV/strain
       beta        90.767290 Degrees      dE/de5(xz)    -0.000053 eV/strain
       gamma      119.751658 Degrees      dE/de6(xy)     0.000025 eV/strain
--------------------------------------------------------------------------------

  Primitive cell volume =          3665.242903 Angs**3

  Density of cell =      1.745612 g/cm**3

  Non-primitive cell volume =          3665.242903 Angs**3


  Final internal derivatives :

--------------------------------------------------------------------------------
   No.  Atomic          a             b             c           Radius
        Label          (eV)          (eV)          (eV)        (eV/Angs)
--------------------------------------------------------------------------------
      1 Ge    c       0.000000      0.000000      0.000000      0.000000
      2 Si    c       0.000024     -0.000029     -0.000169      0.000000
      3 Si    c      -0.000015      0.000015      0.000032      0.000000
      4 Si    c      -0.000031     -0.000018     -0.000122      0.000000
      5 Si    c      -0.000031      0.000004      0.000029      0.000000
      6 Si    c       0.000005     -0.000048     -0.000312      0.000000
      7 Si    c       0.000027      0.000047      0.000070      0.000000
      8 Si    c      -0.000195      0.000155      0.000425      0.000000
      9 Si    c       0.000017     -0.000002      0.000162      0.000000
     10 Si    c      -0.000015      0.000013     -0.000027      0.000000
     11 Ge    c      -0.000094      0.000065     -0.000107      0.000000
     12 Si    c      -0.000369      0.000078     -0.001548      0.000000
     13 Si    c       0.000140     -0.000251      0.000543      0.000000
     14 Si    c      -0.000004      0.000001     -0.000031      0.000000
     15 Si    c       0.000018      0.000008     -0.000047      0.000000
     16 Si    c       0.000001     -0.000010     -0.000028      0.000000
     17 Si    c      -0.000008     -0.000011     -0.000038      0.000000
     18 Si    c       0.000096     -0.000062     -0.000352      0.000000
     19 Si    c       0.000002      0.000009      0.000025      0.000000
     20 Si    c       0.000160      0.000051     -0.000021      0.000000
     21 Si    c       0.000000      0.000021      0.000113      0.000000
     22 Si    c      -0.000042      0.000031      0.000166      0.000000
     23 Si    c       0.000048     -0.000002      0.000031      0.000000
     24 Si    c      -0.000095     -0.000011      0.000093      0.000000
     25 Si    c       0.000040      0.000063      0.000113      0.000000
     26 Si    c      -0.000067      0.000040      0.000001      0.000000
     27 Si    c       0.000012     -0.000039     -0.000029      0.000000
     28 Si    c       0.000007     -0.000050      0.000051      0.000000
     29 Si    c       0.000031     -0.000006      0.000092      0.000000
     30 Si    c      -0.000127     -0.000089      0.000622      0.000000
     31 Si    c       0.000073     -0.000000     -0.000080      0.000000
     32 Si    c      -0.000263     -0.000202     -0.001049      0.000000
     33 Si    c      -0.000021      0.000013     -0.000108      0.000000
     34 Si    c       0.000002     -0.000012     -0.000195      0.000000
     35 Si    c      -0.000010      0.000034      0.000011      0.000000
     36 Si    c       0.000083     -0.000035     -0.000060      0.000000
     37 Si    c       0.000016      0.000081     -0.000139      0.000000
     38 Si    c      -0.000066      0.000024      0.000018      0.000000
     39 Si    c      -0.000004     -0.000022      0.000020      0.000000
     40 Si    c       0.000019     -0.000071      0.000012      0.000000
     41 Si    c      -0.000001      0.000016     -0.000023      0.000000
     42 Si    c      -0.000204      0.000202      0.000094      0.000000
     43 Si    c       0.000033      0.000008     -0.000014      0.000000
     44 Si    c       0.000156     -0.000223     -0.000240      0.000000
     45 Si    c      -0.000029      0.000008      0.000050      0.000000
     46 Si    c      -0.000062     -0.000012      0.000100      0.000000
     47 Si    c      -0.000008      0.000048     -0.000049      0.000000
     48 Si    c       0.000093     -0.000010     -0.000060      0.000000
     49 Si    c      -0.000055     -0.000001     -0.000563      0.000000
     50 Si    c       0.000003      0.000019     -0.000116      0.000000
     51 Si    c      -0.000006     -0.000015      0.000030      0.000000
     52 Si    c       0.000013     -0.000013     -0.000189      0.000000
     53 Ge    c       0.000008     -0.000033     -0.000160      0.000000
     54 Si    c       0.000009      0.000049      0.000123      0.000000
     55 Si    c       0.000019      0.000020      0.000111      0.000000
     56 Si    c       0.000306     -0.000420      0.000275      0.000000
     57 Si    c       0.000017     -0.000006     -0.000041      0.000000
     58 Si    c      -0.000003     -0.000151     -0.000322      0.000000
     59 Si    c       0.000021      0.000038      0.000212      0.000000
     60 Si    c       0.000000      0.000070      0.000177      0.000000
     61 O2    c      -0.000125      0.000161     -0.000047      0.000000
     62 O2    c      -0.000030      0.000004     -0.000052      0.000000
     63 O2    c       0.000004     -0.000001     -0.000011      0.000000
     64 O2    c      -0.000067     -0.000029     -0.000174      0.000000
     65 O3    c      -0.000022      0.000015      0.000148      0.000000
     66 O2    c      -0.000001     -0.000002     -0.000009      0.000000
     67 O2    c       0.000034     -0.000012      0.000092      0.000000
     68 O2    c      -0.000041     -0.000042     -0.000157      0.000000
     69 O2    c       0.000277     -0.000295     -0.000533      0.000000
     70 O2    c       0.000010     -0.000042     -0.000094      0.000000
     71 O2    c      -0.000031      0.000014      0.000033      0.000000
     72 O3    c       0.000095     -0.000080      0.000184      0.000000
     73 O3    c      -0.000153      0.000492     -0.000510      0.000000
     74 O2    c      -0.000021     -0.000028      0.000078      0.000000
     75 O2    c      -0.000079      0.000092      0.000252      0.000000
     76 O2    c       0.000012     -0.000023     -0.000027      0.000000
     77 O2    c      -0.000020      0.000133      0.000222      0.000000
     78 O2    c       0.000054     -0.000041      0.000033      0.000000
     79 O2    c      -0.000159     -0.000032     -0.000054      0.000000
     80 O2    c       0.000029     -0.000020      0.000015      0.000000
     81 O2    c      -0.000001      0.000022      0.000003      0.000000
     82 O2    c      -0.000026      0.000001      0.000018      0.000000
     83 O3    c       0.000045     -0.000018     -0.000033      0.000000
     84 O2    c       0.000018     -0.000063      0.000056      0.000000
     85 O2    c      -0.000005     -0.000030      0.000013      0.000000
     86 O2    c      -0.000891      0.000870      0.000006      0.000000
     87 O2    c      -0.000011     -0.000001     -0.000019      0.000000
     88 O2    c       0.000037      0.000120      0.000051      0.000000
     89 O2    c      -0.000009      0.000005     -0.000026      0.000000
     90 O2    c      -0.000056      0.000036     -0.000078      0.000000
     91 O2    c       0.000009     -0.000017      0.000108      0.000000
     92 O2    c      -0.000015      0.000024     -0.000155      0.000000
     93 O2    c       0.000233      0.000154      0.001665      0.000000
     94 O3    c       0.000052      0.000000      0.000174      0.000000
     95 O2    c       0.000173     -0.000070     -0.000869      0.000000
     96 O2    c      -0.000001     -0.000003      0.000093      0.000000
     97 O2    c       0.000235     -0.000213      0.000025      0.000000
     98 O2    c      -0.000013     -0.000008      0.000025      0.000000
     99 O2    c      -0.000019      0.000003     -0.000052      0.000000
    100 O2    c       0.000017     -0.000023      0.000015      0.000000
    101 O3    c      -0.000008     -0.000002     -0.000118      0.000000
    102 O2    c      -0.000021      0.000020     -0.000006      0.000000
    103 O2    c      -0.000008      0.000015      0.000013      0.000000
    104 O2    c       0.000281      0.000077      0.000208      0.000000
    105 O2    c      -0.000001     -0.000010      0.000007      0.000000
    106 O2    c      -0.000060      0.000060     -0.000042      0.000000
    107 O2    c      -0.000013      0.000000      0.000041      0.000000
    108 O2    c       0.000009      0.000018      0.000088      0.000000
    109 O2    c       0.000007      0.000008     -0.000017      0.000000
    110 O2    c       0.000009     -0.000000     -0.000014      0.000000
    111 O2    c       0.000052     -0.000060      0.000015      0.000000
    112 O2    c      -0.000001     -0.000027      0.000022      0.000000
    113 O3    c       0.000678      0.000115     -0.000634      0.000000
    114 O3    c      -0.000014      0.000015     -0.000022      0.000000
    115 O2    c      -0.000015      0.000022     -0.000059      0.000000
    116 O2    c       0.000010     -0.000027     -0.000020      0.000000
    117 O2    c       0.000014     -0.000003     -0.000020      0.000000
    118 O2    c       0.000007     -0.000010     -0.000009      0.000000
    119 O2    c       0.000001      0.000006     -0.000012      0.000000
    120 O2    c      -0.000002      0.000089     -0.000090      0.000000
    121 O2    c       0.000012     -0.000014      0.000000      0.000000
    122 O2    c      -0.000061      0.000085      0.000079      0.000000
    123 O2    c      -0.000003      0.000008      0.000010      0.000000
    124 O2    c      -0.000023      0.000041      0.000061      0.000000
    125 O2    c       0.000024     -0.000012      0.000009      0.000000
    126 O2    c       0.000015     -0.000029     -0.000012      0.000000
    127 O3    c       0.000439     -0.000288      0.000017      0.000000
    128 O2    c      -0.000030      0.000045      0.000051      0.000000
    129 O2    c      -0.000011     -0.000021      0.000015      0.000000
    130 O2    c       0.000008     -0.000022      0.000025      0.000000
    131 O2    c       0.000064     -0.000082      0.000021      0.000000
    132 O2    c      -0.000011      0.000031      0.000044      0.000000
    133 O2    c      -0.000007      0.000055     -0.000064      0.000000
    134 O2    c      -0.000008     -0.000025     -0.000062      0.000000
    135 O2    c      -0.000023     -0.000017     -0.000023      0.000000
    136 O2    c       0.000002     -0.000018     -0.000009      0.000000
    137 O3    c      -0.000099      0.000068     -0.000028      0.000000
    138 O2    c       0.000167      0.000227     -0.000426      0.000000
    139 O3    c       0.000577     -0.000270      0.001220      0.000000
    140 O2    c      -0.000020      0.000029      0.000059      0.000000
    141 O2    c       0.000007     -0.000020      0.000024      0.000000
    142 O2    c      -0.000031      0.000029      0.000065      0.000000
    143 O2    c       0.000156     -0.000067      0.000069      0.000000
    144 O2    c       0.000020      0.000035     -0.000003      0.000000
    145 O2    c      -0.000019      0.000031     -0.000078      0.000000
    146 O2    c       0.000087     -0.000100     -0.000232      0.000000
    147 O2    c      -0.000025      0.000013     -0.000015      0.000000
    148 O2    c       0.000003     -0.000015     -0.000014      0.000000
    149 O3    c      -0.000053      0.000094     -0.000142      0.000000
    150 O2    c       0.000028      0.000008     -0.000124      0.000000
    151 O2    c       0.000006     -0.000004      0.000136      0.000000
    152 O2    c      -0.000020      0.000021      0.000003      0.000000
    153 O2    c       0.000005     -0.000004      0.000026      0.000000
    154 O2    c      -0.000007     -0.000012     -0.000024      0.000000
    155 O2    c       0.000025     -0.000013     -0.000036      0.000000
    156 O2    c      -0.000267      0.000129     -0.000993      0.000000
    157 O2    c       0.000012      0.000005     -0.000004      0.000000
    158 O2    c       0.000091     -0.000337      0.002014      0.000000
    159 O2    c      -0.000021      0.000005     -0.000013      0.000000
    160 O2    c      -0.000026     -0.000035     -0.000071      0.000000
    161 O2    c      -0.000001     -0.000002     -0.000008      0.000000
    162 O2    c       0.000035     -0.000019      0.000071      0.000000
    163 O2    c      -0.000034      0.000014     -0.000166      0.000000
    164 O2    c      -0.000033     -0.000038     -0.000048      0.000000
    165 O2    c       0.000016     -0.000009     -0.000021      0.000000
    166 O2    c       0.000006     -0.000006     -0.000021      0.000000
    167 O2    c       0.000006      0.000005     -0.000021      0.000000
    168 O2    c      -0.000139      0.000096      0.000024      0.000000
    169 O2    c       0.000018     -0.000008      0.000024      0.000000
    170 O2    c      -0.000040     -0.000201      0.000042      0.000000
    171 O2    c      -0.000010      0.000020      0.000009      0.000000
    172 O2    c      -0.000059      0.000011      0.000066      0.000000
    173 O2    c       0.000001      0.000014      0.000011      0.000000
    174 O2    c       0.000030     -0.000060      0.000045      0.000000
    175 O2    c       0.000012     -0.000023      0.000108      0.000000
    176 O2    c       0.000006     -0.000001      0.000027      0.000000
    177 O2    c      -0.000078      0.000045      0.000050      0.000000
    178 O2    c      -0.000002      0.000022     -0.000022      0.000000
    179 O2    c      -0.000056     -0.000021      0.000527      0.000000
    180 O2    c       0.000021     -0.000019     -0.000014      0.000000
    181 F     c       0.000012      0.000016     -0.000035      0.000000
    182 F     c      -0.000009      0.000001      0.000001      0.000000
    183 F     c       0.000005     -0.000001     -0.000006      0.000000
    184 F     c      -0.000001     -0.000001      0.000005      0.000000
    185 F     c      -0.000195     -0.000036      0.000447      0.000000
    186 F     c       0.000017     -0.000010      0.000053      0.000000
    187 O2    s       0.000030     -0.000159     -0.000022      0.000000
    188 O2    s       0.000017     -0.000007     -0.000009      0.000000
    189 O2    s       0.000010     -0.000004      0.000027      0.000000
    190 O2    s      -0.000001      0.000018      0.000039      0.000000
    191 O3    s       0.000034      0.000006     -0.000063      0.000000
    192 O2    s      -0.000004     -0.000078      0.000022      0.000000
    193 O2    s       0.000001      0.000005     -0.000057      0.000000
    194 O2    s       0.000006      0.000015      0.000020      0.000000
    195 O2    s      -0.000117      0.000128      0.000050      0.000000
    196 O2    s       0.000007     -0.000003     -0.000033      0.000000
    197 O2    s       0.000095     -0.000106      0.000048      0.000000
    198 O3    s      -0.000091      0.000123     -0.000114      0.000000
    199 O3    s      -0.000062     -0.000248     -0.000224      0.000000
    200 O2    s       0.000008      0.000001     -0.000001      0.000000
    201 O2    s       0.000014     -0.000023     -0.000015      0.000000
    202 O2    s      -0.000006      0.000002      0.000048      0.000000
    203 O2    s      -0.000060      0.000000     -0.000119      0.000000
    204 O2    s       0.000021     -0.000026      0.000005      0.000000
    205 O2    s      -0.000199      0.000072      0.000041      0.000000
    206 O2    s       0.000004     -0.000012     -0.000086      0.000000
    207 O2    s       0.000004     -0.000013     -0.000030      0.000000
    208 O2    s       0.000018     -0.000027     -0.000068      0.000000
    209 O3    s      -0.000018      0.000002     -0.000036      0.000000
    210 O2    s       0.000030     -0.000006      0.000038      0.000000
    211 O2    s       0.000024     -0.000010      0.000031      0.000000
    212 O2    s      -0.000122     -0.000214      0.000065      0.000000
    213 O2    s      -0.000011      0.000004      0.000068      0.000000
    214 O2    s      -0.000080     -0.000024      0.000137      0.000000
    215 O2    s       0.000008      0.000020      0.000091      0.000000
    216 O2    s       0.000017     -0.000033      0.000163      0.000000
    217 O2    s      -0.000005      0.000028     -0.000120      0.000000
    218 O2    s       0.000027     -0.000006      0.000086      0.000000
    219 O2    s      -0.000076      0.000066     -0.000263      0.000000
    220 O3    s      -0.000038      0.000005     -0.000026      0.000000
    221 O2    s       0.000042     -0.000289     -0.000369      0.000000
    222 O2    s       0.000023     -0.000008     -0.000059      0.000000
    223 O2    s       0.000123     -0.000081     -0.000023      0.000000
    224 O2    s      -0.000005      0.000023      0.000034      0.000000
    225 O2    s       0.000003     -0.000001      0.000045      0.000000
    226 O2    s       0.000005     -0.000005     -0.000019      0.000000
    227 O3    s      -0.000008      0.000015      0.000092      0.000000
    228 O2    s       0.000049     -0.000022      0.000064      0.000000
    229 O2    s       0.000007      0.000010     -0.000078      0.000000
    230 O2    s       0.000231      0.000072      0.000517      0.000000
    231 O2    s       0.000001      0.000004     -0.000023      0.000000
    232 O2    s      -0.000012     -0.000042      0.000024      0.000000
    233 O2    s       0.000033     -0.000002     -0.000016      0.000000
    234 O2    s       0.000003     -0.000053     -0.000500      0.000000
    235 O2    s      -0.000037      0.000091     -0.000170      0.000000
    236 O2    s      -0.000035      0.000000      0.000049      0.000000
    237 O2    s       0.000046     -0.000034      0.000204      0.000000
    238 O2    s       0.000004     -0.000008      0.000001      0.000000
    239 O3    s      -0.000557     -0.000140      0.000799      0.000000
    240 O3    s      -0.000037      0.000040     -0.000072      0.000000
    241 O2    s       0.000003      0.000016      0.000058      0.000000
    242 O2    s      -0.000001     -0.000003     -0.000031      0.000000
    243 O2    s       0.000010      0.000001     -0.000014      0.000000
    244 O2    s       0.000008     -0.000008     -0.000020      0.000000
    245 O2    s       0.000008     -0.000003     -0.000022      0.000000
    246 O2    s       0.000091      0.000032      0.000032      0.000000
    247 O2    s       0.000012     -0.000001      0.000023      0.000000
    248 O2    s       0.000124     -0.000177     -0.000157      0.000000
    249 O2    s       0.000005      0.000006      0.000016      0.000000
    250 O2    s      -0.000034      0.000040      0.000042      0.000000
    251 O2    s      -0.000004      0.000007      0.000028      0.000000
    252 O2    s       0.000018      0.000028      0.000127      0.000000
    253 O3    s      -0.000111      0.000217     -0.000099      0.000000
    254 O2    s       0.000011     -0.000019      0.000054      0.000000
    255 O2    s       0.000013     -0.000004      0.000065      0.000000
    256 O2    s      -0.000006      0.000013      0.000048      0.000000
    257 O2    s      -0.000009      0.000034      0.000044      0.000000
    258 O2    s      -0.000007     -0.000003      0.000129      0.000000
    259 O2    s      -0.000011      0.000008     -0.000079      0.000000
    260 O2    s      -0.000099      0.000036     -0.000136      0.000000
    261 O2    s       0.000004      0.000024     -0.000068      0.000000
    262 O2    s       0.000005     -0.000004     -0.000025      0.000000
    263 O3    s       0.000040     -0.000024     -0.000055      0.000000
    264 O2    s       0.000119      0.000123      0.000201      0.000000
    265 O3    s      -0.000667      0.000024     -0.001011      0.000000
    266 O2    s       0.000024     -0.000019     -0.000010      0.000000
    267 O2    s      -0.000008      0.000004      0.000034      0.000000
    268 O2    s       0.000038     -0.000032     -0.000031      0.000000
    269 O2    s      -0.000018     -0.000018      0.000055      0.000000
    270 O2    s       0.000037     -0.000093      0.000143      0.000000
    271 O2    s       0.000032     -0.000008     -0.000025      0.000000
    272 O2    s      -0.000052      0.000079      0.000212      0.000000
    273 O2    s       0.000022     -0.000028     -0.000041      0.000000
    274 O2    s       0.000014     -0.000001     -0.000045      0.000000
    275 O3    s       0.000017     -0.000057      0.000062      0.000000
    276 O2    s       0.000021     -0.000063      0.000696      0.000000
    277 O2    s       0.000001      0.000006     -0.000073      0.000000
    278 O2    s       0.000003     -0.000020     -0.000052      0.000000
    279 O2    s       0.000007     -0.000013      0.000005      0.000000
    280 O2    s      -0.000005      0.000006     -0.000040      0.000000
    281 O2    s       0.000003     -0.000003      0.000038      0.000000
    282 O2    s       0.000176      0.000036     -0.000449      0.000000
    283 O2    s       0.000003     -0.000004      0.000003      0.000000
    284 O2    s       0.000047      0.000229     -0.000223      0.000000
    285 O2    s      -0.000002      0.000010      0.000022      0.000000
    286 O2    s       0.000019      0.000079     -0.000234      0.000000
    287 O2    s       0.000002      0.000005      0.000008      0.000000
    288 O2    s       0.000012     -0.000007     -0.000023      0.000000
    289 O2    s       0.000040      0.000012      0.000257      0.000000
    290 O2    s      -0.000010     -0.000006     -0.000034      0.000000
    291 O2    s       0.000008     -0.000002     -0.000002      0.000000
    292 O2    s       0.000010     -0.000010     -0.000023      0.000000
    293 O2    s       0.000010      0.000003     -0.000028      0.000000
    294 O2    s      -0.000099      0.000029     -0.000254      0.000000
    295 O2    s       0.000019     -0.000005      0.000019      0.000000
    296 O2    s      -0.000142      0.000011     -0.000026      0.000000
    297 O2    s       0.000003      0.000004      0.000027      0.000000
    298 O2    s      -0.000027      0.000041      0.000066      0.000000
    299 O2    s       0.000023     -0.000016      0.000058      0.000000
    300 O2    s       0.000000      0.000045      0.000063      0.000000
    301 O2    s      -0.000018     -0.000005     -0.000077      0.000000
    302 O2    s       0.000002     -0.000003     -0.000018      0.000000
    303 O2    s       0.000003     -0.000013     -0.000082      0.000000
    304 O2    s       0.000003      0.000000      0.000049      0.000000
    305 O2    s      -0.000007     -0.000006     -0.000070      0.000000
    306 O2    s       0.000007     -0.000001     -0.000014      0.000000
    307 F     s      -0.000025     -0.000041      0.000033      0.000000
    308 F     s       0.000022      0.000004      0.000005      0.000000
    309 F     s      -0.000031      0.000040      0.000033      0.000000
    310 F     s      -0.000001     -0.000003     -0.000009      0.000000
    311 F     s       0.000245      0.000128     -0.000638      0.000000
    312 F     s       0.000022     -0.000026     -0.000045      0.000000
--------------------------------------------------------------------------------
  Maximum abs         0.000891      0.000870      0.002014      0.000000
--------------------------------------------------------------------------------


  Time to end of optimisation =       9.2222 seconds


  Peak dynamic memory used =      19.13 MB 


  Timing analysis for GULP :

--------------------------------------------------------------------------------
  Task / Subroutine                                          Time (Seconds)
--------------------------------------------------------------------------------
  Calculation of reciprocal space energy and derivatives          0.3383
  Calculation of real space energy and derivatives                7.7698
  Calculation of three-body energy and derivatives                0.8636
  Calculation of matrix inversion                                 0.1921
--------------------------------------------------------------------------------
  Total CPU time                                                  9.2222
--------------------------------------------------------------------------------


  Dump file written as out.res                                                 
  CIF file written as out.cif                                                 


  Job Finished at 14:49.15  3rd December   2016                               

