********************************************************************************
*                       GENERAL UTILITY LATTICE PROGRAM                        *
*                                 Julian Gale                                  *
*                      Nanochemistry Research Institute                        *
*                           Department of Chemistry                            *
*                    Curtin University, Western Australia                      *
********************************************************************************
* Version = 4.2.0 * Last modified =  20th January 2014                         *
********************************************************************************
*  optimise     - perform optimisation run                                     *
*  conp         - constant pressure calculation                                *
*  qok          - running with non charge neutral cell is OK                   *
********************************************************************************

  Job Started  at 14:38.40  3rd December   2016                               

  Number of CPUs =     1


  Total number of configurations input =   1

********************************************************************************
*  Input for Configuration =   1                                               *
********************************************************************************

  Formula = Ge3Si57O120F6                                               

  Number of irreducible atoms/shells =     312


  Total number atoms/shells =     312

  Dimensionality = 3               :  Bulk   


  Charge on solid   =  -6.000000 =>neutralising background added


  Cartesian lattice vectors (Angstroms) :

       11.985576    0.000000    0.000000
       -6.079536   10.356239    0.000000
        0.081922   -0.086724   29.494128

  Cell parameters (Angstroms/Degrees):

  a =      11.9856    alpha =  90.2259
  b =      12.0088    beta  =  89.8409
  c =      29.4944    gamma = 120.4147

  Initial cell volume =        3660.973114 Angs**3

  Temperature of configuration =  0.000     K 

  Pressure of configuration =         0.000 GPa 

  Fractional coordinates of asymmetric unit :

--------------------------------------------------------------------------------
   No.  Atomic       x           y          z         Charge      Occupancy
        Label      (Frac)      (Frac)     (Frac)        (e)         (Frac)  
--------------------------------------------------------------------------------
      1 Ge    c    0.699600    0.375700    0.033890     4.00000    1.000000    
      2 Si    c    0.623449 *  0.314759 *  0.368949 *   4.00000    1.000000    
      3 Si    c    0.676811 *  0.295576 *  0.701097 *   4.00000    1.000000    
      4 Si    c    0.297537 *  0.621043 *  0.535897 *   4.00000    1.000000    
      5 Si    c    0.377834 *  0.679124 *  0.869116 *   4.00000    1.000000    
      6 Si    c    0.328349 *  0.706592 *  0.205104 *   4.00000    1.000000    
      7 Si    c    0.379237 *  0.699201 *  0.307208 *   4.00000    1.000000    
      8 Si    c    0.327187 *  0.617612 *  0.969354 *   4.00000    1.000000    
      9 Si    c    0.295608 *  0.675415 *  0.636489 *   4.00000    1.000000    
     10 Si    c    0.622408 *  0.297975 *  0.801295 *   4.00000    1.000000    
     11 Si    c    0.674521 *  0.375688 *  0.470457 *   4.00000    1.000000    
     12 Ge    c    0.716328 *  0.327961 *  0.132348 *   4.00000    1.000000    
     13 Si    c    0.531704 *  0.414967 *  0.964745 *   4.00000    1.000000    
     14 Ge    c    0.571433 *  0.094627 *  0.302359 *   4.00000    1.000000    
     15 Si    c    0.887587 *  0.468728 *  0.636440 *   4.00000    1.000000    
     16 Si    c    0.467670 *  0.579102 *  0.470871 *   4.00000    1.000000    
     17 Si    c    0.416120 *  0.889484 *  0.804408 *   4.00000    1.000000    
     18 Si    c    0.117912 *  0.530674 *  0.138963 *   4.00000    1.000000    
     19 Si    c    0.418498 *  0.523973 *  0.369733 *   4.00000    1.000000    
     20 Si    c    0.119376 *  0.583598 *  0.036248 *   4.00000    1.000000    
     21 Si    c    0.466433 *  0.884451 *  0.702676 *   4.00000    1.000000    
     22 Si    c    0.583311 *  0.473508 *  0.863451 *   4.00000    1.000000    
     23 Si    c    0.886113 *  0.415237 *  0.534911 *   4.00000    1.000000    
     24 Si    c    0.541066 *  0.128395 *  0.203097 *   4.00000    1.000000    
     25 Si    c    0.301208 *  0.401972 *  0.851754 *   4.00000    1.000000    
     26 Si    c    0.611538 *  0.912240 *  0.190972 *   4.00000    1.000000    
     27 Si    c    0.096444 *  0.697366 *  0.521058 *   4.00000    1.000000    
     28 Si    c    0.698822 *  0.594755 *  0.355740 *   4.00000    1.000000    
     29 Si    c    0.396523 *  0.093927 *  0.687942 *   4.00000    1.000000    
     30 Si    c    0.903695 *  0.294791 *  0.021995 *   4.00000    1.000000    
     31 Si    c    0.396459 *  0.299647 *  0.484939 *   4.00000    1.000000    
     32 Si    c    0.904484 *  0.603662 *  0.153978 *   4.00000    1.000000    
     33 Si    c    0.698531 *  0.098858 *  0.817849 *   4.00000    1.000000    
     34 Si    c    0.606406 *  0.694493 *  0.982872 *   4.00000    1.000000    
     35 Si    c    0.094551 *  0.396507 *  0.651222 *   4.00000    1.000000    
     36 Si    c    0.297956 *  0.899508 *  0.325650 *   4.00000    1.000000    
     37 Si    c    0.252456 *  0.338362 *  0.951977 *   4.00000    1.000000    
     38 Si    c    0.668114 *  0.913184 *  0.293090 *   4.00000    1.000000    
     39 Si    c    0.088380 *  0.748019 *  0.621702 *   4.00000    1.000000    
     40 Si    c    0.746163 *  0.655867 *  0.456096 *   4.00000    1.000000    
     41 Si    c    0.339417 *  0.090022 *  0.788598 *   4.00000    1.000000    
     42 Si    c    0.916518 *  0.244812 *  0.124299 *   4.00000    1.000000    
     43 Si    c    0.341457 *  0.246181 *  0.384259 *   4.00000    1.000000    
     44 Si    c    0.917201 *  0.663875 *  0.051230 *   4.00000    1.000000    
     45 Si    c    0.747075 *  0.086950 *  0.717214 *   4.00000    1.000000    
     46 Si    c    0.659953 *  0.750528 *  0.882126 *   4.00000    1.000000    
     47 Si    c    0.087226 *  0.338692 *  0.550540 *   4.00000    1.000000    
     48 Si    c    0.259173 *  0.920081 *  0.222833 *   4.00000    1.000000    
     49 Si    c    0.974608 *  0.118467 *  0.969523 *   4.00000    1.000000    
     50 Si    c    0.879225 *  0.841610 *  0.305658 *   4.00000    1.000000    
     51 Si    c    0.149025 *  0.027468 *  0.637270 *   4.00000    1.000000    
     52 Si    c    0.025140 *  0.875916 *  0.472549 *   4.00000    1.000000    
     53 Si    c    0.121192 *  0.152182 *  0.802687 *   4.00000    1.000000    
     54 Si    c    0.856346 *  0.969159 *  0.138068 *   4.00000    1.000000    
     55 Si    c    0.117027 *  0.965670 *  0.372161 *   4.00000    1.000000    
     56 Si    c    0.853781 *  0.877675 *  0.035979 *   4.00000    1.000000    
     57 Si    c    0.026734 *  0.148700 *  0.701980 *   4.00000    1.000000    
     58 Si    c    0.877826 *  0.030980 *  0.868279 *   4.00000    1.000000    
     59 Si    c    0.148642 *  0.120949 *  0.536685 *   4.00000    1.000000    
     60 Si    c    0.979264 *  0.853821 *  0.205033 *   4.00000    1.000000    
     61 O2    c    0.933270 *  0.000261 *  0.003717 *   0.87073    1.000000    
     62 O2    c    0.998665 *  0.925545 *  0.338443 *   0.87073    1.000000    
     63 O2    c    0.068806 *  0.067702 *  0.670329 *   0.87073    1.000000    
     64 O2    c    0.065112 *  0.994860 *  0.506329 *   0.87073    1.000000    
     65 O2    c    0.001567 *  0.074679 *  0.836581 *   0.87073    1.000000    
     66 O2    c    0.935362 *  0.926244 *  0.170011 *   0.87073    1.000000    
     67 O2    c    0.341743 *  0.572782 *  0.337086 *   0.87073    1.000000    
     68 O2    c    0.417598 *  0.759319 *  0.670158 *   0.87073    1.000000    
     69 O2    c    0.244034 *  0.655468 *  0.003602 *   0.87073    1.000000    
     70 O2    c    0.661198 *  0.426114 *  0.831458 *   0.87073    1.000000    
     71 O3    c    0.579529 *  0.236338 *  0.166488 *   1.33043    1.000000    
     72 O2    c    0.759773 *  0.338133 *  0.503038 *   0.87073    1.000000    
     73 O3    c    0.580481 *  0.336767 *  0.993364 *   1.33043    1.000000    
     74 O2    c    0.760724 *  0.418238 *  0.668456 *   0.87073    1.000000    
     75 O3    c    0.659850 *  0.231772 *  0.338338 *   1.33043    1.000000    
     76 O2    c    0.419909 *  0.657433 *  0.503068 *   0.87073    1.000000    
     77 O2    c    0.243687 *  0.585431 *  0.171459 *   0.87073    1.000000    
     78 O2    c    0.339630 *  0.765155 *  0.837640 *   0.87073    1.000000    
     79 O2    c    0.129604 *  0.208340 *  0.972145 *   0.87073    1.000000    
     80 O2    c    0.785932 *  0.899352 *  0.312070 *   0.87073    1.000000    
     81 O2    c    0.086015 *  0.873145 *  0.641632 *   0.87073    1.000000    
     82 O2    c    0.871143 *  0.782103 *  0.477453 *   0.87073    1.000000    
     83 O2    c    0.213337 *  0.090997 *  0.808534 *   0.87073    1.000000    
     84 O2    c    0.931069 *  0.124484 *  0.141582 *   0.87073    1.000000    
     85 O2    c    0.214909 *  0.118064 *  0.364449 *   0.87073    1.000000    
     86 O2    c    0.925380 *  0.794683 *  0.032346 *   0.87073    1.000000    
     87 O2    c    0.872053 *  0.084938 *  0.696944 *   0.87073    1.000000    
     88 O2    c    0.785401 *  0.877169 *  0.861707 *   0.87073    1.000000    
     89 O2    c    0.086536 *  0.212137 *  0.530682 *   0.87073    1.000000    
     90 O2    c    0.134163 *  0.919924 *  0.201651 *   0.87073    1.000000    
     91 O2    c    0.932800 *  0.863158 *  0.254706 *   0.87073    1.000000    
     92 O2    c    0.137946 *  0.072568 *  0.587688 *   0.87073    1.000000    
     93 O2    c    0.926248 *  0.063340 *  0.919681 *   0.87073    1.000000    
     94 O2    c    0.065463 *  0.135241 *  0.752614 *   0.87073    1.000000    
     95 O2    c    0.857213 *  0.924162 *  0.087028 *   0.87073    1.000000    
     96 O2    c    0.063701 *  0.935126 *  0.422811 *   0.87073    1.000000    
     97 O2    c    0.911658 *  0.204291 *  0.982978 *   0.87073    1.000000    
     98 O2    c    0.799583 *  0.689593 *  0.316960 *   0.87073    1.000000    
     99 O2    c    0.300648 *  0.095836 *  0.649707 *   0.87073    1.000000    
    100 O2    c    0.097142 *  0.795649 *  0.483130 *   0.87073    1.000000    
    101 O2    c    0.202805 *  0.305211 *  0.813353 *   0.87073    1.000000    
    102 O2    c    0.706450 *  0.908344 *  0.152279 *   0.87073    1.000000    
    103 O2    c    0.187029 *  0.883509 *  0.361393 *   0.87073    1.000000    
    104 O2    c    0.703661 *  0.790509 *  0.021820 *   0.87073    1.000000    
    105 O2    c    0.096295 *  0.300047 *  0.689527 *   0.87073    1.000000    
    106 O2    c    0.797394 *  0.101714 *  0.856348 *   0.87073    1.000000    
    107 O2    c    0.299538 *  0.201071 *  0.523371 *   0.87073    1.000000    
    108 O2    c    0.914983 *  0.704022 *  0.192384 *   0.87073    1.000000    
    109 O2    c    0.327963 *  0.653336 *  0.255412 *   0.87073    1.000000    
    110 O2    c    0.354864 *  0.677945 *  0.586352 *   0.87073    1.000000    
    111 O2    c    0.323755 *  0.677855 *  0.920230 *   0.87073    1.000000    
    112 O2    c    0.679815 *  0.354227 *  0.751246 *   0.87073    1.000000    
    113 O1    c    0.623428 *  0.313018 *  0.083690 *   1.73396    1.000000    
    114 O2    c    0.674197 *  0.318318 *  0.420800 *   0.87073    1.000000    
    115 O2    c    0.374999 *  0.329264 *  0.969288 *   0.87073    1.000000    
    116 O3    c    0.686301 *  0.043281 *  0.312707 *   1.33043    1.000000    
    117 O2    c    0.955809 *  0.624882 *  0.640175 *   0.87073    1.000000    
    118 O2    c    0.624338 *  0.666728 *  0.474513 *   0.87073    1.000000    
    119 O2    c    0.329059 *  0.958251 *  0.807593 *   0.87073    1.000000    
    120 O2    c    0.047717 *  0.375164 *  0.140954 *   0.87073    1.000000    
    121 O2    c    0.329364 *  0.367749 *  0.366261 *   0.87073    1.000000    
    122 O2    c    0.050927 *  0.670231 *  0.036055 *   0.87073    1.000000    
    123 O2    c    0.623084 *  0.953303 *  0.700106 *   0.87073    1.000000    
    124 O2    c    0.669785 *  0.630178 *  0.862014 *   0.87073    1.000000    
    125 O2    c    0.955009 *  0.328391 *  0.532151 *   0.87073    1.000000    
    126 O2    c    0.381395 *  0.051084 *  0.205140 *   0.87073    1.000000    
    127 O3    c    0.771061 *  0.289158 *  0.012970 *   1.33043    1.000000    
    128 O2    c    0.698545 *  0.461941 *  0.348826 *   0.87073    1.000000    
    129 O2    c    0.532037 *  0.226639 *  0.679844 *   0.87073    1.000000    
    130 O2    c    0.230250 *  0.696792 *  0.513840 *   0.87073    1.000000    
    131 O2    c    0.301082 *  0.536055 *  0.846276 *   0.87073    1.000000    
    132 O2    c    0.473799 *  0.778731 *  0.185094 *   0.87073    1.000000    
    133 O2    c    0.302771 *  0.766157 *  0.328503 *   0.87073    1.000000    
    134 O2    c    0.470714 *  0.690931 *  0.992018 *   0.87073    1.000000    
    135 O2    c    0.228181 *  0.532051 *  0.658841 *   0.87073    1.000000    
    136 O2    c    0.697852 *  0.232600 *  0.825214 *   0.87073    1.000000    
    137 O2    c    0.531293 *  0.302573 *  0.493357 *   0.87073    1.000000    
    138 O3    c    0.773607 *  0.474995 *  0.163338 *   1.33043    1.000000    
    139 O3    c    0.796448 *  0.543732 *  0.028714 *   1.33043    1.000000    
    140 O2    c    0.466470 *  0.247960 *  0.364067 *   0.87073    1.000000    
    141 O2    c    0.748379 *  0.211771 *  0.696676 *   0.87073    1.000000    
    142 O2    c    0.213889 *  0.464866 *  0.531363 *   0.87073    1.000000    
    143 O2    c    0.533945 *  0.752204 *  0.864233 *   0.87073    1.000000    
    144 O2    c    0.263588 *  0.795738 *  0.203577 *   0.87073    1.000000    
    145 O2    c    0.534100 *  0.788037 *  0.310105 *   0.87073    1.000000    
    146 O2    c    0.247734 *  0.460816 *  0.973177 *   0.87073    1.000000    
    147 O2    c    0.215249 *  0.750748 *  0.641501 *   0.87073    1.000000    
    148 O2    c    0.465870 *  0.217540 *  0.807664 *   0.87073    1.000000    
    149 O2    c    0.748728 *  0.531845 *  0.475458 *   0.87073    1.000000    
    150 O3    c    0.790291 *  0.233556 *  0.145243 *   1.33043    1.000000    
    151 O2    c    0.231400 *  0.323998 *  0.897755 *   0.87073    1.000000    
    152 O2    c    0.680360 *  0.913950 *  0.237901 *   0.87073    1.000000    
    153 O2    c    0.091304 *  0.767135 *  0.567494 *   0.87073    1.000000    
    154 O2    c    0.768151 *  0.673698 *  0.401857 *   0.87073    1.000000    
    155 O2    c    0.322197 *  0.090267 *  0.734366 *   0.87073    1.000000    
    156 O2    c    0.911698 *  0.231770 *  0.069297 *   0.87073    1.000000    
    157 O2    c    0.323310 *  0.227370 *  0.438601 *   0.87073    1.000000    
    158 O2    c    0.907779 *  0.670584 *  0.105696 *   0.87073    1.000000    
    159 O2    c    0.768378 *  0.093257 *  0.771542 *   0.87073    1.000000    
    160 O2    c    0.679088 *  0.767026 *  0.936541 *   0.87073    1.000000    
    161 O2    c    0.089001 *  0.321677 *  0.604844 *   0.87073    1.000000    
    162 O2    c    0.239019 *  0.911017 *  0.276856 *   0.87073    1.000000    
    163 O2    c    0.593588 *  0.555324 *  0.990137 *   0.87073    1.000000    
    164 O3    c    0.429313 *  0.024024 *  0.338145 *   1.33043    1.000000    
    165 O2    c    0.969321 *  0.410455 *  0.660183 *   0.87073    1.000000    
    166 O2    c    0.407272 *  0.437564 *  0.494033 *   0.87073    1.000000    
    167 O2    c    0.558479 *  0.973205 *  0.827222 *   0.87073    1.000000    
    168 O2    c    0.028142 *  0.583170 *  0.158801 *   0.87073    1.000000    
    169 O2    c    0.559980 *  0.582700 *  0.346188 *   0.87073    1.000000    
    170 O2    c    0.021984 *  0.441772 *  0.016618 *   0.87073    1.000000    
    171 O2    c    0.410137 *  0.968594 *  0.679875 *   0.87073    1.000000    
    172 O2    c    0.441225 *  0.419337 *  0.841399 *   0.87073    1.000000    
    173 O2    c    0.971673 *  0.556817 *  0.512164 *   0.87073    1.000000    
    174 O2    c    0.591134 *  0.032163 *  0.183440 *   0.87073    1.000000    
    175 O3    c    0.596838 *  0.187172 *  0.251971 *   1.33043    1.000000    
    176 O2    c    0.833851 *  0.415467 *  0.585830 *   0.87073    1.000000    
    177 O2    c    0.582576 *  0.418804 *  0.913495 *   0.87073    1.000000    
    178 O2    c    0.413713 *  0.833726 *  0.753829 *   0.87073    1.000000    
    179 O2    c    0.165630 *  0.578872 *  0.087515 *   0.87073    1.000000    
    180 O2    c    0.415617 *  0.579752 *  0.419911 *   0.87073    1.000000    
    181 F     c    0.478372 *  0.946657 *  0.265674 *   0.56000    1.000000    
    182 F     c    0.095572 *  0.548040 *  0.587123 *   0.56000    1.000000    
    183 F     c    0.450395 *  0.547798 *  0.918817 *   0.56000    1.000000    
    184 F     c    0.547679 *  0.096715 *  0.754075 *   0.56000    1.000000    
    185 F     c    0.862845 *  0.423283 *  0.091831 *   0.56000    1.000000    
    186 F     c    0.544244 *  0.452670 *  0.421064 *   0.56000    1.000000    
    187 O2    s    0.928971 *  0.999674 *  0.003530 *  -2.87073    1.000000    
    188 O2    s    0.998482 *  0.920489 *  0.338525 *  -2.87073    1.000000    
    189 O2    s    0.072981 *  0.072320 *  0.670213 *  -2.87073    1.000000    
    190 O2    s    0.070037 *  0.995726 *  0.505964 *  -2.87073    1.000000    
    191 O2    s    0.000944 *  0.078387 *  0.836382 *  -2.87073    1.000000    
    192 O2    s    0.931303 *  0.923069 *  0.170279 *  -2.87073    1.000000    
    193 O2    s    0.353309 *  0.581397 *  0.337119 *  -2.87073    1.000000    
    194 O2    s    0.410305 *  0.763834 *  0.670119 *  -2.87073    1.000000    
    195 O2    s    0.238974 *  0.644039 *  0.003684 *  -2.87073    1.000000    
    196 O2    s    0.649106 *  0.418042 *  0.831735 *  -2.87073    1.000000    
    197 O3    s    0.585399 *  0.231367 *  0.167959 *  -3.33043    1.000000    
    198 O2    s    0.764339 *  0.350007 *  0.503063 *  -2.87073    1.000000    
    199 O3    s    0.584672 *  0.347945 *  0.993541 *  -3.33043    1.000000    
    200 O2    s    0.764956 *  0.410555 *  0.668600 *  -2.87073    1.000000    
    201 O3    s    0.649807 *  0.231790 *  0.339329 *  -3.33043    1.000000    
    202 O2    s    0.412051 *  0.645732 *  0.503222 *  -2.87073    1.000000    
    203 O2    s    0.239339 *  0.592249 *  0.171555 *  -2.87073    1.000000    
    204 O2    s    0.351305 *  0.768822 *  0.837552 *  -2.87073    1.000000    
    205 O2    s    0.125561 *  0.212060 *  0.969801 *  -2.87073    1.000000    
    206 O2    s    0.783518 *  0.894300 *  0.309281 *  -2.87073    1.000000    
    207 O2    s    0.092961 *  0.876700 *  0.639148 *  -2.87073    1.000000    
    208 O2    s    0.874886 *  0.779204 *  0.474749 *  -2.87073    1.000000    
    209 O2    s    0.216548 *  0.097358 *  0.805899 *  -2.87073    1.000000    
    210 O2    s    0.921663 *  0.120302 *  0.139452 *  -2.87073    1.000000    
    211 O2    s    0.217461 *  0.114971 *  0.367271 *  -2.87073    1.000000    
    212 O2    s    0.916991 *  0.790060 *  0.034656 *  -2.87073    1.000000    
    213 O2    s    0.875518 *  0.091903 *  0.699554 *  -2.87073    1.000000    
    214 O2    s    0.782147 *  0.880346 *  0.864522 *  -2.87073    1.000000    
    215 O2    s    0.093163 *  0.215597 *  0.533348 *  -2.87073    1.000000    
    216 O2    s    0.130356 *  0.912830 *  0.204176 *  -2.87073    1.000000    
    217 O2    s    0.932254 *  0.859714 *  0.254615 *  -2.87073    1.000000    
    218 O2    s    0.140408 *  0.072830 *  0.587629 *  -2.87073    1.000000    
    219 O2    s    0.926339 *  0.065972 *  0.919590 *  -2.87073    1.000000    
    220 O2    s    0.067491 *  0.138682 *  0.752666 *  -2.87073    1.000000    
    221 O2    s    0.856755 *  0.923970 *  0.086991 *  -2.87073    1.000000    
    222 O2    s    0.065418 *  0.931891 *  0.422665 *  -2.87073    1.000000    
    223 O2    s    0.917768 *  0.204424 *  0.985623 *  -2.87073    1.000000    
    224 O2    s    0.798185 *  0.696533 *  0.319565 *  -2.87073    1.000000    
    225 O2    s    0.294447 *  0.088344 *  0.652354 *  -2.87073    1.000000    
    226 O2    s    0.089552 *  0.794045 *  0.485882 *  -2.87073    1.000000    
    227 O2    s    0.204340 *  0.299064 *  0.816187 *  -2.87073    1.000000    
    228 O2    s    0.712639 *  0.915162 *  0.154716 *  -2.87073    1.000000    
    229 O2    s    0.190854 *  0.893654 *  0.358918 *  -2.87073    1.000000    
    230 O2    s    0.709724 *  0.789999 *  0.019354 *  -2.87073    1.000000    
    231 O2    s    0.088726 *  0.293700 *  0.686987 *  -2.87073    1.000000    
    232 O2    s    0.795999 *  0.093979 *  0.853757 *  -2.87073    1.000000    
    233 O2    s    0.293110 *  0.202446 *  0.520903 *  -2.87073    1.000000    
    234 O2    s    0.921038 *  0.709860 *  0.189637 *  -2.87073    1.000000    
    235 O2    s    0.333097 *  0.663498 *  0.255274 *  -2.87073    1.000000    
    236 O2    s    0.343076 *  0.671972 *  0.586377 *  -2.87073    1.000000    
    237 O2    s    0.329533 *  0.671853 *  0.920104 *  -2.87073    1.000000    
    238 O2    s    0.673530 *  0.342286 *  0.751293 *  -2.87073    1.000000    
    239 O1    s    0.635786 *  0.319167 *  0.082824 *  -3.73396    1.000000    
    240 O2    s    0.669204 *  0.324095 *  0.420993 *  -2.87073    1.000000    
    241 O2    s    0.377818 *  0.339085 *  0.966943 *  -2.87073    1.000000    
    242 O3    s    0.676641 *  0.032602 *  0.309862 *  -3.33043    1.000000    
    243 O2    s    0.962651 *  0.621665 *  0.637852 *  -2.87073    1.000000    
    244 O2    s    0.620907 *  0.656539 *  0.472198 *  -2.87073    1.000000    
    245 O2    s    0.339029 *  0.964858 *  0.805297 *  -2.87073    1.000000    
    246 O2    s    0.042074 *  0.378626 *  0.139073 *  -2.87073    1.000000    
    247 O2    s    0.339772 *  0.371462 *  0.368462 *  -2.87073    1.000000    
    248 O2    s    0.044504 *  0.660578 *  0.037630 *  -2.87073    1.000000    
    249 O2    s    0.620005 *  0.960293 *  0.702194 *  -2.87073    1.000000    
    250 O2    s    0.659833 *  0.626723 *  0.864291 *  -2.87073    1.000000    
    251 O2    s    0.961812 *  0.338376 *  0.534373 *  -2.87073    1.000000    
    252 O2    s    0.382872 *  0.043783 *  0.206941 *  -2.87073    1.000000    
    253 O3    s    0.779746 *  0.296150 *  0.015527 *  -3.33043    1.000000    
    254 O2    s    0.691151 *  0.462001 *  0.351610 *  -2.87073    1.000000    
    255 O2    s    0.532650 *  0.219685 *  0.682942 *  -2.87073    1.000000    
    256 O2    s    0.223080 *  0.689130 *  0.516881 *  -2.87073    1.000000    
    257 O2    s    0.308959 *  0.536618 *  0.849234 *  -2.87073    1.000000    
    258 O2    s    0.472469 *  0.784691 *  0.187809 *  -2.87073    1.000000    
    259 O2    s    0.310300 *  0.772501 *  0.325958 *  -2.87073    1.000000    
    260 O2    s    0.469984 *  0.683782 *  0.988726 *  -2.87073    1.000000    
    261 O2    s    0.221008 *  0.532451 *  0.655719 *  -2.87073    1.000000    
    262 O2    s    0.690264 *  0.225340 *  0.821999 *  -2.87073    1.000000    
    263 O2    s    0.531743 *  0.309766 *  0.490100 *  -2.87073    1.000000    
    264 O3    s    0.783873 *  0.478823 *  0.160130 *  -3.33043    1.000000    
    265 O3    s    0.801988 *  0.543651 *  0.031505 *  -3.33043    1.000000    
    266 O2    s    0.468161 *  0.254623 *  0.366774 *  -2.87073    1.000000    
    267 O2    s    0.740652 *  0.206845 *  0.699346 *  -2.87073    1.000000    
    268 O2    s    0.208700 *  0.467438 *  0.533912 *  -2.87073    1.000000    
    269 O2    s    0.531211 *  0.744216 *  0.866683 *  -2.87073    1.000000    
    270 O2    s    0.270127 *  0.799099 *  0.205726 *  -2.87073    1.000000    
    271 O2    s    0.530956 *  0.791354 *  0.308046 *  -2.87073    1.000000    
    272 O2    s    0.256426 *  0.464113 *  0.970593 *  -2.87073    1.000000    
    273 O2    s    0.209808 *  0.742566 *  0.638881 *  -2.87073    1.000000    
    274 O2    s    0.468353 *  0.212006 *  0.805004 *  -2.87073    1.000000    
    275 O2    s    0.740632 *  0.529026 *  0.472869 *  -2.87073    1.000000    
    276 O3    s    0.799103 *  0.241255 *  0.142129 *  -3.33043    1.000000    
    277 O2    s    0.240890 *  0.333641 *  0.898739 *  -2.87073    1.000000    
    278 O2    s    0.671713 *  0.913706 *  0.238327 *  -2.87073    1.000000    
    279 O2    s    0.091525 *  0.757803 *  0.568425 *  -2.87073    1.000000    
    280 O2    s    0.758711 *  0.663734 *  0.402805 *  -2.87073    1.000000    
    281 O2    s    0.331794 *  0.090611 *  0.735308 *  -2.87073    1.000000    
    282 O2    s    0.911314 *  0.239765 *  0.069901 *  -2.87073    1.000000    
    283 O2    s    0.332903 *  0.236956 *  0.437769 *  -2.87073    1.000000    
    284 O2    s    0.908399 *  0.663049 *  0.104822 *  -2.87073    1.000000    
    285 O2    s    0.758821 *  0.093188 *  0.770702 *  -2.87073    1.000000    
    286 O2    s    0.669431 *  0.757670 *  0.935704 *  -2.87073    1.000000    
    287 O2    s    0.089385 *  0.331366 *  0.604018 *  -2.87073    1.000000    
    288 O2    s    0.246975 *  0.910909 *  0.275725 *  -2.87073    1.000000    
    289 O2    s    0.588684 *  0.556224 *  0.986868 *  -2.87073    1.000000    
    290 O3    s    0.424326 *  0.014875 *  0.334441 *  -3.33043    1.000000    
    291 O2    s    0.974488 *  0.415149 *  0.656768 *  -2.87073    1.000000    
    292 O2    s    0.412542 *  0.437534 *  0.490653 *  -2.87073    1.000000    
    293 O2    s    0.558701 *  0.978144 *  0.823847 *  -2.87073    1.000000    
    294 O2    s    0.025244 *  0.579416 *  0.156121 *  -2.87073    1.000000    
    295 O2    s    0.559887 *  0.577767 *  0.349622 *  -2.87073    1.000000    
    296 O2    s    0.020058 *  0.441784 *  0.019337 *  -2.87073    1.000000    
    297 O2    s    0.414741 *  0.973520 *  0.683156 *  -2.87073    1.000000    
    298 O2    s    0.441021 *  0.423334 *  0.844832 *  -2.87073    1.000000    
    299 O2    s    0.976399 *  0.557215 *  0.515506 *  -2.87073    1.000000    
    300 O2    s    0.588514 *  0.027477 *  0.186186 *  -2.87073    1.000000    
    301 O3    s    0.589438 *  0.174826 *  0.250481 *  -3.33043    1.000000    
    302 O2    s    0.844932 *  0.421038 *  0.585861 *  -2.87073    1.000000    
    303 O2    s    0.577273 *  0.424278 *  0.913545 *  -2.87073    1.000000    
    304 O2    s    0.419343 *  0.844666 *  0.753829 *  -2.87073    1.000000    
    305 O2    s    0.155930 *  0.574370 *  0.087548 *  -2.87073    1.000000    
    306 O2    s    0.421247 *  0.573964 *  0.419977 *  -2.87073    1.000000    
    307 F     s    0.484335 *  0.956333 *  0.268147 *  -1.56000    1.000000    
    308 F     s    0.095992 *  0.548340 *  0.587252 *  -1.56000    1.000000    
    309 F     s    0.449897 *  0.547958 *  0.919013 *  -1.56000    1.000000    
    310 F     s    0.547963 *  0.097301 *  0.754237 *  -1.56000    1.000000    
    311 F     s    0.853229 *  0.417483 *  0.093497 *  -1.56000    1.000000    
    312 F     s    0.544043 *  0.453073 *  0.421171 *  -1.56000    1.000000    
--------------------------------------------------------------------------------



********************************************************************************
*  General input information                                                   *
********************************************************************************

  Species output for all configurations : 

--------------------------------------------------------------------------------
  Species    Type    Atomic    Atomic    Charge       Radii (Angs)     Library
                     Number     Mass       (e)     Cova   Ionic  VDW   Symbol
--------------------------------------------------------------------------------
    Si       Core       14      28.09   4.000000   1.200  0.000  2.100          
    O1       Core        8      16.00   1.733957   0.730  0.000  1.360          
    O1       Shell       8       0.00  -3.733957   0.730  0.000  1.360          
    O2       Core        8      16.00   0.870733   0.730  0.000  1.360          
    O2       Shell       8       0.00  -2.870733   0.730  0.000  1.360          
    O3       Core        8      16.00   1.330431   0.730  0.000  1.360          
    O3       Shell       8       0.00  -3.330431   0.730  0.000  1.360          
    F        Core        9      19.00   0.560000   0.710  0.000  1.300          
    F        Shell       9       0.00  -1.560000   0.710  0.000  1.300          
    Ge       Core       32      72.61   4.000000   1.170  0.000  1.750          
--------------------------------------------------------------------------------


  Lattice summation method               =    Ewald          (3-D)
                                         =    Parry          (2-D)
                                         =    Saunders et al (1-D)
  Accuracy factor for lattice sums       =   12.000


  Time limit = Infinity

  Maximum range for interatomic potentials =        16.000000 Angstroms

  Taper potentials to zero over   1.0000 Angstroms using polynomial

  General interatomic potentials :

--------------------------------------------------------------------------------
Atom  Types   Potential         A         B         C         D     Cutoffs(Ang)
  1     2                                                            Min    Max 
--------------------------------------------------------------------------------
Si   c O1   s Buckingham    0.132E+04 0.318      10.1      0.00     0.000 16.000
Si   c O2   s Buckingham    0.132E+04 0.318      10.1      0.00     0.000 16.000
Si   c O3   s Buckingham    0.132E+04 0.318      10.1      0.00     0.000 16.000
Ge   c O1   s Buckingham    0.150E+04 0.326      16.8      0.00     0.000 16.000
Ge   c O2   s Buckingham    0.150E+04 0.326      16.8      0.00     0.000 16.000
Ge   c O3   s Buckingham    0.150E+04 0.326      16.8      0.00     0.000 16.000
O1   s O1   s Buckingham    0.228E+05 0.149      10.9      0.00     0.000 16.000
O1   s O2   s Buckingham    0.228E+05 0.149      10.9      0.00     0.000 16.000
O1   s O3   s Buckingham    0.228E+05 0.149      10.9      0.00     0.000 16.000
O2   s O2   s Buckingham    0.228E+05 0.149      10.9      0.00     0.000 16.000
O2   s O3   s Buckingham    0.228E+05 0.149      10.9      0.00     0.000 16.000
O3   s O3   s Buckingham    0.228E+05 0.149      10.9      0.00     0.000 16.000
Si   c F    s Buckingham     977.     0.282      0.00      0.00     0.000 16.000
Ge   c F    s Buckingham     681.     0.320      0.00      0.00     0.000 16.000
F    s F    s Buckingham     540.     0.262      0.00      0.00     0.000 16.000
O1   s F    s Buckingham    0.168E+04 0.268      0.00      0.00     0.000 16.000
O2   s F    s Buckingham    0.168E+04 0.268      0.00      0.00     0.000 16.000
O3   s F    s Buckingham    0.168E+04 0.268      0.00      0.00     0.000 16.000
O2   c O2   s Spring (c-s)   76.0      0.00      0.00      0.00     0.000  0.800
O3   c O3   s Spring (c-s)   128.      0.00      0.00      0.00     0.000  0.800
O1   c O1   s Spring (c-s)   180.      0.00      0.00      0.00     0.000  0.800
F    c F    s Spring (c-s)   33.5      0.00      0.00      0.00     0.000  0.800
--------------------------------------------------------------------------------

  General Three-body potentials :

  Harmonic form:

--------------------------------------------------------------------------------
Atom    Atom    Atom           Force Constants            Theta     Cutoffs  
  1       2       3     (eVrad**-2/eVrad**-3/eVrad**-4)   (deg)  1-2  1-3  2-3
--------------------------------------------------------------------------------
Si    c O1    s O1    s  1.261        0.0000    0.0000   109.470 0.00 0.00 0.00
                                                                 1.90 1.90 3.50
Si    c O1    s O2    s  1.261        0.0000    0.0000   109.470 0.00 0.00 0.00
                                                                 1.90 1.90 3.50
Si    c O2    s O2    s  1.261        0.0000    0.0000   109.470 0.00 0.00 0.00
                                                                 1.90 1.90 3.50
--------------------------------------------------------------------------------

********************************************************************************
*  Output for configuration   1                                                *
********************************************************************************


  Components of energy : 

--------------------------------------------------------------------------------
  Interatomic potentials     =        2064.29953552 eV
  Three-body potentials      =           0.46676195 eV
  Monopole - monopole (real) =       -6614.70160039 eV
  Monopole - monopole (recip)=       -3170.47863155 eV
  Monopole - monopole (total)=       -9785.18023194 eV
  Neutralising energy        =          -6.45757955 eV
--------------------------------------------------------------------------------
  Total lattice energy       =       -7726.87151402 eV
--------------------------------------------------------------------------------
  Total lattice energy       =         -745524.9851 kJ/(mole unit cells)
--------------------------------------------------------------------------------


  Number of variables =      939

  Maximum number of calculations  =          1000
  Maximum Hessian update interval =            10
  Maximum step size               =   1.000000000
  Maximum parameter tolerance     =   0.000010000
  Maximum function  tolerance     =   0.000010000
  Maximum gradient  tolerance     =   0.001000000
  Maximum gradient  component     =   0.010000000

  Symmetry not applied to optimisation

  Cell parameters to be optimised using strains

  Newton-Raphson optimiser to be used

  BFGS hessian update to be used

  Dumpfile to be written after every cycle

  Start of bulk optimisation :

  Cycle:      0 Energy:     -7726.871514  Gnorm:      0.000891  CPU:    1.240
  ** Hessian calculated **
  Cycle:      1 Energy:     -7726.889083  Gnorm:      0.002115  CPU:    3.218
  Cycle:      2 Energy:     -7726.889256  Gnorm:      0.000658  CPU:    4.597
  Cycle:      3 Energy:     -7726.889295  Gnorm:      0.000026  CPU:    5.977


  **** Optimisation achieved ****


  Final energy =   -7726.88929539 eV
  Final Gnorm  =       0.00000467

  Components of energy : 

--------------------------------------------------------------------------------
  Interatomic potentials     =        2064.27095432 eV
  Three-body potentials      =           0.46617590 eV
  Monopole - monopole (real) =       -6614.93483283 eV
  Monopole - monopole (recip)=       -3170.23451138 eV
  Monopole - monopole (total)=       -9785.16934421 eV
  Neutralising energy        =          -6.45708139 eV
--------------------------------------------------------------------------------
  Total lattice energy       =       -7726.88929539 eV
--------------------------------------------------------------------------------
  Total lattice energy       =         -745526.7007 kJ/(mole unit cells)
--------------------------------------------------------------------------------

  Final fractional coordinates of atoms :

--------------------------------------------------------------------------------
   No.  Atomic        x           y          z          Radius
        Label       (Frac)      (Frac)     (Frac)       (Angs) 
--------------------------------------------------------------------------------
     1  Ge    c     0.699600    0.375700    0.033890    0.000000
     2  Si    c     0.622096    0.311688    0.370194    0.000000
     3  Si    c     0.673063    0.289326    0.702183    0.000000
     4  Si    c     0.295411    0.615210    0.537957    0.000000
     5  Si    c     0.377825    0.677724    0.870936    0.000000
     6  Si    c     0.331641    0.706489    0.206772    0.000000
     7  Si    c     0.382435    0.699047    0.308929    0.000000
     8  Si    c     0.329103    0.616106    0.971242    0.000000
     9  Si    c     0.291526    0.669029    0.638585    0.000000
    10  Si    c     0.620919    0.295456    0.802394    0.000000
    11  Si    c     0.672343    0.370682    0.471839    0.000000
    12  Ge    c     0.719977    0.329206    0.132777    0.000000
    13  Si    c     0.531688    0.413851    0.965018    0.000000
    14  Ge    c     0.575544    0.094365    0.303133    0.000000
    15  Si    c     0.883821    0.461981    0.637545    0.000000
    16  Si    c     0.466417    0.574552    0.472917    0.000000
    17  Si    c     0.414211    0.887412    0.806543    0.000000
    18  Si    c     0.120341    0.530375    0.140708    0.000000
    19  Si    c     0.417973    0.521556    0.371648    0.000000
    20  Si    c     0.121778    0.583070    0.038005    0.000000
    21  Si    c     0.462164    0.878497    0.704866    0.000000
    22  Si    c     0.583222    0.472637    0.863975    0.000000
    23  Si    c     0.883673    0.408988    0.536091    0.000000
    24  Si    c     0.546174    0.128787    0.203783    0.000000
    25  Si    c     0.300826    0.400730    0.852773    0.000000
    26  Si    c     0.615011    0.911325    0.192428    0.000000
    27  Si    c     0.094313    0.691256    0.522666    0.000000
    28  Si    c     0.698137    0.592085    0.357240    0.000000
    29  Si    c     0.392372    0.087805    0.689785    0.000000
    30  Si    c     0.905099    0.294867    0.023559    0.000000
    31  Si    c     0.394577    0.294968    0.486745    0.000000
    32  Si    c     0.907243    0.603885    0.155260    0.000000
    33  Si    c     0.696761    0.096551    0.819614    0.000000
    34  Si    c     0.608641    0.692992    0.984390    0.000000
    35  Si    c     0.090313    0.389862    0.652749    0.000000
    36  Si    c     0.302414    0.900349    0.327325    0.000000
    37  Si    c     0.252712    0.336737    0.953081    0.000000
    38  Si    c     0.671603    0.912684    0.294631    0.000000
    39  Si    c     0.084477    0.741492    0.623273    0.000000
    40  Si    c     0.744698    0.651154    0.457780    0.000000
    41  Si    c     0.337543    0.087438    0.790480    0.000000
    42  Si    c     0.918579    0.244438    0.125828    0.000000
    43  Si    c     0.340550    0.243750    0.385941    0.000000
    44  Si    c     0.919808    0.663333    0.052372    0.000000
    45  Si    c     0.743257    0.081041    0.718970    0.000000
    46  Si    c     0.660196    0.749171    0.883506    0.000000
    47  Si    c     0.084510    0.332543    0.552095    0.000000
    48  Si    c     0.263928    0.921087    0.224437    0.000000
    49  Si    c     0.974763    0.117536    0.971113    0.000000
    50  Si    c     0.880671    0.838739    0.307144    0.000000
    51  Si    c     0.144672    0.020791    0.638978    0.000000
    52  Si    c     0.024305    0.870534    0.474124    0.000000
    53  Si    c     0.120035    0.150428    0.804269    0.000000
    54  Si    c     0.860217    0.969075    0.139677    0.000000
    55  Si    c     0.118401    0.962532    0.373951    0.000000
    56  Si    c     0.856224    0.876722    0.037568    0.000000
    57  Si    c     0.022728    0.142272    0.703664    0.000000
    58  Si    c     0.876925    0.030045    0.869991    0.000000
    59  Si    c     0.146582    0.115409    0.538368    0.000000
    60  Si    c     0.983523    0.854419    0.206625    0.000000
    61  O2    c     0.934254    0.999772    0.005411    0.000000
    62  O2    c     0.999783    0.920081    0.340238    0.000000
    63  O2    c     0.064090    0.060553    0.672073    0.000000
    64  O2    c     0.063972    0.989197    0.508002    0.000000
    65  O2    c     0.001199    0.074810    0.838553    0.000000
    66  O2    c     0.940695    0.928396    0.171859    0.000000
    67  O2    c     0.343178    0.572356    0.338937    0.000000
    68  O2    c     0.412763    0.752739    0.672621    0.000000
    69  O2    c     0.246941    0.654633    0.005577    0.000000
    70  O2    c     0.660582    0.425043    0.831835    0.000000
    71  O3    c     0.583137    0.235670    0.166889    0.000000
    72  O2    c     0.757553    0.332345    0.504091    0.000000
    73  O3    c     0.581169    0.335363    0.993357    0.000000
    74  O2    c     0.756331    0.411183    0.669217    0.000000
    75  O3    c     0.661134    0.231455    0.339260    0.000000
    76  O2    c     0.418422    0.652175    0.505399    0.000000
    77  O2    c     0.246136    0.585243    0.173224    0.000000
    78  O2    c     0.338444    0.763624    0.840039    0.000000
    79  O2    c     0.129930    0.206775    0.973196    0.000000
    80  O2    c     0.789276    0.898590    0.313553    0.000000
    81  O2    c     0.081480    0.866382    0.643088    0.000000
    82  O2    c     0.870231    0.777149    0.479022    0.000000
    83  O2    c     0.212200    0.089515    0.810524    0.000000
    84  O2    c     0.933870    0.124369    0.142829    0.000000
    85  O2    c     0.213820    0.115405    0.366264    0.000000
    86  O2    c     0.928325    0.794380    0.033521    0.000000
    87  O2    c     0.867887    0.078049    0.698909    0.000000
    88  O2    c     0.785035    0.876280    0.863056    0.000000
    89  O2    c     0.084206    0.206242    0.532213    0.000000
    90  O2    c     0.138469    0.920669    0.203506    0.000000
    91  O2    c     0.935480    0.860957    0.256350    0.000000
    92  O2    c     0.134893    0.066958    0.589431    0.000000
    93  O2    c     0.924543    0.061542    0.921479    0.000000
    94  O2    c     0.062987    0.130618    0.754291    0.000000
    95  O2    c     0.860601    0.922853    0.088739    0.000000
    96  O2    c     0.064289    0.930191    0.424496    0.000000
    97  O2    c     0.912831    0.204057    0.984576    0.000000
    98  O2    c     0.798631    0.686664    0.318336    0.000000
    99  O2    c     0.296076    0.088924    0.651618    0.000000
   100  O2    c     0.095705    0.789796    0.484743    0.000000
   101  O2    c     0.202197    0.303954    0.814355    0.000000
   102  O2    c     0.710269    0.907092    0.153962    0.000000
   103  O2    c     0.191475    0.883484    0.363191    0.000000
   104  O2    c     0.706011    0.788530    0.023419    0.000000
   105  O2    c     0.091871    0.293337    0.691015    0.000000
   106  O2    c     0.796219    0.100454    0.858074    0.000000
   107  O2    c     0.297591    0.196033    0.525142    0.000000
   108  O2    c     0.918738    0.705047    0.193419    0.000000
   109  O2    c     0.331592    0.653301    0.257066    0.000000
   110  O2    c     0.351576    0.671721    0.588582    0.000000
   111  O2    c     0.325237    0.676261    0.922228    0.000000
   112  O2    c     0.677329    0.349593    0.752118    0.000000
   113  O1    c     0.626328    0.315136    0.084263    0.000000
   114  O2    c     0.671708    0.313798    0.422100    0.000000
   115  O2    c     0.375307    0.327272    0.970140    0.000000
   116  O3    c     0.690476    0.043297    0.313975    0.000000
   117  O2    c     0.951767    0.618069    0.641523    0.000000
   118  O2    c     0.623184    0.662077    0.476532    0.000000
   119  O2    c     0.327066    0.955971    0.809831    0.000000
   120  O2    c     0.049818    0.374853    0.142684    0.000000
   121  O2    c     0.328263    0.365279    0.368014    0.000000
   122  O2    c     0.054004    0.670215    0.037612    0.000000
   123  O2    c     0.618813    0.947119    0.702237    0.000000
   124  O2    c     0.670114    0.629340    0.862916    0.000000
   125  O2    c     0.952497    0.322133    0.533435    0.000000
   126  O2    c     0.386303    0.051551    0.206449    0.000000
   127  O3    c     0.772658    0.289257    0.014271    0.000000
   128  O2    c     0.697320    0.459182    0.350389    0.000000
   129  O2    c     0.527959    0.220057    0.681223    0.000000
   130  O2    c     0.228283    0.690911    0.515835    0.000000
   131  O2    c     0.300768    0.534870    0.847929    0.000000
   132  O2    c     0.476966    0.777994    0.186590    0.000000
   133  O2    c     0.306552    0.766660    0.329999    0.000000
   134  O2    c     0.472843    0.688869    0.993742    0.000000
   135  O2    c     0.223715    0.525474    0.660768    0.000000
   136  O2    c     0.696474    0.230606    0.826539    0.000000
   137  O2    c     0.529364    0.297702    0.494957    0.000000
   138  O3    c     0.776257    0.475304    0.164543    0.000000
   139  O3    c     0.799572    0.543603    0.029361    0.000000
   140  O2    c     0.465183    0.245363    0.365428    0.000000
   141  O2    c     0.744143    0.205103    0.697975    0.000000
   142  O2    c     0.211551    0.459067    0.533273    0.000000
   143  O2    c     0.533832    0.750499    0.865896    0.000000
   144  O2    c     0.267622    0.796204    0.205371    0.000000
   145  O2    c     0.537418    0.787812    0.311836    0.000000
   146  O2    c     0.249095    0.459263    0.974702    0.000000
   147  O2    c     0.211100    0.744257    0.643325    0.000000
   148  O2    c     0.464479    0.215388    0.809136    0.000000
   149  O2    c     0.746984    0.526855    0.476961    0.000000
   150  O3    c     0.792344    0.233231    0.146474    0.000000
   151  O2    c     0.231641    0.322807    0.898849    0.000000
   152  O2    c     0.683464    0.912978    0.239440    0.000000
   153  O2    c     0.088208    0.760619    0.569065    0.000000
   154  O2    c     0.766856    0.669985    0.403571    0.000000
   155  O2    c     0.319103    0.085880    0.736263    0.000000
   156  O2    c     0.913596    0.231857    0.070759    0.000000
   157  O2    c     0.321743    0.223635    0.440246    0.000000
   158  O2    c     0.909715    0.669738    0.106790    0.000000
   159  O2    c     0.765472    0.089314    0.773273    0.000000
   160  O2    c     0.680344    0.765404    0.937917    0.000000
   161  O2    c     0.085381    0.315150    0.606408    0.000000
   162  O2    c     0.244296    0.912935    0.278482    0.000000
   163  O2    c     0.595501    0.553415    0.991181    0.000000
   164  O3    c     0.434184    0.024386    0.339532    0.000000
   165  O2    c     0.964744    0.403244    0.661575    0.000000
   166  O2    c     0.405643    0.432882    0.496029    0.000000
   167  O2    c     0.556681    0.971260    0.829334    0.000000
   168  O2    c     0.031014    0.583642    0.160250    0.000000
   169  O2    c     0.559290    0.580081    0.348034    0.000000
   170  O2    c     0.024023    0.441589    0.018155    0.000000
   171  O2    c     0.405496    0.962140    0.682006    0.000000
   172  O2    c     0.441024    0.419003    0.842088    0.000000
   173  O2    c     0.969818    0.550675    0.513483    0.000000
   174  O2    c     0.595149    0.031345    0.184545    0.000000
   175  O3    c     0.602480    0.187285    0.252658    0.000000
   176  O2    c     0.830624    0.408854    0.586891    0.000000
   177  O2    c     0.582659    0.417157    0.913877    0.000000
   178  O2    c     0.410351    0.829533    0.756215    0.000000
   179  O2    c     0.168053    0.578213    0.089219    0.000000
   180  O2    c     0.414595    0.576285    0.421990    0.000000
   181  F     c     0.482576    0.946727    0.266925    0.000000
   182  F     c     0.091828    0.541213    0.588911    0.000000
   183  F     c     0.452037    0.545470    0.920351    0.000000
   184  F     c     0.544182    0.092040    0.755934    0.000000
   185  F     c     0.866045    0.423330    0.093397    0.000000
   186  F     c     0.542065    0.448708    0.422921    0.000000
   187  O2    s     0.930007    0.999068    0.005202    0.000000
   188  O2    s     0.999649    0.915546    0.340279    0.000000
   189  O2    s     0.068372    0.065296    0.671947    0.000000
   190  O2    s     0.068861    0.990151    0.507633    0.000000
   191  O2    s     0.000429    0.078206    0.838276    0.000000
   192  O2    s     0.936359    0.924794    0.172071    0.000000
   193  O2    s     0.354730    0.580751    0.338975    0.000000
   194  O2    s     0.405633    0.757361    0.672523    0.000000
   195  O2    s     0.241769    0.643140    0.005608    0.000000
   196  O2    s     0.648459    0.416866    0.832207    0.000000
   197  O3    s     0.589071    0.230880    0.168417    0.000000
   198  O2    s     0.762128    0.344264    0.504169    0.000000
   199  O3    s     0.585524    0.346637    0.993682    0.000000
   200  O2    s     0.760686    0.403575    0.669439    0.000000
   201  O3    s     0.650946    0.231103    0.340265    0.000000
   202  O2    s     0.410514    0.640515    0.505507    0.000000
   203  O2    s     0.241870    0.592051    0.173309    0.000000
   204  O2    s     0.350192    0.767207    0.839879    0.000000
   205  O2    s     0.125930    0.210629    0.970903    0.000000
   206  O2    s     0.786655    0.893333    0.310772    0.000000
   207  O2    s     0.088510    0.869982    0.640645    0.000000
   208  O2    s     0.873925    0.774226    0.476327    0.000000
   209  O2    s     0.215341    0.095734    0.807833    0.000000
   210  O2    s     0.924476    0.120118    0.140765    0.000000
   211  O2    s     0.216640    0.112277    0.369068    0.000000
   212  O2    s     0.919850    0.789718    0.035860    0.000000
   213  O2    s     0.871399    0.085161    0.701466    0.000000
   214  O2    s     0.781761    0.879378    0.865916    0.000000
   215  O2    s     0.090822    0.209722    0.534896    0.000000
   216  O2    s     0.134641    0.913575    0.205970    0.000000
   217  O2    s     0.934960    0.857762    0.256246    0.000000
   218  O2    s     0.137320    0.067100    0.589370    0.000000
   219  O2    s     0.924926    0.064365    0.921339    0.000000
   220  O2    s     0.065004    0.134185    0.754343    0.000000
   221  O2    s     0.860081    0.922821    0.088660    0.000000
   222  O2    s     0.065921    0.927101    0.424364    0.000000
   223  O2    s     0.918888    0.204078    0.987196    0.000000
   224  O2    s     0.797506    0.693619    0.320964    0.000000
   225  O2    s     0.289937    0.081520    0.654249    0.000000
   226  O2    s     0.088111    0.788198    0.487497    0.000000
   227  O2    s     0.203714    0.297819    0.817244    0.000000
   228  O2    s     0.716441    0.914068    0.156363    0.000000
   229  O2    s     0.194969    0.893423    0.360702    0.000000
   230  O2    s     0.711984    0.788122    0.020933    0.000000
   231  O2    s     0.084337    0.286987    0.688496    0.000000
   232  O2    s     0.794782    0.092657    0.855484    0.000000
   233  O2    s     0.291159    0.197379    0.522679    0.000000
   234  O2    s     0.924749    0.710742    0.190741    0.000000
   235  O2    s     0.336637    0.663429    0.256933    0.000000
   236  O2    s     0.339844    0.665786    0.588580    0.000000
   237  O2    s     0.330949    0.670249    0.922064    0.000000
   238  O2    s     0.670988    0.337665    0.752230    0.000000
   239  O1    s     0.638417    0.321045    0.083305    0.000000
   240  O2    s     0.666849    0.319688    0.422306    0.000000
   241  O2    s     0.378212    0.337269    0.967765    0.000000
   242  O3    s     0.680788    0.032552    0.311134    0.000000
   243  O2    s     0.958675    0.614910    0.639196    0.000000
   244  O2    s     0.619706    0.651916    0.474191    0.000000
   245  O2    s     0.337057    0.962557    0.807488    0.000000
   246  O2    s     0.044279    0.378386    0.140794    0.000000
   247  O2    s     0.338715    0.368987    0.370218    0.000000
   248  O2    s     0.047453    0.660450    0.039165    0.000000
   249  O2    s     0.615797    0.954168    0.704290    0.000000
   250  O2    s     0.660112    0.625802    0.865201    0.000000
   251  O2    s     0.959284    0.332127    0.535673    0.000000
   252  O2    s     0.387633    0.044224    0.208226    0.000000
   253  O3    s     0.781244    0.296202    0.016749    0.000000
   254  O2    s     0.689966    0.459302    0.353142    0.000000
   255  O2    s     0.528601    0.213175    0.684345    0.000000
   256  O2    s     0.221078    0.683226    0.518844    0.000000
   257  O2    s     0.308665    0.535359    0.850836    0.000000
   258  O2    s     0.475698    0.784005    0.189312    0.000000
   259  O2    s     0.314110    0.772926    0.327487    0.000000
   260  O2    s     0.472104    0.681824    0.990443    0.000000
   261  O2    s     0.216628    0.525917    0.657619    0.000000
   262  O2    s     0.688833    0.223278    0.823349    0.000000
   263  O2    s     0.529790    0.304899    0.491702    0.000000
   264  O3    s     0.786661    0.479324    0.161318    0.000000
   265  O3    s     0.804790    0.543470    0.032145    0.000000
   266  O2    s     0.466985    0.252025    0.368158    0.000000
   267  O2    s     0.736518    0.200288    0.700674    0.000000
   268  O2    s     0.206350    0.461607    0.535800    0.000000
   269  O2    s     0.531122    0.742563    0.868332    0.000000
   270  O2    s     0.274148    0.799530    0.207484    0.000000
   271  O2    s     0.534273    0.791086    0.309763    0.000000
   272  O2    s     0.257741    0.462562    0.972107    0.000000
   273  O2    s     0.205706    0.736088    0.640705    0.000000
   274  O2    s     0.466912    0.209788    0.806487    0.000000
   275  O2    s     0.738883    0.524070    0.474382    0.000000
   276  O3    s     0.801461    0.240898    0.143345    0.000000
   277  O2    s     0.241069    0.332397    0.899824    0.000000
   278  O2    s     0.674885    0.912783    0.239861    0.000000
   279  O2    s     0.088446    0.751332    0.570011    0.000000
   280  O2    s     0.757447    0.660009    0.404482    0.000000
   281  O2    s     0.328725    0.086237    0.737200    0.000000
   282  O2    s     0.913166    0.239809    0.071344    0.000000
   283  O2    s     0.331386    0.233273    0.439452    0.000000
   284  O2    s     0.910486    0.662357    0.105904    0.000000
   285  O2    s     0.755936    0.089212    0.772441    0.000000
   286  O2    s     0.670679    0.756081    0.937106    0.000000
   287  O2    s     0.085800    0.324873    0.605574    0.000000
   288  O2    s     0.252091    0.912616    0.277344    0.000000
   289  O2    s     0.590469    0.554398    0.987908    0.000000
   290  O3    s     0.428874    0.015093    0.335845    0.000000
   291  O2    s     0.970044    0.408041    0.658150    0.000000
   292  O2    s     0.410921    0.432854    0.492637    0.000000
   293  O2    s     0.556928    0.976170    0.825926    0.000000
   294  O2    s     0.028079    0.579764    0.157584    0.000000
   295  O2    s     0.559247    0.575168    0.351444    0.000000
   296  O2    s     0.022079    0.441602    0.020898    0.000000
   297  O2    s     0.410199    0.967146    0.685263    0.000000
   298  O2    s     0.440819    0.422844    0.845539    0.000000
   299  O2    s     0.974460    0.551073    0.516843    0.000000
   300  O2    s     0.592555    0.026729    0.187292    0.000000
   301  O3    s     0.594941    0.174985    0.251156    0.000000
   302  O2    s     0.841761    0.414469    0.586943    0.000000
   303  O2    s     0.577290    0.422764    0.913965    0.000000
   304  O2    s     0.416054    0.840522    0.756153    0.000000
   305  O2    s     0.158336    0.573766    0.089240    0.000000
   306  O2    s     0.420243    0.570501    0.422034    0.000000
   307  F     s     0.488761    0.956704    0.269454    0.000000
   308  F     s     0.092179    0.541459    0.589062    0.000000
   309  F     s     0.451656    0.545497    0.920584    0.000000
   310  F     s     0.544401    0.092569    0.756108    0.000000
   311  F     s     0.856112    0.417255    0.095286    0.000000
   312  F     s     0.541790    0.449097    0.423046    0.000000
--------------------------------------------------------------------------------

  Final Cartesian lattice vectors (Angstroms) :

       11.989970   -0.005158   -0.000679
       -6.086222   10.358254   -0.000591
        0.080318   -0.089419   29.491867


  Final cell parameters and derivatives :

--------------------------------------------------------------------------------
       a           11.989971 Angstrom     dE/de1(xx)     0.000739 eV/strain
       b           12.013972 Angstrom     dE/de2(yy)     0.000840 eV/strain
       c           29.492112 Angstrom     dE/de3(zz)     0.000601 eV/strain
       alpha       90.231646 Degrees      dE/de4(yz)     0.000045 eV/strain
       beta        89.847133 Degrees      dE/de5(xz)    -0.000005 eV/strain
       gamma      120.461963 Degrees      dE/de6(xy)    -0.000074 eV/strain
--------------------------------------------------------------------------------

  Primitive cell volume =          3661.820505 Angs**3

  Density of cell =      1.747244 g/cm**3

  Non-primitive cell volume =          3661.820505 Angs**3


  Final internal derivatives :

--------------------------------------------------------------------------------
   No.  Atomic          a             b             c           Radius
        Label          (eV)          (eV)          (eV)        (eV/Angs)
--------------------------------------------------------------------------------
      1 Ge    c       0.000000      0.000000      0.000000      0.000000
      2 Si    c      -0.000383      0.000573      0.001183      0.000000
      3 Si    c       0.000008     -0.000008      0.000084      0.000000
      4 Si    c      -0.000023      0.000003     -0.000069      0.000000
      5 Si    c       0.000049     -0.000010     -0.000216      0.000000
      6 Si    c      -0.000018      0.000009      0.000065      0.000000
      7 Si    c      -0.000010      0.000083     -0.000327      0.000000
      8 Si    c      -0.000008     -0.000007      0.000039      0.000000
      9 Si    c      -0.000013      0.000007      0.000035      0.000000
     10 Si    c       0.000014     -0.000036     -0.000064      0.000000
     11 Si    c      -0.000011      0.000028     -0.000032      0.000000
     12 Ge    c       0.000130      0.000175     -0.000959      0.000000
     13 Si    c       0.000220     -0.000257     -0.000044      0.000000
     14 Ge    c       0.000081     -0.000450     -0.001290      0.000000
     15 Si    c      -0.000017     -0.000000     -0.000016      0.000000
     16 Si    c       0.000006     -0.000009      0.000112      0.000000
     17 Si    c      -0.000013      0.000024      0.000053      0.000000
     18 Si    c       0.000069     -0.000033     -0.000044      0.000000
     19 Si    c       0.000073     -0.000115      0.000240      0.000000
     20 Si    c       0.000023     -0.000013      0.000076      0.000000
     21 Si    c       0.000001      0.000005     -0.000073      0.000000
     22 Si    c      -0.000076      0.000066     -0.000012      0.000000
     23 Si    c       0.000001     -0.000008      0.000007      0.000000
     24 Si    c       0.000061     -0.000095      0.000480      0.000000
     25 Si    c       0.000064     -0.000058      0.000130      0.000000
     26 Si    c       0.000043     -0.000001      0.000079      0.000000
     27 Si    c      -0.000005      0.000020     -0.000060      0.000000
     28 Si    c       0.000010      0.000035      0.000189      0.000000
     29 Si    c      -0.000048     -0.000000     -0.000051      0.000000
     30 Si    c       0.000041     -0.000055      0.000172      0.000000
     31 Si    c      -0.000016     -0.000013     -0.000010      0.000000
     32 Si    c      -0.000023      0.000038     -0.000102      0.000000
     33 Si    c       0.000040     -0.000007      0.000028      0.000000
     34 Si    c       0.000011      0.000044     -0.000078      0.000000
     35 Si    c      -0.000001     -0.000023      0.000028      0.000000
     36 Si    c      -0.000144      0.000030      0.000009      0.000000
     37 Si    c      -0.000033      0.000026     -0.000186      0.000000
     38 Si    c       0.000061     -0.000091     -0.000159      0.000000
     39 Si    c      -0.000013      0.000022      0.000013      0.000000
     40 Si    c       0.000021      0.000004     -0.000008      0.000000
     41 Si    c      -0.000042      0.000022      0.000006      0.000000
     42 Si    c       0.000063     -0.000063     -0.000082      0.000000
     43 Si    c       0.000039     -0.000024     -0.000014      0.000000
     44 Si    c       0.000000      0.000109      0.000111      0.000000
     45 Si    c       0.000034     -0.000014     -0.000036      0.000000
     46 Si    c      -0.000013     -0.000051      0.000043      0.000000
     47 Si    c       0.000004     -0.000019     -0.000020      0.000000
     48 Si    c      -0.000076      0.000012      0.000090      0.000000
     49 Si    c      -0.000035     -0.000022      0.000049      0.000000
     50 Si    c       0.000095     -0.000086     -0.000554      0.000000
     51 Si    c       0.000007     -0.000019      0.000099      0.000000
     52 Si    c       0.000029      0.000010     -0.000197      0.000000
     53 Si    c       0.000033      0.000014      0.000071      0.000000
     54 Si    c      -0.000129      0.000070     -0.000382      0.000000
     55 Si    c      -0.000142     -0.000029      0.000693      0.000000
     56 Si    c      -0.000010     -0.000005      0.000070      0.000000
     57 Si    c       0.000017     -0.000018      0.000046      0.000000
     58 Si    c      -0.000026      0.000003     -0.000110      0.000000
     59 Si    c       0.000002      0.000003     -0.000086      0.000000
     60 Si    c       0.000145     -0.000048      0.000080      0.000000
     61 O2    c       0.000017      0.000066     -0.000144      0.000000
     62 O2    c      -0.000143      0.000293     -0.000115      0.000000
     63 O2    c      -0.000009      0.000012      0.000002      0.000000
     64 O2    c       0.000011     -0.000011     -0.000016      0.000000
     65 O2    c      -0.000018      0.000009      0.000033      0.000000
     66 O2    c       0.000136      0.000046      0.000277      0.000000
     67 O2    c      -0.000092     -0.000018      0.000008      0.000000
     68 O2    c       0.000026     -0.000010      0.000023      0.000000
     69 O2    c       0.000002      0.000008     -0.000041      0.000000
     70 O2    c      -0.000032      0.000109      0.000132      0.000000
     71 O3    c      -0.000228      0.000120     -0.000298      0.000000
     72 O2    c       0.000015     -0.000017      0.000027      0.000000
     73 O3    c      -0.000038      0.000001      0.000034      0.000000
     74 O2    c       0.000001      0.000037     -0.000062      0.000000
     75 O3    c       0.000640     -0.000287     -0.000379      0.000000
     76 O2    c       0.000030     -0.000005     -0.000040      0.000000
     77 O2    c      -0.000012     -0.000018     -0.000060      0.000000
     78 O2    c      -0.000009      0.000004     -0.000022      0.000000
     79 O2    c       0.000091      0.000015      0.000020      0.000000
     80 O2    c      -0.000274      0.000248      0.000123      0.000000
     81 O2    c      -0.000007      0.000015      0.000001      0.000000
     82 O2    c       0.000012      0.000007     -0.000020      0.000000
     83 O2    c       0.000004      0.000004      0.000006      0.000000
     84 O2    c      -0.000018      0.000109      0.000038      0.000000
     85 O2    c       0.000047      0.000423     -0.000261      0.000000
     86 O2    c       0.000054     -0.000046     -0.000019      0.000000
     87 O2    c      -0.000012     -0.000001     -0.000001      0.000000
     88 O2    c       0.000020      0.000023     -0.000018      0.000000
     89 O2    c       0.000007     -0.000009      0.000003      0.000000
     90 O2    c      -0.000009     -0.000002     -0.000024      0.000000
     91 O2    c      -0.000143      0.000008      0.000675      0.000000
     92 O2    c      -0.000013      0.000016     -0.000079      0.000000
     93 O2    c       0.000003     -0.000007      0.000018      0.000000
     94 O2    c      -0.000044      0.000009     -0.000299      0.000000
     95 O2    c       0.000036     -0.000016      0.000033      0.000000
     96 O2    c       0.000012     -0.000029      0.000251      0.000000
     97 O2    c      -0.000020      0.000034      0.000018      0.000000
     98 O2    c       0.000001     -0.000221      0.000109      0.000000
     99 O2    c       0.000013      0.000001      0.000013      0.000000
    100 O2    c      -0.000016      0.000025     -0.000018      0.000000
    101 O2    c       0.000002      0.000034     -0.000003      0.000000
    102 O2    c      -0.000060      0.000000      0.000074      0.000000
    103 O2    c       0.000477     -0.000511     -0.000289      0.000000
    104 O2    c      -0.000002     -0.000003     -0.000029      0.000000
    105 O2    c       0.000001      0.000009     -0.000005      0.000000
    106 O2    c       0.000011     -0.000008     -0.000009      0.000000
    107 O2    c      -0.000002     -0.000006     -0.000002      0.000000
    108 O2    c       0.000007     -0.000121     -0.000118      0.000000
    109 O2    c       0.000006     -0.000002      0.000037      0.000000
    110 O2    c       0.000022      0.000004      0.000036      0.000000
    111 O2    c      -0.000044      0.000036      0.000103      0.000000
    112 O2    c       0.000004      0.000019     -0.000069      0.000000
    113 O1    c       0.000038      0.000104     -0.000602      0.000000
    114 O2    c       0.000011     -0.000012     -0.000032      0.000000
    115 O2    c      -0.000087     -0.000036      0.000045      0.000000
    116 O3    c       0.000004      0.000080      0.000100      0.000000
    117 O2    c      -0.000010      0.000013      0.000008      0.000000
    118 O2    c      -0.000036      0.000023      0.000049      0.000000
    119 O2    c       0.000022     -0.000030      0.000019      0.000000
    120 O2    c       0.000012     -0.000001      0.000037      0.000000
    121 O2    c      -0.000005     -0.000012      0.000002      0.000000
    122 O2    c       0.000078     -0.000024     -0.000056      0.000000
    123 O2    c      -0.000017     -0.000021     -0.000036      0.000000
    124 O2    c       0.000002     -0.000023     -0.000011      0.000000
    125 O2    c      -0.000010      0.000003     -0.000007      0.000000
    126 O2    c      -0.000091      0.000055      0.000071      0.000000
    127 O3    c       0.000345     -0.000378     -0.000027      0.000000
    128 O2    c       0.000009      0.000031      0.000017      0.000000
    129 O2    c       0.000003      0.000031     -0.000055      0.000000
    130 O2    c       0.000021     -0.000011     -0.000005      0.000000
    131 O2    c      -0.000028      0.000063     -0.000039      0.000000
    132 O2    c       0.000036     -0.000002     -0.000045      0.000000
    133 O2    c      -0.000042      0.000021      0.000068      0.000000
    134 O2    c       0.000004      0.000011      0.000026      0.000000
    135 O2    c       0.000017      0.000011      0.000013      0.000000
    136 O2    c      -0.000005      0.000023     -0.000007      0.000000
    137 O2    c       0.000002     -0.000017      0.000041      0.000000
    138 O3    c      -0.000036      0.000078      0.000054      0.000000
    139 O3    c      -0.000088      0.000182     -0.000271      0.000000
    140 O2    c      -0.000010     -0.000115     -0.000197      0.000000
    141 O2    c      -0.000011      0.000034     -0.000050      0.000000
    142 O2    c       0.000011      0.000008     -0.000025      0.000000
    143 O2    c      -0.000027      0.000011     -0.000039      0.000000
    144 O2    c       0.000015     -0.000030     -0.000035      0.000000
    145 O2    c      -0.000008     -0.000030      0.000050      0.000000
    146 O2    c      -0.000012      0.000014      0.000043      0.000000
    147 O2    c       0.000019     -0.000005      0.000023      0.000000
    148 O2    c      -0.000005      0.000038      0.000056      0.000000
    149 O2    c       0.000009     -0.000029      0.000022      0.000000
    150 O3    c       0.000044     -0.000201      0.000494      0.000000
    151 O2    c       0.000007      0.000003     -0.000040      0.000000
    152 O2    c      -0.000004      0.000011     -0.000107      0.000000
    153 O2    c      -0.000014      0.000022     -0.000000      0.000000
    154 O2    c      -0.000015      0.000000     -0.000099      0.000000
    155 O2    c      -0.000019      0.000017     -0.000007      0.000000
    156 O2    c      -0.000001      0.000021      0.000049      0.000000
    157 O2    c       0.000015     -0.000012     -0.000012      0.000000
    158 O2    c       0.000019     -0.000013      0.000163      0.000000
    159 O2    c       0.000015     -0.000007      0.000095      0.000000
    160 O2    c      -0.000001     -0.000001      0.000012      0.000000
    161 O2    c       0.000004     -0.000012      0.000027      0.000000
    162 O2    c       0.000001      0.000006      0.000257      0.000000
    163 O2    c       0.000060      0.000142      0.000408      0.000000
    164 O3    c      -0.000166      0.000222      0.000988      0.000000
    165 O2    c       0.000008     -0.000014      0.000035      0.000000
    166 O2    c      -0.000007      0.000024      0.000008      0.000000
    167 O2    c      -0.000023     -0.000012      0.000006      0.000000
    168 O2    c      -0.000055      0.000063      0.000075      0.000000
    169 O2    c      -0.000044      0.000028     -0.000069      0.000000
    170 O2    c       0.000005     -0.000046     -0.000004      0.000000
    171 O2    c       0.000017     -0.000026     -0.000009      0.000000
    172 O2    c       0.000004      0.000003      0.000005      0.000000
    173 O2    c      -0.000008     -0.000003     -0.000019      0.000000
    174 O2    c       0.000081     -0.000046     -0.000180      0.000000
    175 O3    c       0.000032     -0.000026     -0.000085      0.000000
    176 O2    c      -0.000010      0.000001      0.000002      0.000000
    177 O2    c       0.000019     -0.000029      0.000039      0.000000
    178 O2    c       0.000003     -0.000020     -0.000013      0.000000
    179 O2    c       0.000004      0.000003     -0.000019      0.000000
    180 O2    c      -0.000024      0.000022     -0.000058      0.000000
    181 F     c       0.000019      0.000065     -0.000111      0.000000
    182 F     c      -0.000008      0.000001     -0.000010      0.000000
    183 F     c       0.000073     -0.000088      0.000047      0.000000
    184 F     c       0.000002      0.000004     -0.000014      0.000000
    185 F     c      -0.000169      0.000025     -0.000111      0.000000
    186 F     c       0.000010     -0.000001      0.000011      0.000000
    187 O2    s      -0.000030     -0.000001      0.000014      0.000000
    188 O2    s      -0.000136      0.000017     -0.000034      0.000000
    189 O2    s      -0.000003     -0.000004      0.000038      0.000000
    190 O2    s      -0.000021      0.000005      0.000017      0.000000
    191 O2    s       0.000001     -0.000015      0.000052      0.000000
    192 O2    s       0.000022      0.000033     -0.000211      0.000000
    193 O2    s       0.000064     -0.000004     -0.000020      0.000000
    194 O2    s       0.000003     -0.000007      0.000007      0.000000
    195 O2    s       0.000003      0.000020      0.000023      0.000000
    196 O2    s       0.000050     -0.000034     -0.000018      0.000000
    197 O3    s       0.000168     -0.000060      0.000115      0.000000
    198 O2    s       0.000014     -0.000014     -0.000012      0.000000
    199 O3    s       0.000035      0.000009     -0.000042      0.000000
    200 O2    s       0.000002      0.000001     -0.000000      0.000000
    201 O3    s      -0.000389      0.000016      0.000142      0.000000
    202 O2    s      -0.000000      0.000013     -0.000010      0.000000
    203 O2    s       0.000017     -0.000022      0.000015      0.000000
    204 O2    s      -0.000038      0.000019      0.000030      0.000000
    205 O2    s       0.000004     -0.000014      0.000022      0.000000
    206 O2    s      -0.000079      0.000074     -0.000141      0.000000
    207 O2    s      -0.000005     -0.000009      0.000044      0.000000
    208 O2    s       0.000016      0.000001      0.000089      0.000000
    209 O2    s       0.000002     -0.000038      0.000085      0.000000
    210 O2    s      -0.000029      0.000093     -0.000107      0.000000
    211 O2    s       0.000008      0.000127      0.000158      0.000000
    212 O2    s      -0.000000     -0.000008     -0.000064      0.000000
    213 O2    s       0.000023     -0.000019     -0.000050      0.000000
    214 O2    s      -0.000001      0.000006     -0.000051      0.000000
    215 O2    s      -0.000005     -0.000001     -0.000036      0.000000
    216 O2    s       0.000041      0.000004      0.000019      0.000000
    217 O2    s       0.000111     -0.000031     -0.000293      0.000000
    218 O2    s       0.000003     -0.000001      0.000021      0.000000
    219 O2    s      -0.000008     -0.000009     -0.000032      0.000000
    220 O2    s       0.000018     -0.000035      0.000023      0.000000
    221 O2    s      -0.000045     -0.000044     -0.000075      0.000000
    222 O2    s      -0.000135      0.000003      0.000383      0.000000
    223 O2    s      -0.000052      0.000030      0.000089      0.000000
    224 O2    s       0.000049     -0.000175      0.000018      0.000000
    225 O2    s      -0.000004     -0.000000     -0.000024      0.000000
    226 O2    s      -0.000014     -0.000007     -0.000026      0.000000
    227 O2    s      -0.000015      0.000025     -0.000040      0.000000
    228 O2    s      -0.000059     -0.000035     -0.000134      0.000000
    229 O2    s       0.000149     -0.000235     -0.000046      0.000000
    230 O2    s      -0.000043      0.000017      0.000032      0.000000
    231 O2    s       0.000004     -0.000000      0.000007      0.000000
    232 O2    s      -0.000002      0.000001      0.000043      0.000000
    233 O2    s       0.000003      0.000007      0.000052      0.000000
    234 O2    s       0.000042     -0.000108     -0.000033      0.000000
    235 O2    s      -0.000004     -0.000002      0.000007      0.000000
    236 O2    s       0.000002     -0.000002      0.000004      0.000000
    237 O2    s       0.000084     -0.000075     -0.000026      0.000000
    238 O2    s       0.000004      0.000019     -0.000033      0.000000
    239 O1    s      -0.000237     -0.000093      0.000324      0.000000
    240 O2    s       0.000011     -0.000021      0.000037      0.000000
    241 O2    s       0.000083      0.000077      0.000007      0.000000
    242 O3    s      -0.000004     -0.000005      0.000088      0.000000
    243 O2    s       0.000005     -0.000007      0.000032      0.000000
    244 O2    s      -0.000021      0.000023     -0.000001      0.000000
    245 O2    s      -0.000021     -0.000009      0.000047      0.000000
    246 O2    s      -0.000019      0.000002     -0.000019      0.000000
    247 O2    s      -0.000017      0.000013     -0.000037      0.000000
    248 O2    s       0.000013      0.000014     -0.000066      0.000000
    249 O2    s       0.000010     -0.000021     -0.000017      0.000000
    250 O2    s       0.000084     -0.000014     -0.000114      0.000000
    251 O2    s      -0.000003     -0.000007     -0.000034      0.000000
    252 O2    s       0.000013     -0.000012     -0.000270      0.000000
    253 O3    s      -0.000165      0.000235     -0.000449      0.000000
    254 O2    s      -0.000004      0.000011     -0.000193      0.000000
    255 O2    s      -0.000004     -0.000010     -0.000043      0.000000
    256 O2    s       0.000001      0.000006     -0.000033      0.000000
    257 O2    s      -0.000017      0.000014      0.000093      0.000000
    258 O2    s       0.000010     -0.000025     -0.000040      0.000000
    259 O2    s       0.000005      0.000040     -0.000031      0.000000
    260 O2    s      -0.000015      0.000003      0.000057      0.000000
    261 O2    s      -0.000001     -0.000003      0.000024      0.000000
    262 O2    s       0.000023     -0.000026      0.000129      0.000000
    263 O2    s       0.000001     -0.000004      0.000070      0.000000
    264 O3    s       0.000068     -0.000047      0.000212      0.000000
    265 O3    s       0.000027     -0.000125     -0.000005      0.000000
    266 O2    s       0.000081      0.000199      0.000262      0.000000
    267 O2    s       0.000004      0.000000     -0.000043      0.000000
    268 O2    s       0.000001     -0.000013     -0.000002      0.000000
    269 O2    s      -0.000055      0.000060     -0.000013      0.000000
    270 O2    s      -0.000017     -0.000010     -0.000029      0.000000
    271 O2    s      -0.000048      0.000034     -0.000005      0.000000
    272 O2    s      -0.000015      0.000012      0.000033      0.000000
    273 O2    s      -0.000007     -0.000002      0.000011      0.000000
    274 O2    s      -0.000009     -0.000032      0.000033      0.000000
    275 O2    s       0.000046     -0.000008      0.000062      0.000000
    276 O3    s      -0.000065      0.000240     -0.000534      0.000000
    277 O2    s      -0.000058     -0.000036      0.000042      0.000000
    278 O2    s       0.000022     -0.000036      0.000049      0.000000
    279 O2    s       0.000002     -0.000006      0.000015      0.000000
    280 O2    s       0.000019     -0.000033     -0.000096      0.000000
    281 O2    s      -0.000000     -0.000014     -0.000028      0.000000
    282 O2    s       0.000024     -0.000053     -0.000043      0.000000
    283 O2    s      -0.000039      0.000028     -0.000022      0.000000
    284 O2    s      -0.000066      0.000070      0.000102      0.000000
    285 O2    s       0.000004     -0.000009      0.000017      0.000000
    286 O2    s       0.000021      0.000025      0.000161      0.000000
    287 O2    s       0.000004     -0.000004     -0.000009      0.000000
    288 O2    s       0.000051     -0.000048      0.000146      0.000000
    289 O2    s      -0.000121     -0.000090     -0.000429      0.000000
    290 O3    s       0.000235     -0.000254     -0.001270      0.000000
    291 O2    s      -0.000012      0.000015      0.000020      0.000000
    292 O2    s      -0.000018      0.000013      0.000001      0.000000
    293 O2    s       0.000007     -0.000006      0.000062      0.000000
    294 O2    s      -0.000006     -0.000028     -0.000001      0.000000
    295 O2    s       0.000011     -0.000024      0.000044      0.000000
    296 O2    s      -0.000054      0.000027     -0.000065      0.000000
    297 O2    s      -0.000004     -0.000006     -0.000018      0.000000
    298 O2    s       0.000032     -0.000070     -0.000262      0.000000
    299 O2    s      -0.000011     -0.000002     -0.000047      0.000000
    300 O2    s      -0.000080      0.000009      0.000116      0.000000
    301 O3    s      -0.000032      0.000145      0.000147      0.000000
    302 O2    s      -0.000009     -0.000004      0.000008      0.000000
    303 O2    s      -0.000044      0.000041      0.000253      0.000000
    304 O2    s      -0.000007     -0.000004     -0.000001      0.000000
    305 O2    s       0.000009     -0.000011      0.000010      0.000000
    306 O2    s       0.000011     -0.000018      0.000030      0.000000
    307 F     s       0.000013     -0.000007      0.000553      0.000000
    308 F     s       0.000015     -0.000003      0.000022      0.000000
    309 F     s      -0.000166      0.000182     -0.000048      0.000000
    310 F     s      -0.000004     -0.000015      0.000012      0.000000
    311 F     s       0.000238     -0.000065      0.000630      0.000000
    312 F     s      -0.000032      0.000011     -0.000019      0.000000
--------------------------------------------------------------------------------
  Maximum abs         0.000640      0.000573      0.001290      0.000000
--------------------------------------------------------------------------------


  Time to end of optimisation =       7.3569 seconds


  Peak dynamic memory used =      19.13 MB 


  Timing analysis for GULP :

--------------------------------------------------------------------------------
  Task / Subroutine                                          Time (Seconds)
--------------------------------------------------------------------------------
  Calculation of reciprocal space energy and derivatives          0.2831
  Calculation of real space energy and derivatives                5.9253
  Calculation of three-body energy and derivatives                0.6736
  Calculation of matrix inversion                                 0.2599
--------------------------------------------------------------------------------
  Total CPU time                                                  7.3570
--------------------------------------------------------------------------------


  Dump file written as out.res                                                 
  CIF file written as out.cif                                                 


  Job Finished at 14:38.48  3rd December   2016                               

