********************************************************************************
*                       GENERAL UTILITY LATTICE PROGRAM                        *
*                                 Julian Gale                                  *
*                      Nanochemistry Research Institute                        *
*                           Department of Chemistry                            *
*                    Curtin University, Western Australia                      *
********************************************************************************
* Version = 4.2.0 * Last modified =  20th January 2014                         *
********************************************************************************
*  optimise     - perform optimisation run                                     *
*  conp         - constant pressure calculation                                *
*  qok          - running with non charge neutral cell is OK                   *
********************************************************************************

  Job Started  at 07:10.54  3rd December   2016                               

  Number of CPUs =     1


  Total number of configurations input =   1

********************************************************************************
*  Input for Configuration =   1                                               *
********************************************************************************

  Formula = Ge3Si57O120F6                                               

  Number of irreducible atoms/shells =     312


  Total number atoms/shells =     312

  Dimensionality = 3               :  Bulk   


  Charge on solid   =  -6.000000 =>neutralising background added


  Cartesian lattice vectors (Angstroms) :

       11.939604    0.000000    0.000000
       -6.044828   10.367539    0.000000
       -0.208869   -0.147596   29.535843

  Cell parameters (Angstroms/Degrees):

  a =      11.9396    alpha =  90.0433
  b =      12.0011    beta  =  90.4052
  c =      29.5370    gamma = 120.2445

  Initial cell volume =        3656.074070 Angs**3

  Temperature of configuration =  0.000     K 

  Pressure of configuration =         0.000 GPa 

  Fractional coordinates of asymmetric unit :

--------------------------------------------------------------------------------
   No.  Atomic       x           y          z         Charge      Occupancy
        Label      (Frac)      (Frac)     (Frac)        (e)         (Frac)  
--------------------------------------------------------------------------------
      1 Ge    c    0.699600    0.375700    0.033890     4.00000    1.000000    
      2 Si    c    0.625031 *  0.330437 *  0.369525 *   4.00000    1.000000    
      3 Si    c    0.677098 *  0.297574 *  0.700273 *   4.00000    1.000000    
      4 Si    c    0.296172 *  0.621552 *  0.533567 *   4.00000    1.000000    
      5 Si    c    0.378538 *  0.676482 *  0.865082 *   4.00000    1.000000    
      6 Si    c    0.321763 *  0.700165 *  0.199687 *   4.00000    1.000000    
      7 Si    c    0.373019 *  0.692389 *  0.302127 *   4.00000    1.000000    
      8 Si    c    0.324415 *  0.621228 *  0.965053 *   4.00000    1.000000    
      9 Si    c    0.297072 *  0.676152 *  0.633859 *   4.00000    1.000000    
     10 Si    c    0.622440 *  0.297643 *  0.800465 *   4.00000    1.000000    
     11 Si    c    0.676018 *  0.382703 *  0.469900 *   4.00000    1.000000    
     12 Si    c    0.693436 *  0.319675 *  0.132707 *   4.00000    1.000000    
     13 Si    c    0.529298 *  0.415682 *  0.966090 *   4.00000    1.000000    
     14 Ge    c    0.583393 *  0.114445 *  0.304835 *   4.00000    1.000000    
     15 Si    c    0.886943 *  0.470054 *  0.635574 *   4.00000    1.000000    
     16 Si    c    0.466219 *  0.582867 *  0.468138 *   4.00000    1.000000    
     17 Si    c    0.416260 *  0.886478 *  0.800537 *   4.00000    1.000000    
     18 Si    c    0.112487 *  0.531726 *  0.131470 *   4.00000    1.000000    
     19 Si    c    0.412847 *  0.525052 *  0.366810 *   4.00000    1.000000    
     20 Si    c    0.111272 *  0.582757 *  0.028691 *   4.00000    1.000000    
     21 Si    c    0.468501 *  0.886524 *  0.699231 *   4.00000    1.000000    
     22 Si    c    0.583448 *  0.469987 *  0.864713 *   4.00000    1.000000    
     23 Si    c    0.886800 *  0.418216 *  0.534287 *   4.00000    1.000000    
     24 Si    c    0.532797 *  0.116406 *  0.201147 *   4.00000    1.000000    
     25 Si    c    0.301297 *  0.399079 *  0.850017 *   4.00000    1.000000    
     26 Si    c    0.605236 *  0.904936 *  0.183545 *   4.00000    1.000000    
     27 Si    c    0.094717 *  0.698972 *  0.519018 *   4.00000    1.000000    
     28 Si    c    0.697335 *  0.605641 *  0.352935 *   4.00000    1.000000    
     29 Si    c    0.397618 *  0.095507 *  0.685271 *   4.00000    1.000000    
     30 Si    c    0.896037 *  0.297175 *  0.014070 *   4.00000    1.000000    
     31 Si    c    0.396475 *  0.303054 *  0.482859 *   4.00000    1.000000    
     32 Si    c    0.899106 *  0.603589 *  0.144624 *   4.00000    1.000000    
     33 Si    c    0.698647 *  0.096507 *  0.814949 *   4.00000    1.000000    
     34 Si    c    0.602980 *  0.696969 *  0.980468 *   4.00000    1.000000    
     35 Si    c    0.096421 *  0.398063 *  0.649083 *   4.00000    1.000000    
     36 Si    c    0.297528 *  0.898081 *  0.319076 *   4.00000    1.000000    
     37 Si    c    0.250314 *  0.340873 *  0.950009 *   4.00000    1.000000    
     38 Ge    c    0.648779 *  0.909992 *  0.284562 *   4.00000    1.000000    
     39 Si    c    0.088081 *  0.748979 *  0.619602 *   4.00000    1.000000    
     40 Si    c    0.746438 *  0.662164 *  0.453727 *   4.00000    1.000000    
     41 Si    c    0.339659 *  0.087908 *  0.785492 *   4.00000    1.000000    
     42 Si    c    0.907661 *  0.249479 *  0.116129 *   4.00000    1.000000    
     43 Si    c    0.340316 *  0.247863 *  0.382254 *   4.00000    1.000000    
     44 Si    c    0.905499 *  0.659619 *  0.042691 *   4.00000    1.000000    
     45 Si    c    0.748706 *  0.088832 *  0.714666 *   4.00000    1.000000    
     46 Si    c    0.660602 *  0.748334 *  0.880104 *   4.00000    1.000000    
     47 Si    c    0.087519 *  0.339997 *  0.548588 *   4.00000    1.000000    
     48 Si    c    0.249471 *  0.912033 *  0.216508 *   4.00000    1.000000    
     49 Si    c    0.972670 *  0.121206 *  0.965494 *   4.00000    1.000000    
     50 Si    c    0.875552 *  0.850219 *  0.300306 *   4.00000    1.000000    
     51 Si    c    0.149409 *  0.028516 *  0.634056 *   4.00000    1.000000    
     52 Si    c    0.027320 *  0.879252 *  0.468246 *   4.00000    1.000000    
     53 Si    c    0.121782 *  0.149766 *  0.799758 *   4.00000    1.000000    
     54 Si    c    0.849182 *  0.971543 *  0.132208 *   4.00000    1.000000    
     55 Si    c    0.117887 *  0.966789 *  0.367111 *   4.00000    1.000000    
     56 Si    c    0.852483 *  0.880845 *  0.031329 *   4.00000    1.000000    
     57 Si    c    0.028548 *  0.150037 *  0.698946 *   4.00000    1.000000    
     58 Si    c    0.879065 *  0.027621 *  0.864849 *   4.00000    1.000000    
     59 Si    c    0.149243 *  0.122747 *  0.533509 *   4.00000    1.000000    
     60 Si    c    0.967794 *  0.848762 *  0.199019 *   4.00000    1.000000    
     61 O2    c    0.930005 *  0.003532 *  0.999608 *   0.87073    1.000000    
     62 O2    c    0.001650 *  0.928626 *  0.332361 *   0.87073    1.000000    
     63 O2    c    0.068945 *  0.070328 *  0.666002 *   0.87073    1.000000    
     64 O2    c    0.070430 *  0.001728 *  0.500397 *   0.87073    1.000000    
     65 O2    c    0.999922 *  0.069932 *  0.832047 *   0.87073    1.000000    
     66 O2    c    0.927062 *  0.930508 *  0.166667 *   0.87073    1.000000    
     67 O2    c    0.329674 *  0.566670 *  0.333909 *   0.87073    1.000000    
     68 O2    c    0.420762 *  0.761384 *  0.666775 *   0.87073    1.000000    
     69 O2    c    0.239042 *  0.659187 *  0.997819 *   0.87073    1.000000    
     70 O2    c    0.660688 *  0.421321 *  0.832806 *   0.87073    1.000000    
     71 O2    c    0.578858 *  0.239216 *  0.168458 *   0.87073    1.000000    
     72 O2    c    0.759025 *  0.342150 *  0.502498 *   0.87073    1.000000    
     73 O3    c    0.568259 *  0.334504 *  0.998090 *   1.33043    1.000000    
     74 O2    c    0.761739 *  0.420938 *  0.667932 *   0.87073    1.000000    
     75 O3    c    0.667349 *  0.251077 *  0.338146 *   1.33043    1.000000    
     76 O2    c    0.418062 *  0.659838 *  0.500372 *   0.87073    1.000000    
     77 O2    c    0.236207 *  0.581107 *  0.165299 *   0.87073    1.000000    
     78 O2    c    0.339608 *  0.761060 *  0.832658 *   0.87073    1.000000    
     79 O2    c    0.127075 *  0.213365 *  0.970743 *   0.87073    1.000000    
     80 O3    c    0.791294 *  0.914541 *  0.305079 *   1.33043    1.000000    
     81 O2    c    0.086682 *  0.874487 *  0.639404 *   0.87073    1.000000    
     82 O2    c    0.872822 *  0.788937 *  0.474226 *   0.87073    1.000000    
     83 O2    c    0.213293 *  0.087353 *  0.805635 *   0.87073    1.000000    
     84 O2    c    0.911737 *  0.126554 *  0.137000 *   0.87073    1.000000    
     85 O2    c    0.215290 *  0.120095 *  0.361675 *   0.87073    1.000000    
     86 O2    c    0.921398 *  0.796083 *  0.025764 *   0.87073    1.000000    
     87 O2    c    0.873640 *  0.087556 *  0.694027 *   0.87073    1.000000    
     88 O2    c    0.786895 *  0.873490 *  0.859524 *   0.87073    1.000000    
     89 O2    c    0.085413 *  0.213069 *  0.528421 *   0.87073    1.000000    
     90 O2    c    0.123918 *  0.911529 *  0.195567 *   0.87073    1.000000    
     91 O2    c    0.927715 *  0.854752 *  0.249593 *   0.87073    1.000000    
     92 O2    c    0.136761 *  0.068675 *  0.583616 *   0.87073    1.000000    
     93 O2    c    0.933192 *  0.064580 *  0.915388 *   0.87073    1.000000    
     94 O2    c    0.069030 *  0.135207 *  0.749119 *   0.87073    1.000000    
     95 O2    c    0.865311 *  0.931789 *  0.082353 *   0.87073    1.000000    
     96 O2    c    0.064575 *  0.930692 *  0.417570 *   0.87073    1.000000    
     97 O2    c    0.903803 *  0.203264 *  0.976421 *   0.87073    1.000000    
     98 O2    c    0.792731 *  0.698634 *  0.313881 *   0.87073    1.000000    
     99 O2    c    0.301526 *  0.098246 *  0.646634 *   0.87073    1.000000    
    100 O2    c    0.096724 *  0.797119 *  0.480639 *   0.87073    1.000000    
    101 O2    c    0.203553 *  0.301824 *  0.811322 *   0.87073    1.000000    
    102 O2    c    0.695797 *  0.904747 *  0.142377 *   0.87073    1.000000    
    103 O2    c    0.193039 *  0.889394 *  0.355695 *   0.87073    1.000000    
    104 O2    c    0.699878 *  0.795217 *  0.019297 *   0.87073    1.000000    
    105 O2    c    0.098822 *  0.301775 *  0.687231 *   0.87073    1.000000    
    106 O2    c    0.797292 *  0.097870 *  0.853435 *   0.87073    1.000000    
    107 O2    c    0.300954 *  0.206366 *  0.521456 *   0.87073    1.000000    
    108 O2    c    0.901025 *  0.699504 *  0.183628 *   0.87073    1.000000    
    109 O2    c    0.322323 *  0.645628 *  0.249859 *   0.87073    1.000000    
    110 O2    c    0.355274 *  0.678542 *  0.583778 *   0.87073    1.000000    
    111 O2    c    0.321907 *  0.678016 *  0.915154 *   0.87073    1.000000    
    112 O2    c    0.679359 *  0.355175 *  0.750496 *   0.87073    1.000000    
    113 O3    c    0.621068 *  0.307332 *  0.085653 *   1.33043    1.000000    
    114 O2    c    0.678627 *  0.327165 *  0.420081 *   0.87073    1.000000    
    115 O2    c    0.372020 *  0.330117 *  0.967674 *   0.87073    1.000000    
    116 O1    c    0.684619 *  0.052972 *  0.310445 *   1.73396    1.000000    
    117 O2    c    0.955928 *  0.626333 *  0.638123 *   0.87073    1.000000    
    118 O2    c    0.623150 *  0.671261 *  0.471429 *   0.87073    1.000000    
    119 O2    c    0.329259 *  0.955578 *  0.803683 *   0.87073    1.000000    
    120 O2    c    0.040074 *  0.376110 *  0.133442 *   0.87073    1.000000    
    121 O2    c    0.327898 *  0.368692 *  0.363910 *   0.87073    1.000000    
    122 O2    c    0.039903 *  0.666857 *  0.026840 *   0.87073    1.000000    
    123 O2    c    0.625357 *  0.955846 *  0.696573 *   0.87073    1.000000    
    124 O2    c    0.670240 *  0.626271 *  0.861681 *   0.87073    1.000000    
    125 O2    c    0.954456 *  0.330196 *  0.530365 *   0.87073    1.000000    
    126 O2    c    0.374909 *  0.041799 *  0.199313 *   0.87073    1.000000    
    127 O3    c    0.761579 *  0.288507 *  0.004452 *   1.33043    1.000000    
    128 O2    c    0.698545 *  0.472698 *  0.346727 *   0.87073    1.000000    
    129 O2    c    0.532626 *  0.229297 *  0.677981 *   0.87073    1.000000    
    130 O2    c    0.228048 *  0.697114 *  0.511505 *   0.87073    1.000000    
    131 O2    c    0.302718 *  0.533426 *  0.842222 *   0.87073    1.000000    
    132 O2    c    0.465846 *  0.772219 *  0.178709 *   0.87073    1.000000    
    133 O2    c    0.299565 *  0.764299 *  0.322418 *   0.87073    1.000000    
    134 O2    c    0.468296 *  0.697082 *  0.987885 *   0.87073    1.000000    
    135 O2    c    0.230722 *  0.533190 *  0.656181 *   0.87073    1.000000    
    136 O2    c    0.697992 *  0.229826 *  0.822894 *   0.87073    1.000000    
    137 O2    c    0.532045 *  0.306874 *  0.491757 *   0.87073    1.000000    
    138 O2    c    0.767561 *  0.467552 *  0.152384 *   0.87073    1.000000    
    139 O3    c    0.777264 *  0.546343 *  0.021465 *   1.33043    1.000000    
    140 O2    c    0.467030 *  0.249380 *  0.362677 *   0.87073    1.000000    
    141 O2    c    0.750503 *  0.215303 *  0.695234 *   0.87073    1.000000    
    142 O2    c    0.214228 *  0.465291 *  0.529062 *   0.87073    1.000000    
    143 O2    c    0.535254 *  0.750739 *  0.860662 *   0.87073    1.000000    
    144 O2    c    0.254738 *  0.787926 *  0.198496 *   0.87073    1.000000    
    145 O3    c    0.526648 *  0.766450 *  0.308075 *   1.33043    1.000000    
    146 O2    c    0.247948 *  0.465292 *  0.969988 *   0.87073    1.000000    
    147 O2    c    0.215293 *  0.750286 *  0.638994 *   0.87073    1.000000    
    148 O2    c    0.465721 *  0.215031 *  0.805071 *   0.87073    1.000000    
    149 O2    c    0.749008 *  0.538832 *  0.474127 *   0.87073    1.000000    
    150 O2    c    0.783988 *  0.253264 *  0.135623 *   0.87073    1.000000    
    151 O2    c    0.228373 *  0.324264 *  0.895783 *   0.87073    1.000000    
    152 O3    c    0.684809 *  0.906340 *  0.226944 *   1.33043    1.000000    
    153 O2    c    0.090285 *  0.768376 *  0.565406 *   0.87073    1.000000    
    154 O2    c    0.766497 *  0.680798 *  0.399647 *   0.87073    1.000000    
    155 O2    c    0.321827 *  0.089690 *  0.731258 *   0.87073    1.000000    
    156 O2    c    0.904279 *  0.233743 *  0.062087 *   0.87073    1.000000    
    157 O2    c    0.322946 *  0.229619 *  0.436481 *   0.87073    1.000000    
    158 O2    c    0.902633 *  0.672861 *  0.097791 *   0.87073    1.000000    
    159 O2    c    0.769367 *  0.092204 *  0.768890 *   0.87073    1.000000    
    160 O2    c    0.678654 *  0.767281 *  0.934425 *   0.87073    1.000000    
    161 O2    c    0.090035 *  0.322748 *  0.602747 *   0.87073    1.000000    
    162 O2    c    0.239598 *  0.910264 *  0.270598 *   0.87073    1.000000    
    163 O2    c    0.586015 *  0.557225 *  0.989489 *   0.87073    1.000000    
    164 O3    c    0.432793 *  0.021206 *  0.330705 *   1.33043    1.000000    
    165 O2    c    0.971719 *  0.413081 *  0.658334 *   0.87073    1.000000    
    166 O2    c    0.408599 *  0.441691 *  0.490808 *   0.87073    1.000000    
    167 O2    c    0.558782 *  0.970748 *  0.823578 *   0.87073    1.000000    
    168 O2    c    0.023965 *  0.586336 *  0.151303 *   0.87073    1.000000    
    169 O2    c    0.555020 *  0.586666 *  0.344177 *   0.87073    1.000000    
    170 O2    c    0.021891 *  0.440212 *  0.007746 *   0.87073    1.000000    
    171 O2    c    0.411064 *  0.970288 *  0.676155 *   0.87073    1.000000    
    172 O2    c    0.440971 *  0.412586 *  0.841770 *   0.87073    1.000000    
    173 O2    c    0.968992 *  0.558734 *  0.510630 *   0.87073    1.000000    
    174 O2    c    0.586193 *  0.028575 *  0.178483 *   0.87073    1.000000    
    175 O3    c    0.584612 *  0.173296 *  0.250381 *   1.33043    1.000000    
    176 O2    c    0.833312 *  0.416716 *  0.584852 *   0.87073    1.000000    
    177 O2    c    0.584043 *  0.418744 *  0.915415 *   0.87073    1.000000    
    178 O2    c    0.414979 *  0.833359 *  0.749747 *   0.87073    1.000000    
    179 O2    c    0.159445 *  0.580644 *  0.080483 *   0.87073    1.000000    
    180 O2    c    0.412910 *  0.581039 *  0.417102 *   0.87073    1.000000    
    181 F     c    0.489939 *  0.920027 *  0.259298 *   0.56000    1.000000    
    182 F     c    0.095463 *  0.547729 *  0.584048 *   0.56000    1.000000    
    183 F     c    0.449951 *  0.549372 *  0.915247 *   0.56000    1.000000    
    184 F     c    0.548084 *  0.095888 *  0.750179 *   0.56000    1.000000    
    185 F     c    0.862929 *  0.439065 *  0.072434 *   0.56000    1.000000    
    186 F     c    0.546137 *  0.451382 *  0.417858 *   0.56000    1.000000    
    187 O2    s    0.925972 *  0.002859 *  0.999375 *  -2.87073    1.000000    
    188 O2    s    0.001530 *  0.924572 *  0.332923 *  -2.87073    1.000000    
    189 O2    s    0.073404 *  0.074541 *  0.666110 *  -2.87073    1.000000    
    190 O2    s    0.074438 *  0.001547 *  0.500501 *  -2.87073    1.000000    
    191 O2    s    0.000012 *  0.074118 *  0.832105 *  -2.87073    1.000000    
    192 O2    s    0.923109 *  0.926114 *  0.166454 *  -2.87073    1.000000    
    193 O2    s    0.342163 *  0.575196 *  0.333924 *  -2.87073    1.000000    
    194 O2    s    0.412930 *  0.765542 *  0.666725 *  -2.87073    1.000000    
    195 O2    s    0.234066 *  0.647321 *  0.997791 *  -2.87073    1.000000    
    196 O2    s    0.648816 *  0.413592 *  0.832749 *  -2.87073    1.000000    
    197 O2    s    0.585977 *  0.234618 *  0.168175 *  -2.87073    1.000000    
    198 O2    s    0.763722 *  0.354345 *  0.502414 *  -2.87073    1.000000    
    199 O3    s    0.574467 *  0.346078 *  0.997576 *  -3.33043    1.000000    
    200 O2    s    0.765997 *  0.413352 *  0.667923 *  -2.87073    1.000000    
    201 O3    s    0.656315 *  0.248456 *  0.338741 *  -3.33043    1.000000    
    202 O2    s    0.410495 *  0.647968 *  0.500462 *  -2.87073    1.000000    
    203 O2    s    0.232215 *  0.588303 *  0.165359 *  -2.87073    1.000000    
    204 O2    s    0.351519 *  0.765308 *  0.832683 *  -2.87073    1.000000    
    205 O2    s    0.123154 *  0.216648 *  0.968038 *  -2.87073    1.000000    
    206 O3    s    0.790919 *  0.906752 *  0.303104 *  -3.33043    1.000000    
    207 O2    s    0.093474 *  0.877833 *  0.636821 *  -2.87073    1.000000    
    208 O2    s    0.876234 *  0.785463 *  0.471495 *  -2.87073    1.000000    
    209 O2    s    0.216668 *  0.094048 *  0.802954 *  -2.87073    1.000000    
    210 O2    s    0.904878 *  0.123326 *  0.134377 *  -2.87073    1.000000    
    211 O2    s    0.217987 *  0.117139 *  0.364373 *  -2.87073    1.000000    
    212 O2    s    0.912379 *  0.791540 *  0.028040 *  -2.87073    1.000000    
    213 O2    s    0.877236 *  0.094370 *  0.696659 *  -2.87073    1.000000    
    214 O2    s    0.783628 *  0.876937 *  0.862194 *  -2.87073    1.000000    
    215 O2    s    0.092387 *  0.216593 *  0.531018 *  -2.87073    1.000000    
    216 O2    s    0.121188 *  0.905128 *  0.198120 *  -2.87073    1.000000    
    217 O2    s    0.926877 *  0.853552 *  0.249045 *  -2.87073    1.000000    
    218 O2    s    0.139571 *  0.070231 *  0.583639 *  -2.87073    1.000000    
    219 O2    s    0.931534 *  0.066797 *  0.915349 *  -2.87073    1.000000    
    220 O2    s    0.070399 *  0.138533 *  0.749154 *  -2.87073    1.000000    
    221 O2    s    0.862074 *  0.930764 *  0.082458 *  -2.87073    1.000000    
    222 O2    s    0.066376 *  0.928956 *  0.417561 *  -2.87073    1.000000    
    223 O2    s    0.910588 *  0.204026 *  0.979136 *  -2.87073    1.000000    
    224 O2    s    0.791188 *  0.704340 *  0.316572 *  -2.87073    1.000000    
    225 O2    s    0.295079 *  0.090500 *  0.649250 *  -2.87073    1.000000    
    226 O2    s    0.089199 *  0.795804 *  0.483228 *  -2.87073    1.000000    
    227 O2    s    0.204854 *  0.295596 *  0.814050 *  -2.87073    1.000000    
    228 O2    s    0.702758 *  0.911724 *  0.145385 *  -2.87073    1.000000    
    229 O2    s    0.196039 *  0.898247 *  0.353095 *  -2.87073    1.000000    
    230 O2    s    0.706220 *  0.794357 *  0.016640 *  -2.87073    1.000000    
    231 O2    s    0.091143 *  0.295557 *  0.684566 *  -2.87073    1.000000    
    232 O2    s    0.795908 *  0.090272 *  0.850714 *  -2.87073    1.000000    
    233 O2    s    0.294501 *  0.207351 *  0.518785 *  -2.87073    1.000000    
    234 O2    s    0.907884 *  0.705360 *  0.181187 *  -2.87073    1.000000    
    235 O2    s    0.327159 *  0.655802 *  0.249687 *  -2.87073    1.000000    
    236 O2    s    0.343332 *  0.672476 *  0.583740 *  -2.87073    1.000000    
    237 O2    s    0.327861 *  0.672037 *  0.915200 *  -2.87073    1.000000    
    238 O2    s    0.673319 *  0.343404 *  0.750463 *  -2.87073    1.000000    
    239 O3    s    0.633997 *  0.313499 *  0.086607 *  -3.33043    1.000000    
    240 O2    s    0.672850 *  0.333374 *  0.420126 *  -2.87073    1.000000    
    241 O2    s    0.374823 *  0.340175 *  0.965533 *  -2.87073    1.000000    
    242 O1    s    0.674036 *  0.046933 *  0.308030 *  -3.73396    1.000000    
    243 O2    s    0.962665 *  0.623090 *  0.635925 *  -2.87073    1.000000    
    244 O2    s    0.619866 *  0.661157 *  0.469224 *  -2.87073    1.000000    
    245 O2    s    0.339301 *  0.962316 *  0.801449 *  -2.87073    1.000000    
    246 O2    s    0.034039 *  0.379440 *  0.131448 *  -2.87073    1.000000    
    247 O2    s    0.337947 *  0.372251 *  0.366133 *  -2.87073    1.000000    
    248 O2    s    0.033918 *  0.657159 *  0.028617 *  -2.87073    1.000000    
    249 O2    s    0.622133 *  0.962716 *  0.698764 *  -2.87073    1.000000    
    250 O2    s    0.660279 *  0.622990 *  0.863933 *  -2.87073    1.000000    
    251 O2    s    0.961449 *  0.340312 *  0.532694 *  -2.87073    1.000000    
    252 O2    s    0.377270 *  0.035279 *  0.201356 *  -2.87073    1.000000    
    253 O3    s    0.771488 *  0.295409 *  0.007553 *  -3.33043    1.000000    
    254 O2    s    0.690808 *  0.472334 *  0.349790 *  -2.87073    1.000000    
    255 O2    s    0.533311 *  0.222231 *  0.681081 *  -2.87073    1.000000    
    256 O2    s    0.221018 *  0.689539 *  0.514592 *  -2.87073    1.000000    
    257 O2    s    0.310356 *  0.533994 *  0.845412 *  -2.87073    1.000000    
    258 O2    s    0.464758 *  0.778097 *  0.181443 *  -2.87073    1.000000    
    259 O2    s    0.306899 *  0.770872 *  0.319948 *  -2.87073    1.000000    
    260 O2    s    0.467375 *  0.689269 *  0.984735 *  -2.87073    1.000000    
    261 O2    s    0.223349 *  0.533599 *  0.653111 *  -2.87073    1.000000    
    262 O2    s    0.690315 *  0.222808 *  0.819726 *  -2.87073    1.000000    
    263 O2    s    0.532471 *  0.314332 *  0.488522 *  -2.87073    1.000000    
    264 O2    s    0.774192 *  0.467361 *  0.149567 *  -2.87073    1.000000    
    265 O3    s    0.786232 *  0.547452 *  0.024533 *  -3.33043    1.000000    
    266 O2    s    0.469044 *  0.257229 *  0.365385 *  -2.87073    1.000000    
    267 O2    s    0.742556 *  0.210136 *  0.697828 *  -2.87073    1.000000    
    268 O2    s    0.208963 *  0.468018 *  0.531615 *  -2.87073    1.000000    
    269 O2    s    0.532409 *  0.742603 *  0.863202 *  -2.87073    1.000000    
    270 O2    s    0.261378 *  0.791867 *  0.200542 *  -2.87073    1.000000    
    271 O3    s    0.520314 *  0.770110 *  0.305665 *  -3.33043    1.000000    
    272 O2    s    0.256218 *  0.468345 *  0.967380 *  -2.87073    1.000000    
    273 O2    s    0.209863 *  0.742357 *  0.636393 *  -2.87073    1.000000    
    274 O2    s    0.468436 *  0.209791 *  0.802501 *  -2.87073    1.000000    
    275 O2    s    0.741013 *  0.535898 *  0.471510 *  -2.87073    1.000000    
    276 O2    s    0.788393 *  0.259555 *  0.133220 *  -2.87073    1.000000    
    277 O2    s    0.238273 *  0.333843 *  0.896728 *  -2.87073    1.000000    
    278 O3    s    0.673876 *  0.906485 *  0.226639 *  -3.33043    1.000000    
    279 O2    s    0.090514 *  0.759025 *  0.566265 *  -2.87073    1.000000    
    280 O2    s    0.757177 *  0.671031 *  0.400499 *  -2.87073    1.000000    
    281 O2    s    0.331643 *  0.090105 *  0.732181 *  -2.87073    1.000000    
    282 O2    s    0.903753 *  0.241706 *  0.063244 *  -2.87073    1.000000    
    283 O2    s    0.332449 *  0.239206 *  0.435606 *  -2.87073    1.000000    
    284 O2    s    0.902382 *  0.663808 *  0.097490 *  -2.87073    1.000000    
    285 O2    s    0.759825 *  0.092311 *  0.767956 *  -2.87073    1.000000    
    286 O2    s    0.668886 *  0.757981 *  0.933509 *  -2.87073    1.000000    
    287 O2    s    0.090444 *  0.332471 *  0.601859 *  -2.87073    1.000000    
    288 O2    s    0.246671 *  0.909245 *  0.269604 *  -2.87073    1.000000    
    289 O2    s    0.581814 *  0.558054 *  0.986106 *  -2.87073    1.000000    
    290 O3    s    0.430008 *  0.015069 *  0.327481 *  -3.33043    1.000000    
    291 O2    s    0.976486 *  0.417607 *  0.654967 *  -2.87073    1.000000    
    292 O2    s    0.413486 *  0.441573 *  0.487557 *  -2.87073    1.000000    
    293 O2    s    0.558957 *  0.975676 *  0.820226 *  -2.87073    1.000000    
    294 O2    s    0.020147 *  0.582181 *  0.148472 *  -2.87073    1.000000    
    295 O2    s    0.555222 *  0.581988 *  0.347501 *  -2.87073    1.000000    
    296 O2    s    0.018311 *  0.440819 *  0.010656 *  -2.87073    1.000000    
    297 O2    s    0.415780 *  0.975226 *  0.679543 *  -2.87073    1.000000    
    298 O2    s    0.440835 *  0.417298 *  0.845062 *  -2.87073    1.000000    
    299 O2    s    0.974237 *  0.559340 *  0.513993 *  -2.87073    1.000000    
    300 O2    s    0.582644 *  0.024379 *  0.181368 *  -2.87073    1.000000    
    301 O3    s    0.579127 *  0.162841 *  0.249415 *  -3.33043    1.000000    
    302 O2    s    0.844519 *  0.422471 *  0.584895 *  -2.87073    1.000000    
    303 O2    s    0.578446 *  0.423875 *  0.915250 *  -2.87073    1.000000    
    304 O2    s    0.420652 *  0.844376 *  0.749777 *  -2.87073    1.000000    
    305 O2    s    0.149611 *  0.575612 *  0.080751 *  -2.87073    1.000000    
    306 O2    s    0.418336 *  0.575463 *  0.417200 *  -2.87073    1.000000    
    307 F     s    0.496375 *  0.921638 *  0.260571 *  -1.56000    1.000000    
    308 F     s    0.095879 *  0.547868 *  0.584039 *  -1.56000    1.000000    
    309 F     s    0.449458 *  0.549743 *  0.915254 *  -1.56000    1.000000    
    310 F     s    0.548309 *  0.096322 *  0.750184 *  -1.56000    1.000000    
    311 F     s    0.855493 *  0.436082 *  0.070927 *  -1.56000    1.000000    
    312 F     s    0.546276 *  0.450936 *  0.417819 *  -1.56000    1.000000    
--------------------------------------------------------------------------------



********************************************************************************
*  General input information                                                   *
********************************************************************************

  Species output for all configurations : 

--------------------------------------------------------------------------------
  Species    Type    Atomic    Atomic    Charge       Radii (Angs)     Library
                     Number     Mass       (e)     Cova   Ionic  VDW   Symbol
--------------------------------------------------------------------------------
    Si       Core       14      28.09   4.000000   1.200  0.000  2.100          
    O1       Core        8      16.00   1.733957   0.730  0.000  1.360          
    O1       Shell       8       0.00  -3.733957   0.730  0.000  1.360          
    O2       Core        8      16.00   0.870733   0.730  0.000  1.360          
    O2       Shell       8       0.00  -2.870733   0.730  0.000  1.360          
    O3       Core        8      16.00   1.330431   0.730  0.000  1.360          
    O3       Shell       8       0.00  -3.330431   0.730  0.000  1.360          
    F        Core        9      19.00   0.560000   0.710  0.000  1.300          
    F        Shell       9       0.00  -1.560000   0.710  0.000  1.300          
    Ge       Core       32      72.61   4.000000   1.170  0.000  1.750          
--------------------------------------------------------------------------------


  Lattice summation method               =    Ewald          (3-D)
                                         =    Parry          (2-D)
                                         =    Saunders et al (1-D)
  Accuracy factor for lattice sums       =   12.000


  Time limit = Infinity

  Maximum range for interatomic potentials =        16.000000 Angstroms

  Taper potentials to zero over   1.0000 Angstroms using polynomial

  General interatomic potentials :

--------------------------------------------------------------------------------
Atom  Types   Potential         A         B         C         D     Cutoffs(Ang)
  1     2                                                            Min    Max 
--------------------------------------------------------------------------------
Si   c O1   s Buckingham    0.132E+04 0.318      10.1      0.00     0.000 16.000
Si   c O2   s Buckingham    0.132E+04 0.318      10.1      0.00     0.000 16.000
Si   c O3   s Buckingham    0.132E+04 0.318      10.1      0.00     0.000 16.000
Ge   c O1   s Buckingham    0.150E+04 0.326      16.8      0.00     0.000 16.000
Ge   c O2   s Buckingham    0.150E+04 0.326      16.8      0.00     0.000 16.000
Ge   c O3   s Buckingham    0.150E+04 0.326      16.8      0.00     0.000 16.000
O1   s O1   s Buckingham    0.228E+05 0.149      10.9      0.00     0.000 16.000
O1   s O2   s Buckingham    0.228E+05 0.149      10.9      0.00     0.000 16.000
O1   s O3   s Buckingham    0.228E+05 0.149      10.9      0.00     0.000 16.000
O2   s O2   s Buckingham    0.228E+05 0.149      10.9      0.00     0.000 16.000
O2   s O3   s Buckingham    0.228E+05 0.149      10.9      0.00     0.000 16.000
O3   s O3   s Buckingham    0.228E+05 0.149      10.9      0.00     0.000 16.000
Si   c F    s Buckingham     977.     0.282      0.00      0.00     0.000 16.000
Ge   c F    s Buckingham     681.     0.320      0.00      0.00     0.000 16.000
F    s F    s Buckingham     540.     0.262      0.00      0.00     0.000 16.000
O1   s F    s Buckingham    0.168E+04 0.268      0.00      0.00     0.000 16.000
O2   s F    s Buckingham    0.168E+04 0.268      0.00      0.00     0.000 16.000
O3   s F    s Buckingham    0.168E+04 0.268      0.00      0.00     0.000 16.000
O2   c O2   s Spring (c-s)   76.0      0.00      0.00      0.00     0.000  0.800
O3   c O3   s Spring (c-s)   128.      0.00      0.00      0.00     0.000  0.800
O1   c O1   s Spring (c-s)   180.      0.00      0.00      0.00     0.000  0.800
F    c F    s Spring (c-s)   33.5      0.00      0.00      0.00     0.000  0.800
--------------------------------------------------------------------------------

  General Three-body potentials :

  Harmonic form:

--------------------------------------------------------------------------------
Atom    Atom    Atom           Force Constants            Theta     Cutoffs  
  1       2       3     (eVrad**-2/eVrad**-3/eVrad**-4)   (deg)  1-2  1-3  2-3
--------------------------------------------------------------------------------
Si    c O1    s O1    s  1.261        0.0000    0.0000   109.470 0.00 0.00 0.00
                                                                 1.90 1.90 3.50
Si    c O1    s O2    s  1.261        0.0000    0.0000   109.470 0.00 0.00 0.00
                                                                 1.90 1.90 3.50
Si    c O2    s O2    s  1.261        0.0000    0.0000   109.470 0.00 0.00 0.00
                                                                 1.90 1.90 3.50
--------------------------------------------------------------------------------

********************************************************************************
*  Output for configuration   1                                                *
********************************************************************************


  Components of energy : 

--------------------------------------------------------------------------------
  Interatomic potentials     =        2063.24131934 eV
  Three-body potentials      =           0.44418358 eV
  Monopole - monopole (real) =       -6611.77606073 eV
  Monopole - monopole (recip)=       -3171.89651855 eV
  Monopole - monopole (total)=       -9783.67257928 eV
  Neutralising energy        =          -6.46046260 eV
--------------------------------------------------------------------------------
  Total lattice energy       =       -7726.44753895 eV
--------------------------------------------------------------------------------
  Total lattice energy       =         -745484.0779 kJ/(mole unit cells)
--------------------------------------------------------------------------------


  Number of variables =      939

  Maximum number of calculations  =          1000
  Maximum Hessian update interval =            10
  Maximum step size               =   1.000000000
  Maximum parameter tolerance     =   0.000010000
  Maximum function  tolerance     =   0.000010000
  Maximum gradient  tolerance     =   0.001000000
  Maximum gradient  component     =   0.010000000

  Symmetry not applied to optimisation

  Cell parameters to be optimised using strains

  Newton-Raphson optimiser to be used

  BFGS hessian update to be used

  Dumpfile to be written after every cycle

  Start of bulk optimisation :

  Cycle:      0 Energy:     -7726.447539  Gnorm:      0.012421  CPU:    1.054
  ** Hessian calculated **
  Cycle:      1 Energy:     -7726.618641  Gnorm:      0.017102  CPU:    3.347
  Cycle:      2 Energy:     -7726.679979  Gnorm:      0.012113  CPU:    5.106
  Cycle:      3 Energy:     -7726.683906  Gnorm:      0.007008  CPU:    6.998
  Cycle:      4 Energy:     -7726.685087  Gnorm:      0.002366  CPU:    8.757
  Cycle:      5 Energy:     -7726.685263  Gnorm:      0.000561  CPU:   10.174
  Cycle:      6 Energy:     -7726.685280  Gnorm:      0.000230  CPU:   11.730
  Cycle:      7 Energy:     -7726.685281  Gnorm:      0.000045  CPU:   13.147


  **** Optimisation achieved ****


  Final energy =   -7726.68528122 eV
  Final Gnorm  =       0.00001094

  Components of energy : 

--------------------------------------------------------------------------------
  Interatomic potentials     =        2064.11299293 eV
  Three-body potentials      =           0.46733094 eV
  Monopole - monopole (real) =       -6613.43951912 eV
  Monopole - monopole (recip)=       -3171.36669791 eV
  Monopole - monopole (total)=       -9784.80621703 eV
  Neutralising energy        =          -6.45938806 eV
--------------------------------------------------------------------------------
  Total lattice energy       =       -7726.68528122 eV
--------------------------------------------------------------------------------
  Total lattice energy       =         -745507.0164 kJ/(mole unit cells)
--------------------------------------------------------------------------------

  Final fractional coordinates of atoms :

--------------------------------------------------------------------------------
   No.  Atomic        x           y          z          Radius
        Label       (Frac)      (Frac)     (Frac)       (Angs) 
--------------------------------------------------------------------------------
     1  Ge    c     0.699600    0.375700    0.033890    0.000000
     2  Si    c     0.593912    0.314255    0.369790    0.000000
     3  Si    c     0.654211    0.285613    0.700387    0.000000
     4  Si    c     0.263201    0.605040    0.532197    0.000000
     5  Si    c     0.358992    0.663463    0.863560    0.000000
     6  Si    c     0.297382    0.687577    0.198395    0.000000
     7  Si    c     0.344037    0.673616    0.301132    0.000000
     8  Si    c     0.306628    0.610378    0.963644    0.000000
     9  Si    c     0.273721    0.664459    0.632556    0.000000
    10  Si    c     0.601961    0.284640    0.800839    0.000000
    11  Si    c     0.644686    0.368900    0.470121    0.000000
    12  Si    c     0.666221    0.304481    0.131597    0.000000
    13  Si    c     0.519614    0.409936    0.967185    0.000000
    14  Ge    c     0.557764    0.099780    0.305823    0.000000
    15  Si    c     0.863393    0.459215    0.636400    0.000000
    16  Si    c     0.429186    0.562739    0.466143    0.000000
    17  Si    c     0.396050    0.873371    0.799133    0.000000
    18  Si    c     0.087954    0.518355    0.130207    0.000000
    19  Si    c     0.375915    0.500623    0.364841    0.000000
    20  Si    c     0.093253    0.572402    0.027330    0.000000
    21  Si    c     0.447227    0.876073    0.697494    0.000000
    22  Si    c     0.566837    0.459803    0.864765    0.000000
    23  Si    c     0.856379    0.404409    0.535041    0.000000
    24  Si    c     0.507876    0.102205    0.201012    0.000000
    25  Si    c     0.283798    0.387346    0.849227    0.000000
    26  Si    c     0.581599    0.892037    0.182613    0.000000
    27  Si    c     0.062382    0.683983    0.518951    0.000000
    28  Si    c     0.661988    0.586001    0.351220    0.000000
    29  Si    c     0.374995    0.084023    0.684112    0.000000
    30  Si    c     0.880125    0.284696    0.011344    0.000000
    31  Si    c     0.363162    0.285332    0.481511    0.000000
    32  Si    c     0.873312    0.589779    0.142991    0.000000
    33  Si    c     0.678652    0.083636    0.814445    0.000000
    34  Si    c     0.586441    0.689786    0.979110    0.000000
    35  Si    c     0.073877    0.387514    0.648860    0.000000
    36  Si    c     0.270933    0.880463    0.318920    0.000000
    37  Si    c     0.238480    0.332738    0.949598    0.000000
    38  Ge    c     0.617034    0.892775    0.283650    0.000000
    39  Si    c     0.063260    0.736860    0.619724    0.000000
    40  Si    c     0.711492    0.646003    0.452211    0.000000
    41  Si    c     0.319641    0.074813    0.784681    0.000000
    42  Si    c     0.883638    0.236615    0.114569    0.000000
    43  Si    c     0.307233    0.226163    0.380917    0.000000
    44  Si    c     0.892205    0.657197    0.040759    0.000000
    45  Si    c     0.727329    0.078470    0.713862    0.000000
    46  Si    c     0.641953    0.737102    0.878528    0.000000
    47  Si    c     0.056706    0.324523    0.548304    0.000000
    48  Si    c     0.224347    0.898056    0.216026    0.000000
    49  Si    c     0.960925    0.112185    0.963734    0.000000
    50  Si    c     0.841943    0.829584    0.298974    0.000000
    51  Si    c     0.124842    0.015700    0.633113    0.000000
    52  Si    c     0.992965    0.862645    0.467212    0.000000
    53  Si    c     0.102983    0.137978    0.798714    0.000000
    54  Si    c     0.826394    0.960733    0.131543    0.000000
    55  Si    c     0.086420    0.944790    0.365864    0.000000
    56  Si    c     0.836634    0.875686    0.030474    0.000000
    57  Si    c     0.007703    0.140073    0.698045    0.000000
    58  Si    c     0.860857    0.014947    0.863738    0.000000
    59  Si    c     0.116487    0.105933    0.532442    0.000000
    60  Si    c     0.940618    0.833511    0.198284    0.000000
    61  O2    c     0.916632    0.998829    0.999611    0.000000
    62  O2    c     0.969489    0.903975    0.330989    0.000000
    63  O2    c     0.045955    0.060103    0.664555    0.000000
    64  O2    c     0.035970    0.986592    0.498609    0.000000
    65  O2    c     0.980350    0.058141    0.830456    0.000000
    66  O2    c     0.903560    0.919158    0.166363    0.000000
    67  O2    c     0.294969    0.544517    0.331433    0.000000
    68  O2    c     0.399715    0.751784    0.664589    0.000000
    69  O2    c     0.220624    0.647254    0.996503    0.000000
    70  O2    c     0.642040    0.408085    0.833266    0.000000
    71  O2    c     0.554594    0.225235    0.168366    0.000000
    72  O2    c     0.727038    0.329339    0.503630    0.000000
    73  O3    c     0.562897    0.333442    0.998816    0.000000
    74  O2    c     0.739152    0.410538    0.668988    0.000000
    75  O3    c     0.639214    0.235695    0.339133    0.000000
    76  O2    c     0.381863    0.640943    0.497786    0.000000
    77  O2    c     0.211630    0.568364    0.164222    0.000000
    78  O2    c     0.319599    0.747444    0.830799    0.000000
    79  O2    c     0.115181    0.203780    0.969678    0.000000
    80  O3    c     0.759982    0.895796    0.304283    0.000000
    81  O2    c     0.063625    0.862677    0.639737    0.000000
    82  O2    c     0.837717    0.773941    0.472346    0.000000
    83  O2    c     0.193361    0.074409    0.804798    0.000000
    84  O2    c     0.888257    0.115063    0.136192    0.000000
    85  O2    c     0.183578    0.097576    0.360192    0.000000
    86  O2    c     0.909621    0.794317    0.025356    0.000000
    87  O2    c     0.852736    0.078426    0.693181    0.000000
    88  O2    c     0.768579    0.861547    0.858003    0.000000
    89  O2    c     0.052505    0.196410    0.528616    0.000000
    90  O2    c     0.097117    0.896642    0.195941    0.000000
    91  O2    c     0.895015    0.833452    0.248465    0.000000
    92  O2    c     0.107212    0.049912    0.582152    0.000000
    93  O2    c     0.918884    0.051166    0.914183    0.000000
    94  O2    c     0.050220    0.124428    0.747926    0.000000
    95  O2    c     0.845453    0.922972    0.081773    0.000000
    96  O2    c     0.032257    0.910064    0.416242    0.000000
    97  O2    c     0.892476    0.195324    0.973480    0.000000
    98  O2    c     0.756252    0.678050    0.311992    0.000000
    99  O2    c     0.277782    0.086620    0.645432    0.000000
   100  O2    c     0.061619    0.780825    0.480747    0.000000
   101  O2    c     0.185249    0.289208    0.810723    0.000000
   102  O2    c     0.672589    0.893957    0.141218    0.000000
   103  O2    c     0.164319    0.869772    0.354978    0.000000
   104  O2    c     0.684891    0.790230    0.017409    0.000000
   105  O2    c     0.078381    0.291751    0.686783    0.000000
   106  O2    c     0.777675    0.084343    0.853060    0.000000
   107  O2    c     0.267827    0.189411    0.520111    0.000000
   108  O2    c     0.874667    0.685957    0.181549    0.000000
   109  O2    c     0.299259    0.631287    0.248056    0.000000
   110  O2    c     0.327385    0.663904    0.581913    0.000000
   111  O2    c     0.301156    0.665010    0.913480    0.000000
   112  O2    c     0.656832    0.342032    0.750774    0.000000
   113  O3    c     0.603250    0.298492    0.083696    0.000000
   114  O2    c     0.648405    0.312698    0.420524    0.000000
   115  O2    c     0.361282    0.324433    0.967779    0.000000
   116  O1    c     0.657940    0.037221    0.310074    0.000000
   117  O2    c     0.932202    0.614979    0.638885    0.000000
   118  O2    c     0.586256    0.651949    0.469474    0.000000
   119  O2    c     0.308857    0.942276    0.802379    0.000000
   120  O2    c     0.014593    0.363473    0.132593    0.000000
   121  O2    c     0.291428    0.344628    0.362080    0.000000
   122  O2    c     0.026105    0.660593    0.026743    0.000000
   123  O2    c     0.604379    0.946213    0.695009    0.000000
   124  O2    c     0.652052    0.615433    0.860410    0.000000
   125  O2    c     0.922778    0.315403    0.530809    0.000000
   126  O2    c     0.349702    0.025739    0.197704    0.000000
   127  O3    c     0.746891    0.278602    0.002376    0.000000
   128  O2    c     0.666574    0.454791    0.346241    0.000000
   129  O2    c     0.510012    0.217764    0.677321    0.000000
   130  O2    c     0.195001    0.681148    0.510518    0.000000
   131  O2    c     0.284061    0.520638    0.840688    0.000000
   132  O2    c     0.440413    0.761775    0.176638    0.000000
   133  O2    c     0.269210    0.745031    0.320613    0.000000
   134  O2    c     0.451266    0.689547    0.986290    0.000000
   135  O2    c     0.208852    0.522400    0.655178    0.000000
   136  O2    c     0.677812    0.216263    0.822783    0.000000
   137  O2    c     0.500332    0.292878    0.491549    0.000000
   138  O2    c     0.743234    0.453404    0.150810    0.000000
   139  O3    c     0.768679    0.543072    0.017761    0.000000
   140  O2    c     0.435748    0.229699    0.361841    0.000000
   141  O2    c     0.729017    0.204943    0.694792    0.000000
   142  O2    c     0.181611    0.449099    0.527888    0.000000
   143  O2    c     0.516050    0.739052    0.858889    0.000000
   144  O2    c     0.228091    0.773267    0.198396    0.000000
   145  O3    c     0.497319    0.749053    0.308538    0.000000
   146  O2    c     0.232323    0.455086    0.969466    0.000000
   147  O2    c     0.191724    0.738094    0.638138    0.000000
   148  O2    c     0.445191    0.200938    0.805142    0.000000
   149  O2    c     0.716081    0.524577    0.473215    0.000000
   150  O2    c     0.758784    0.239537    0.132940    0.000000
   151  O2    c     0.213263    0.314422    0.895410    0.000000
   152  O3    c     0.658287    0.888567    0.226235    0.000000
   153  O2    c     0.061219    0.754449    0.565462    0.000000
   154  O2    c     0.729340    0.662651    0.398011    0.000000
   155  O2    c     0.300648    0.077994    0.730408    0.000000
   156  O2    c     0.884830    0.222788    0.060364    0.000000
   157  O2    c     0.290332    0.209120    0.435238    0.000000
   158  O2    c     0.876028    0.657675    0.095836    0.000000
   159  O2    c     0.748888    0.080618    0.768147    0.000000
   160  O2    c     0.661201    0.758181    0.932842    0.000000
   161  O2    c     0.063850    0.310665    0.602540    0.000000
   162  O2    c     0.218803    0.900343    0.270192    0.000000
   163  O2    c     0.571067    0.552089    0.989292    0.000000
   164  O3    c     0.408030    0.999809    0.331514    0.000000
   165  O2    c     0.950153    0.403682    0.658836    0.000000
   166  O2    c     0.372112    0.422312    0.488891    0.000000
   167  O2    c     0.538743    0.957854    0.822438    0.000000
   168  O2    c     0.999188    0.573577    0.149118    0.000000
   169  O2    c     0.517473    0.561408    0.341969    0.000000
   170  O2    c     0.001316    0.431018    0.006219    0.000000
   171  O2    c     0.388729    0.959390    0.674675    0.000000
   172  O2    c     0.423815    0.401015    0.841594    0.000000
   173  O2    c     0.936384    0.544015    0.511023    0.000000
   174  O2    c     0.565351    0.017615    0.179016    0.000000
   175  O3    c     0.554967    0.155834    0.250994    0.000000
   176  O2    c     0.806354    0.404593    0.585935    0.000000
   177  O2    c     0.571165    0.413775    0.915817    0.000000
   178  O2    c     0.394669    0.822036    0.747995    0.000000
   179  O2    c     0.137405    0.565893    0.079382    0.000000
   180  O2    c     0.374834    0.557313    0.414849    0.000000
   181  F     c     0.465668    0.901981    0.258214    0.000000
   182  F     c     0.068082    0.534747    0.583497    0.000000
   183  F     c     0.431754    0.541642    0.914128    0.000000
   184  F     c     0.526965    0.083777    0.749055    0.000000
   185  F     c     0.844671    0.429373    0.070949    0.000000
   186  F     c     0.510467    0.429908    0.416286    0.000000
   187  O2    s     0.912418    0.997513    0.999093    0.000000
   188  O2    s     0.969459    0.900733    0.331613    0.000000
   189  O2    s     0.050557    0.064045    0.664760    0.000000
   190  O2    s     0.040104    0.986018    0.498864    0.000000
   191  O2    s     0.980641    0.062258    0.830648    0.000000
   192  O2    s     0.899225    0.914391    0.166042    0.000000
   193  O2    s     0.307793    0.553142    0.331653    0.000000
   194  O2    s     0.391600    0.755520    0.664649    0.000000
   195  O2    s     0.215597    0.635621    0.996519    0.000000
   196  O2    s     0.630197    0.400624    0.833130    0.000000
   197  O2    s     0.561366    0.220620    0.167930    0.000000
   198  O2    s     0.731946    0.341340    0.503395    0.000000
   199  O3    s     0.568029    0.344883    0.997889    0.000000
   200  O2    s     0.743349    0.402767    0.668835    0.000000
   201  O3    s     0.628011    0.232653    0.339538    0.000000
   202  O2    s     0.374614    0.629136    0.498031    0.000000
   203  O2    s     0.207586    0.575545    0.164225    0.000000
   204  O2    s     0.331499    0.751875    0.830880    0.000000
   205  O2    s     0.110925    0.206952    0.967003    0.000000
   206  O3    s     0.759666    0.887843    0.302271    0.000000
   207  O2    s     0.070047    0.865837    0.636999    0.000000
   208  O2    s     0.841180    0.770170    0.469748    0.000000
   209  O2    s     0.196805    0.081225    0.802091    0.000000
   210  O2    s     0.881393    0.111711    0.133500    0.000000
   211  O2    s     0.186242    0.094853    0.362929    0.000000
   212  O2    s     0.900076    0.788798    0.027483    0.000000
   213  O2    s     0.856328    0.085052    0.695826    0.000000
   214  O2    s     0.765366    0.865101    0.860711    0.000000
   215  O2    s     0.059675    0.200026    0.531020    0.000000
   216  O2    s     0.094575    0.890297    0.198302    0.000000
   217  O2    s     0.894823    0.833078    0.247885    0.000000
   218  O2    s     0.110224    0.052408    0.582252    0.000000
   219  O2    s     0.917172    0.054045    0.914172    0.000000
   220  O2    s     0.051352    0.127759    0.747998    0.000000
   221  O2    s     0.842277    0.922078    0.081806    0.000000
   222  O2    s     0.033950    0.908660    0.416299    0.000000
   223  O2    s     0.898654    0.195862    0.976481    0.000000
   224  O2    s     0.754990    0.683631    0.314797    0.000000
   225  O2    s     0.271381    0.078824    0.648037    0.000000
   226  O2    s     0.054404    0.779601    0.483229    0.000000
   227  O2    s     0.186564    0.283117    0.813387    0.000000
   228  O2    s     0.679551    0.900702    0.144273    0.000000
   229  O2    s     0.167286    0.878571    0.352392    0.000000
   230  O2    s     0.691310    0.789325    0.014967    0.000000
   231  O2    s     0.070496    0.285574    0.684096    0.000000
   232  O2    s     0.776442    0.076931    0.850280    0.000000
   233  O2    s     0.261342    0.190317    0.517453    0.000000
   234  O2    s     0.881560    0.691575    0.179266    0.000000
   235  O2    s     0.303424    0.641328    0.247981    0.000000
   236  O2    s     0.315439    0.657980    0.581996    0.000000
   237  O2    s     0.307491    0.659287    0.913584    0.000000
   238  O2    s     0.650915    0.330299    0.750721    0.000000
   239  O3    s     0.616131    0.304053    0.085659    0.000000
   240  O2    s     0.642371    0.318754    0.420506    0.000000
   241  O2    s     0.363502    0.333963    0.965679    0.000000
   242  O1    s     0.647096    0.031634    0.307796    0.000000
   243  O2    s     0.938875    0.611746    0.636611    0.000000
   244  O2    s     0.583301    0.642122    0.467295    0.000000
   245  O2    s     0.318935    0.949085    0.800182    0.000000
   246  O2    s     0.008852    0.366788    0.130479    0.000000
   247  O2    s     0.301769    0.348504    0.364317    0.000000
   248  O2    s     0.019732    0.651035    0.028227    0.000000
   249  O2    s     0.601041    0.952866    0.697261    0.000000
   250  O2    s     0.642246    0.612229    0.862760    0.000000
   251  O2    s     0.929963    0.325503    0.533081    0.000000
   252  O2    s     0.352104    0.019689    0.199994    0.000000
   253  O3    s     0.758153    0.285738    0.005513    0.000000
   254  O2    s     0.658525    0.454274    0.349258    0.000000
   255  O2    s     0.510614    0.210643    0.680441    0.000000
   256  O2    s     0.188078    0.673637    0.513663    0.000000
   257  O2    s     0.291704    0.521334    0.843954    0.000000
   258  O2    s     0.439565    0.767105    0.179556    0.000000
   259  O2    s     0.277010    0.751887    0.318415    0.000000
   260  O2    s     0.450354    0.681475    0.983200    0.000000
   261  O2    s     0.201294    0.522750    0.652162    0.000000
   262  O2    s     0.670128    0.209344    0.819629    0.000000
   263  O2    s     0.500585    0.299945    0.488228    0.000000
   264  O2    s     0.749782    0.453701    0.148098    0.000000
   265  O3    s     0.777975    0.544922    0.021255    0.000000
   266  O2    s     0.437557    0.237550    0.364555    0.000000
   267  O2    s     0.720946    0.199588    0.697405    0.000000
   268  O2    s     0.176445    0.451774    0.530520    0.000000
   269  O2    s     0.513345    0.730887    0.861479    0.000000
   270  O2    s     0.235103    0.777551    0.200279    0.000000
   271  O3    s     0.490455    0.752182    0.305950    0.000000
   272  O2    s     0.240682    0.458263    0.966810    0.000000
   273  O2    s     0.186168    0.730219    0.635584    0.000000
   274  O2    s     0.448039    0.195963    0.802503    0.000000
   275  O2    s     0.708027    0.521440    0.470641    0.000000
   276  O2    s     0.763453    0.245677    0.130799    0.000000
   277  O2    s     0.223282    0.324016    0.896260    0.000000
   278  O3    s     0.647282    0.889211    0.225699    0.000000
   279  O2    s     0.061559    0.745160    0.566304    0.000000
   280  O2    s     0.720455    0.652943    0.398908    0.000000
   281  O2    s     0.310447    0.078286    0.731269    0.000000
   282  O2    s     0.884239    0.230336    0.061417    0.000000
   283  O2    s     0.299702    0.218855    0.434319    0.000000
   284  O2    s     0.877252    0.650128    0.095574    0.000000
   285  O2    s     0.739293    0.080705    0.767247    0.000000
   286  O2    s     0.651380    0.748843    0.931956    0.000000
   287  O2    s     0.064133    0.320170    0.601606    0.000000
   288  O2    s     0.224783    0.898075    0.269200    0.000000
   289  O2    s     0.567335    0.553062    0.985932    0.000000
   290  O3    s     0.404809    0.994510    0.328240    0.000000
   291  O2    s     0.954623    0.407916    0.655416    0.000000
   292  O2    s     0.377320    0.422352    0.485683    0.000000
   293  O2    s     0.538941    0.962789    0.819132    0.000000
   294  O2    s     0.995334    0.569302    0.146438    0.000000
   295  O2    s     0.518025    0.557420    0.345375    0.000000
   296  O2    s     0.998751    0.431449    0.009045    0.000000
   297  O2    s     0.393509    0.964282    0.678067    0.000000
   298  O2    s     0.423601    0.405831    0.844833    0.000000
   299  O2    s     0.941898    0.544688    0.514373    0.000000
   300  O2    s     0.561025    0.013084    0.181691    0.000000
   301  O3    s     0.550264    0.146007    0.249917    0.000000
   302  O2    s     0.817593    0.410287    0.585866    0.000000
   303  O2    s     0.565534    0.418379    0.915500    0.000000
   304  O2    s     0.400243    0.832935    0.748053    0.000000
   305  O2    s     0.127702    0.561483    0.079566    0.000000
   306  O2    s     0.380551    0.552059    0.415010    0.000000
   307  F     s     0.473319    0.902985    0.259665    0.000000
   308  F     s     0.068526    0.534923    0.583436    0.000000
   309  F     s     0.431067    0.542236    0.914099    0.000000
   310  F     s     0.527200    0.084220    0.749015    0.000000
   311  F     s     0.833825    0.425446    0.068304    0.000000
   312  F     s     0.510511    0.429204    0.416193    0.000000
--------------------------------------------------------------------------------

  Final Cartesian lattice vectors (Angstroms) :

       11.920682   -0.011699   -0.030318
       -6.045407   10.408967    0.007973
       -0.283393   -0.168911   29.497349


  Final cell parameters and derivatives :

--------------------------------------------------------------------------------
       a           11.920726 Angstrom     dE/de1(xx)     0.000494 eV/strain
       b           12.037176 Angstrom     dE/de2(yy)     0.000430 eV/strain
       c           29.499194 Angstrom     dE/de3(zz)     0.000583 eV/strain
       alpha       89.969308 Degrees      dE/de4(yz)     0.000150 eV/strain
       beta        90.695833 Degrees      dE/de5(xz)     0.000177 eV/strain
       gamma      120.203751 Degrees      dE/de6(xy)     0.000216 eV/strain
--------------------------------------------------------------------------------

  Primitive cell volume =          3657.898969 Angs**3

  Density of cell =      1.749117 g/cm**3

  Non-primitive cell volume =          3657.898969 Angs**3


  Final internal derivatives :

--------------------------------------------------------------------------------
   No.  Atomic          a             b             c           Radius
        Label          (eV)          (eV)          (eV)        (eV/Angs)
--------------------------------------------------------------------------------
      1 Ge    c       0.000000      0.000000      0.000000      0.000000
      2 Si    c       0.000117      0.000140      0.000459      0.000000
      3 Si    c      -0.000059      0.000014      0.000373      0.000000
      4 Si    c      -0.000171     -0.000126     -0.000883      0.000000
      5 Si    c      -0.000026     -0.000059      0.000086      0.000000
      6 Si    c       0.000028      0.000140     -0.000736      0.000000
      7 Si    c       0.000041      0.000403      0.000146      0.000000
      8 Si    c      -0.000054     -0.000005      0.000224      0.000000
      9 Si    c      -0.000264      0.000082      0.001091      0.000000
     10 Si    c      -0.000063     -0.000072     -0.000161      0.000000
     11 Si    c       0.000062      0.000002     -0.000185      0.000000
     12 Si    c      -0.001584      0.000307     -0.003203      0.000000
     13 Si    c      -0.000902      0.000495     -0.000397      0.000000
     14 Ge    c      -0.000116      0.000153     -0.000333      0.000000
     15 Si    c       0.000054      0.000085      0.000481      0.000000
     16 Si    c       0.000062     -0.000150      0.000368      0.000000
     17 Si    c      -0.000042      0.000035     -0.000091      0.000000
     18 Si    c      -0.000178      0.000179     -0.001118      0.000000
     19 Si    c       0.000140     -0.000129     -0.000054      0.000000
     20 Si    c      -0.000628      0.000171      0.000219      0.000000
     21 Si    c      -0.000027      0.000000     -0.000063      0.000000
     22 Si    c      -0.000240      0.000184     -0.000116      0.000000
     23 Si    c       0.000119     -0.000025     -0.000253      0.000000
     24 Si    c      -0.000097     -0.000108     -0.000934      0.000000
     25 Si    c      -0.000009      0.000063     -0.000234      0.000000
     26 Si    c      -0.000089      0.000070     -0.001211      0.000000
     27 Si    c       0.000038     -0.000171     -0.000349      0.000000
     28 Si    c       0.000127     -0.000105     -0.000115      0.000000
     29 Si    c       0.000087     -0.000044     -0.000086      0.000000
     30 Si    c       0.000061     -0.000036     -0.001859      0.000000
     31 Si    c      -0.000150      0.000032      0.000159      0.000000
     32 Si    c       0.000266      0.000226      0.000904      0.000000
     33 Si    c      -0.000035      0.000057      0.000153      0.000000
     34 Si    c      -0.000131      0.000055      0.000183      0.000000
     35 Si    c      -0.000046      0.000196      0.000347      0.000000
     36 Si    c       0.000101     -0.000221      0.000278      0.000000
     37 Si    c       0.000027      0.000087      0.000276      0.000000
     38 Ge    c       0.000184     -0.000374      0.001559      0.000000
     39 Si    c       0.000033     -0.000047      0.000571      0.000000
     40 Si    c       0.000242     -0.000061      0.000152      0.000000
     41 Si    c      -0.000017     -0.000011      0.000189      0.000000
     42 Si    c       0.000489     -0.000469      0.000021      0.000000
     43 Si    c      -0.000091     -0.000049     -0.000121      0.000000
     44 Si    c       0.000306     -0.000672      0.000150      0.000000
     45 Si    c       0.000052      0.000033     -0.000156      0.000000
     46 Si    c      -0.000016     -0.000033     -0.000338      0.000000
     47 Si    c       0.000074     -0.000078     -0.000857      0.000000
     48 Si    c       0.000185      0.000009      0.000321      0.000000
     49 Si    c      -0.000096     -0.000104      0.000938      0.000000
     50 Si    c      -0.000045      0.000219      0.000433      0.000000
     51 Si    c       0.000016     -0.000165      0.000343      0.000000
     52 Si    c       0.000069      0.000041      0.000868      0.000000
     53 Si    c       0.000020     -0.000003      0.000044      0.000000
     54 Si    c      -0.000021      0.000059      0.000310      0.000000
     55 Si    c       0.000038      0.000062     -0.000928      0.000000
     56 Si    c      -0.000076      0.000082      0.000520      0.000000
     57 Si    c      -0.000054      0.000054     -0.000179      0.000000
     58 Si    c       0.000021     -0.000033     -0.000575      0.000000
     59 Si    c      -0.000053      0.000002     -0.000072      0.000000
     60 Si    c       0.000058      0.000108     -0.000867      0.000000
     61 O2    c      -0.000068      0.000504     -0.001030      0.000000
     62 O2    c       0.000062     -0.000079      0.000012      0.000000
     63 O2    c       0.000070     -0.000039     -0.000121      0.000000
     64 O2    c       0.000088     -0.000208     -0.000200      0.000000
     65 O2    c      -0.000003     -0.000019      0.000128      0.000000
     66 O2    c       0.000181     -0.000265      0.000387      0.000000
     67 O2    c      -0.000128     -0.000280      0.000234      0.000000
     68 O2    c       0.000109      0.000095      0.000318      0.000000
     69 O2    c       0.000048     -0.000015      0.000024      0.000000
     70 O2    c       0.000127     -0.000085     -0.000151      0.000000
     71 O2    c       0.000081      0.000212     -0.000385      0.000000
     72 O2    c      -0.000093     -0.000067     -0.000195      0.000000
     73 O3    c      -0.000281     -0.000686      0.001409      0.000000
     74 O2    c       0.000064      0.000148     -0.000412      0.000000
     75 O3    c       0.000297     -0.000180     -0.000238      0.000000
     76 O2    c      -0.000034      0.000085      0.000021      0.000000
     77 O2    c       0.000024     -0.000058      0.000011      0.000000
     78 O2    c       0.000007     -0.000064      0.000108      0.000000
     79 O2    c       0.000029     -0.000103      0.000294      0.000000
     80 O3    c       0.000212     -0.000189      0.000110      0.000000
     81 O2    c      -0.000041      0.000177     -0.000193      0.000000
     82 O2    c      -0.000215      0.000016     -0.000119      0.000000
     83 O2    c       0.000066     -0.000045     -0.000001      0.000000
     84 O2    c       0.000069     -0.000208      0.000004      0.000000
     85 O2    c      -0.000035     -0.000067     -0.000068      0.000000
     86 O2    c       0.000129     -0.000153     -0.000194      0.000000
     87 O2    c      -0.000008      0.000017      0.000020      0.000000
     88 O2    c       0.000030     -0.000010     -0.000014      0.000000
     89 O2    c       0.000046     -0.000038      0.000116      0.000000
     90 O2    c      -0.000187      0.000069     -0.000044      0.000000
     91 O2    c      -0.000024      0.000009      0.000173      0.000000
     92 O2    c      -0.000090      0.000170     -0.000902      0.000000
     93 O2    c       0.000102      0.000070      0.000666      0.000000
     94 O2    c       0.000036     -0.000020      0.000189      0.000000
     95 O2    c       0.000063     -0.000136     -0.000845      0.000000
     96 O2    c      -0.000069      0.000013      0.000510      0.000000
     97 O2    c      -0.000046      0.000299      0.001070      0.000000
     98 O2    c      -0.000069     -0.000225      0.000008      0.000000
     99 O2    c      -0.000011      0.000009     -0.000049      0.000000
    100 O2    c      -0.000147      0.000222     -0.000259      0.000000
    101 O2    c       0.000001      0.000049      0.000091      0.000000
    102 O2    c      -0.000058      0.000027      0.000082      0.000000
    103 O2    c      -0.000274      0.000144      0.000360      0.000000
    104 O2    c       0.000030      0.000040      0.000242      0.000000
    105 O2    c       0.000045     -0.000109      0.000164      0.000000
    106 O2    c       0.000048     -0.000031      0.000029      0.000000
    107 O2    c       0.000004      0.000020     -0.000062      0.000000
    108 O2    c       0.000032      0.000131      0.000192      0.000000
    109 O2    c       0.000049     -0.000104      0.000153      0.000000
    110 O2    c       0.000319     -0.000026     -0.000379      0.000000
    111 O2    c       0.000020      0.000012     -0.000280      0.000000
    112 O2    c       0.000027      0.000026     -0.000296      0.000000
    113 O3    c      -0.000713     -0.000305     -0.000969      0.000000
    114 O2    c       0.000059     -0.000061      0.000079      0.000000
    115 O2    c       0.000163     -0.000084      0.000255      0.000000
    116 O1    c       0.000005     -0.000017      0.000390      0.000000
    117 O2    c       0.000005     -0.000044     -0.000067      0.000000
    118 O2    c      -0.000096      0.000126      0.000179      0.000000
    119 O2    c       0.000027     -0.000045     -0.000004      0.000000
    120 O2    c       0.000042      0.000170      0.000017      0.000000
    121 O2    c      -0.000067      0.000096     -0.000158      0.000000
    122 O2    c       0.000358     -0.000368      0.000094      0.000000
    123 O2    c      -0.000012     -0.000022     -0.000102      0.000000
    124 O2    c      -0.000018     -0.000022     -0.000008      0.000000
    125 O2    c      -0.000095      0.000034     -0.000023      0.000000
    126 O2    c      -0.000069     -0.000129     -0.000141      0.000000
    127 O3    c      -0.000806     -0.000134      0.000163      0.000000
    128 O2    c      -0.000003      0.000126     -0.000046      0.000000
    129 O2    c      -0.000023      0.000025     -0.000053      0.000000
    130 O2    c       0.000055     -0.000040     -0.000080      0.000000
    131 O2    c       0.000047     -0.000078      0.000103      0.000000
    132 O2    c      -0.000367     -0.000027      0.000192      0.000000
    133 O2    c       0.000102     -0.000177     -0.000307      0.000000
    134 O2    c      -0.000002      0.000012      0.000057      0.000000
    135 O2    c      -0.000006      0.000035     -0.000143      0.000000
    136 O2    c       0.000056     -0.000069      0.000041      0.000000
    137 O2    c       0.000118     -0.000085      0.000185      0.000000
    138 O2    c      -0.000306      0.000196      0.000533      0.000000
    139 O3    c       0.000448      0.000710      0.001574      0.000000
    140 O2    c      -0.000136     -0.000135     -0.000255      0.000000
    141 O2    c       0.000094     -0.000062     -0.000049      0.000000
    142 O2    c       0.000035      0.000047     -0.000026      0.000000
    143 O2    c       0.000013     -0.000014      0.000010      0.000000
    144 O2    c       0.000125     -0.000139      0.000065      0.000000
    145 O3    c       0.000098      0.000399     -0.000889      0.000000
    146 O2    c      -0.000014     -0.000017      0.000166      0.000000
    147 O2    c       0.000094     -0.000079     -0.000099      0.000000
    148 O2    c       0.000003      0.000059      0.000125      0.000000
    149 O2    c       0.000048     -0.000034      0.000082      0.000000
    150 O2    c       0.000148     -0.000343      0.001137      0.000000
    151 O2    c      -0.000084     -0.000054     -0.000030      0.000000
    152 O3    c       0.000561     -0.000170     -0.000459      0.000000
    153 O2    c      -0.000059      0.000149     -0.000252      0.000000
    154 O2    c       0.000027      0.000007     -0.000244      0.000000
    155 O2    c      -0.000103      0.000049     -0.000050      0.000000
    156 O2    c       0.000253     -0.000486      0.002622      0.000000
    157 O2    c       0.000014     -0.000051      0.000229      0.000000
    158 O2    c       0.000127      0.000202     -0.000608      0.000000
    159 O2    c       0.000077     -0.000050     -0.000040      0.000000
    160 O2    c       0.000005      0.000034      0.000301      0.000000
    161 O2    c       0.000087     -0.000187      0.000489      0.000000
    162 O2    c      -0.000102      0.000260     -0.001965      0.000000
    163 O2    c      -0.000025     -0.000072      0.000214      0.000000
    164 O3    c       0.000352     -0.000029     -0.000022      0.000000
    165 O2    c      -0.000017      0.000020     -0.000025      0.000000
    166 O2    c      -0.000024      0.000036     -0.000031      0.000000
    167 O2    c      -0.000041     -0.000023      0.000049      0.000000
    168 O2    c       0.000146     -0.000089     -0.000495      0.000000
    169 O2    c      -0.000173      0.000051      0.000035      0.000000
    170 O2    c       0.000128     -0.000178      0.000522      0.000000
    171 O2    c      -0.000049      0.000066      0.000018      0.000000
    172 O2    c       0.000046     -0.000045     -0.000063      0.000000
    173 O2    c       0.000041      0.000028     -0.000044      0.000000
    174 O2    c      -0.000063      0.000054      0.000158      0.000000
    175 O3    c       0.000154      0.000164      0.002270      0.000000
    176 O2    c      -0.000145     -0.000029     -0.000231      0.000000
    177 O2    c       0.000006     -0.000135      0.000287      0.000000
    178 O2    c      -0.000025     -0.000007      0.000126      0.000000
    179 O2    c      -0.000074     -0.000001      0.000621      0.000000
    180 O2    c      -0.000139      0.000137     -0.000524      0.000000
    181 F     c      -0.000325      0.000055     -0.000095      0.000000
    182 F     c       0.000018     -0.000015      0.000021      0.000000
    183 F     c      -0.000002     -0.000025     -0.000006      0.000000
    184 F     c      -0.000007      0.000037      0.000005      0.000000
    185 F     c      -0.000135      0.000106      0.000191      0.000000
    186 F     c       0.000058      0.000003      0.000121      0.000000
    187 O2    s      -0.000041     -0.000167     -0.000067      0.000000
    188 O2    s      -0.000004      0.000057      0.000078      0.000000
    189 O2    s      -0.000036      0.000000      0.000069      0.000000
    190 O2    s      -0.000089      0.000095      0.000102      0.000000
    191 O2    s       0.000001      0.000009     -0.000045      0.000000
    192 O2    s      -0.000053      0.000041     -0.000067      0.000000
    193 O2    s       0.000060     -0.000045     -0.000015      0.000000
    194 O2    s       0.000083     -0.000059     -0.000028      0.000000
    195 O2    s      -0.000093      0.000045     -0.000139      0.000000
    196 O2    s      -0.000018      0.000064     -0.000042      0.000000
    197 O2    s       0.000163     -0.000094     -0.000071      0.000000
    198 O2    s       0.000110      0.000006      0.000121      0.000000
    199 O3    s       0.000820      0.000194     -0.001113      0.000000
    200 O2    s      -0.000036     -0.000033      0.000100      0.000000
    201 O3    s      -0.000148     -0.000088     -0.000156      0.000000
    202 O2    s       0.000070      0.000007      0.000076      0.000000
    203 O2    s      -0.000046      0.000081      0.000109      0.000000
    204 O2    s      -0.000022      0.000030     -0.000015      0.000000
    205 O2    s      -0.000171      0.000038     -0.000448      0.000000
    206 O3    s      -0.000010      0.000107     -0.000175      0.000000
    207 O2    s      -0.000025      0.000031      0.000277      0.000000
    208 O2    s       0.000055      0.000122      0.000319      0.000000
    209 O2    s      -0.000055     -0.000008     -0.000024      0.000000
    210 O2    s      -0.000073      0.000260     -0.000135      0.000000
    211 O2    s      -0.000061     -0.000022     -0.000208      0.000000
    212 O2    s      -0.000098      0.000111      0.000052      0.000000
    213 O2    s       0.000033     -0.000059      0.000038      0.000000
    214 O2    s      -0.000099      0.000071      0.000099      0.000000
    215 O2    s       0.000055     -0.000168     -0.000170      0.000000
    216 O2    s       0.000108      0.000011      0.000202      0.000000
    217 O2    s      -0.000051      0.000003     -0.000118      0.000000
    218 O2    s       0.000072     -0.000017      0.000378      0.000000
    219 O2    s      -0.000158      0.000062      0.000140      0.000000
    220 O2    s      -0.000051      0.000036     -0.000135      0.000000
    221 O2    s       0.000004      0.000048      0.000316      0.000000
    222 O2    s       0.000108     -0.000074     -0.000201      0.000000
    223 O2    s       0.000063     -0.000270     -0.000570      0.000000
    224 O2    s       0.000010      0.000115      0.000187      0.000000
    225 O2    s      -0.000023      0.000009     -0.000061      0.000000
    226 O2    s       0.000054     -0.000010     -0.000180      0.000000
    227 O2    s      -0.000021      0.000016     -0.000211      0.000000
    228 O2    s       0.000021      0.000008     -0.000044      0.000000
    229 O2    s       0.000006     -0.000031      0.000325      0.000000
    230 O2    s      -0.000020      0.000011     -0.000327      0.000000
    231 O2    s       0.000039     -0.000025      0.000172      0.000000
    232 O2    s      -0.000035     -0.000019      0.000030      0.000000
    233 O2    s      -0.000031     -0.000054      0.000210      0.000000
    234 O2    s      -0.000047     -0.000070     -0.000069      0.000000
    235 O2    s      -0.000007      0.000164     -0.000695      0.000000
    236 O2    s      -0.000102     -0.000000      0.000133      0.000000
    237 O2    s      -0.000046      0.000057      0.000068      0.000000
    238 O2    s       0.000021      0.000017      0.000123      0.000000
    239 O3    s       0.001997      0.000231      0.000707      0.000000
    240 O2    s       0.000162     -0.000179      0.000101      0.000000
    241 O2    s      -0.000040      0.000020     -0.000303      0.000000
    242 O1    s      -0.000235      0.000124     -0.000477      0.000000
    243 O2    s      -0.000121      0.000071      0.000230      0.000000
    244 O2    s       0.000087      0.000028      0.000050      0.000000
    245 O2    s      -0.000028     -0.000019      0.000089      0.000000
    246 O2    s      -0.000182     -0.000148     -0.000125      0.000000
    247 O2    s      -0.000004      0.000054     -0.000080      0.000000
    248 O2    s      -0.000366      0.000327     -0.000302      0.000000
    249 O2    s       0.000035     -0.000048      0.000049      0.000000
    250 O2    s       0.000083      0.000049     -0.000088      0.000000
    251 O2    s       0.000036     -0.000061     -0.000145      0.000000
    252 O2    s      -0.000140     -0.000056      0.000048      0.000000
    253 O3    s       0.000401      0.000437     -0.000318      0.000000
    254 O2    s      -0.000086      0.000190     -0.000216      0.000000
    255 O2    s      -0.000029     -0.000024     -0.000091      0.000000
    256 O2    s       0.000012      0.000045      0.000098      0.000000
    257 O2    s      -0.000086      0.000077     -0.000321      0.000000
    258 O2    s       0.000006      0.000055      0.000332      0.000000
    259 O2    s      -0.000113      0.000049     -0.000070      0.000000
    260 O2    s       0.000056     -0.000006     -0.000030      0.000000
    261 O2    s       0.000065     -0.000052      0.000147      0.000000
    262 O2    s       0.000010     -0.000025     -0.000016      0.000000
    263 O2    s      -0.000127      0.000055      0.000105      0.000000
    264 O2    s       0.000710     -0.000588     -0.001862      0.000000
    265 O3    s      -0.000398     -0.000731     -0.000672      0.000000
    266 O2    s       0.000025      0.000004      0.000043      0.000000
    267 O2    s      -0.000023     -0.000055      0.000053      0.000000
    268 O2    s       0.000042     -0.000003     -0.000099      0.000000
    269 O2    s       0.000036      0.000051     -0.000049      0.000000
    270 O2    s       0.000058     -0.000002      0.000237      0.000000
    271 O3    s      -0.000038     -0.000302      0.000784      0.000000
    272 O2    s       0.000024      0.000034     -0.000316      0.000000
    273 O2    s      -0.000030      0.000091      0.000203      0.000000
    274 O2    s       0.000015     -0.000003      0.000006      0.000000
    275 O2    s      -0.000027      0.000046      0.000017      0.000000
    276 O2    s      -0.000324      0.000911     -0.001931      0.000000
    277 O2    s       0.000102     -0.000040      0.000100      0.000000
    278 O3    s      -0.000438      0.000084      0.000580      0.000000
    279 O2    s      -0.000010     -0.000052      0.000094      0.000000
    280 O2    s      -0.000133      0.000006     -0.000047      0.000000
    281 O2    s       0.000038      0.000006     -0.000057      0.000000
    282 O2    s      -0.000256      0.000522     -0.001106      0.000000
    283 O2    s       0.000001      0.000095      0.000059      0.000000
    284 O2    s      -0.000058     -0.000184     -0.000731      0.000000
    285 O2    s      -0.000063      0.000022      0.000079      0.000000
    286 O2    s       0.000046     -0.000040     -0.000154      0.000000
    287 O2    s      -0.000036      0.000089     -0.000162      0.000000
    288 O2    s       0.000029      0.000027      0.000058      0.000000
    289 O2    s       0.000080      0.000161     -0.000425      0.000000
    290 O3    s       0.000209     -0.000094      0.000177      0.000000
    291 O2    s      -0.000078     -0.000026      0.000316      0.000000
    292 O2    s       0.000003     -0.000065     -0.000011      0.000000
    293 O2    s       0.000080      0.000007     -0.000031      0.000000
    294 O2    s      -0.000175     -0.000027      0.000724      0.000000
    295 O2    s       0.000139     -0.000107      0.000133      0.000000
    296 O2    s      -0.000535      0.000237     -0.000041      0.000000
    297 O2    s       0.000016     -0.000035     -0.000150      0.000000
    298 O2    s      -0.000073      0.000059      0.000031      0.000000
    299 O2    s      -0.000104      0.000015     -0.000055      0.000000
    300 O2    s       0.000189      0.000001      0.000015      0.000000
    301 O3    s      -0.000034     -0.000130     -0.000601      0.000000
    302 O2    s       0.000012      0.000037      0.000265      0.000000
    303 O2    s       0.000160      0.000083      0.000088      0.000000
    304 O2    s       0.000046     -0.000035     -0.000037      0.000000
    305 O2    s       0.000295     -0.000063      0.000067      0.000000
    306 O2    s       0.000035     -0.000059      0.000050      0.000000
    307 F     s      -0.000088      0.000118     -0.000017      0.000000
    308 F     s      -0.000028      0.000034     -0.000032      0.000000
    309 F     s       0.000059      0.000008      0.000170      0.000000
    310 F     s       0.000049     -0.000088      0.000053      0.000000
    311 F     s       0.000052      0.000052     -0.000349      0.000000
    312 F     s      -0.000141      0.000069     -0.000181      0.000000
--------------------------------------------------------------------------------
  Maximum abs         0.001997      0.000911      0.003203      0.000000
--------------------------------------------------------------------------------


  Time to end of optimisation =      14.5647 seconds


  Peak dynamic memory used =      19.13 MB 


  Timing analysis for GULP :

--------------------------------------------------------------------------------
  Task / Subroutine                                          Time (Seconds)
--------------------------------------------------------------------------------
  Calculation of reciprocal space energy and derivatives          0.4475
  Calculation of real space energy and derivatives               12.1069
  Calculation of three-body energy and derivatives                1.6396
  Calculation of matrix inversion                                 0.1920
--------------------------------------------------------------------------------
  Total CPU time                                                 14.5648
--------------------------------------------------------------------------------


  Dump file written as out.res                                                 
  CIF file written as out.cif                                                 


  Job Finished at 07:11.09  3rd December   2016                               

