********************************************************************************
*                       GENERAL UTILITY LATTICE PROGRAM                        *
*                                 Julian Gale                                  *
*                      Nanochemistry Research Institute                        *
*                           Department of Chemistry                            *
*                    Curtin University, Western Australia                      *
********************************************************************************
* Version = 4.2.0 * Last modified =  20th January 2014                         *
********************************************************************************
*  optimise     - perform optimisation run                                     *
*  conp         - constant pressure calculation                                *
*  qok          - running with non charge neutral cell is OK                   *
********************************************************************************

  Job Started  at 06:50.13  3rd December   2016                               

  Number of CPUs =     1


  Total number of configurations input =   1

********************************************************************************
*  Input for Configuration =   1                                               *
********************************************************************************

  Formula = Ge3Si57O120F6                                               

  Number of irreducible atoms/shells =     312


  Total number atoms/shells =     312

  Dimensionality = 3               :  Bulk   


  Charge on solid   =  -6.000000 =>neutralising background added


  Cartesian lattice vectors (Angstroms) :

       11.967669    0.000000    0.000000
       -6.114771   10.338178    0.000000
       -0.091867   -0.198295   29.540874

  Cell parameters (Angstroms/Degrees):

  a =      11.9677    alpha =  90.2403
  b =      12.0112    beta  =  90.1782
  c =      29.5417    gamma = 120.6032

  Initial cell volume =        3654.911868 Angs**3

  Temperature of configuration =  0.000     K 

  Pressure of configuration =         0.000 GPa 

  Fractional coordinates of asymmetric unit :

--------------------------------------------------------------------------------
   No.  Atomic       x           y          z         Charge      Occupancy
        Label      (Frac)      (Frac)     (Frac)        (e)         (Frac)  
--------------------------------------------------------------------------------
      1 Ge    c    0.699600    0.375700    0.033890     4.00000    1.000000    
      2 Si    c    0.624237 *  0.315520 *  0.366137 *   4.00000    1.000000    
      3 Si    c    0.678413 *  0.296638 *  0.699060 *   4.00000    1.000000    
      4 Si    c    0.296494 *  0.621627 *  0.530929 *   4.00000    1.000000    
      5 Si    c    0.374987 *  0.680945 *  0.862102 *   4.00000    1.000000    
      6 Si    c    0.319868 *  0.703462 *  0.199821 *   4.00000    1.000000    
      7 Si    c    0.374758 *  0.695369 *  0.301539 *   4.00000    1.000000    
      8 Si    c    0.322897 *  0.625383 *  0.964338 *   4.00000    1.000000    
      9 Si    c    0.296444 *  0.675819 *  0.631216 *   4.00000    1.000000    
     10 Si    c    0.621400 *  0.290159 *  0.798877 *   4.00000    1.000000    
     11 Si    c    0.674790 *  0.377461 *  0.467457 *   4.00000    1.000000    
     12 Si    c    0.686987 *  0.318953 *  0.132027 *   4.00000    1.000000    
     13 Si    c    0.531195 *  0.417591 *  0.966307 *   4.00000    1.000000    
     14 Ge    c    0.569248 *  0.092423 *  0.300945 *   4.00000    1.000000    
     15 Si    c    0.887564 *  0.469306 *  0.633756 *   4.00000    1.000000    
     16 Si    c    0.466490 *  0.580902 *  0.465880 *   4.00000    1.000000    
     17 Si    c    0.409614 *  0.884629 *  0.797737 *   4.00000    1.000000    
     18 Si    c    0.109218 *  0.535142 *  0.130936 *   4.00000    1.000000    
     19 Si    c    0.418026 *  0.523705 *  0.364773 *   4.00000    1.000000    
     20 Si    c    0.106330 *  0.583120 *  0.027980 *   4.00000    1.000000    
     21 Si    c    0.466494 *  0.886206 *  0.696769 *   4.00000    1.000000    
     22 Si    c    0.588757 *  0.467301 *  0.863093 *   4.00000    1.000000    
     23 Si    c    0.885751 *  0.416428 *  0.532333 *   4.00000    1.000000    
     24 Si    c    0.532151 *  0.123047 *  0.202860 *   4.00000    1.000000    
     25 Si    c    0.303153 *  0.399146 *  0.847890 *   4.00000    1.000000    
     26 Si    c    0.604526 *  0.910952 *  0.186630 *   4.00000    1.000000    
     27 Si    c    0.095136 *  0.698277 *  0.517152 *   4.00000    1.000000    
     28 Si    c    0.698543 *  0.594339 *  0.352205 *   4.00000    1.000000    
     29 Si    c    0.398139 *  0.096467 *  0.683321 *   4.00000    1.000000    
     30 Si    c    0.891758 *  0.294411 *  0.013304 *   4.00000    1.000000    
     31 Si    c    0.395477 *  0.301032 *  0.480915 *   4.00000    1.000000    
     32 Si    c    0.894310 *  0.604572 *  0.143621 *   4.00000    1.000000    
     33 Si    c    0.695625 *  0.088865 *  0.814078 *   4.00000    1.000000    
     34 Si    c    0.604341 *  0.703180 *  0.982855 *   4.00000    1.000000    
     35 Si    c    0.096051 *  0.396948 *  0.647219 *   4.00000    1.000000    
     36 Si    c    0.293418 *  0.895503 *  0.321272 *   4.00000    1.000000    
     37 Si    c    0.249223 *  0.339422 *  0.949210 *   4.00000    1.000000    
     38 Si    c    0.664931 *  0.910627 *  0.288206 *   4.00000    1.000000    
     39 Si    c    0.088904 *  0.749358 *  0.617718 *   4.00000    1.000000    
     40 Si    c    0.745672 *  0.657325 *  0.452198 *   4.00000    1.000000    
     41 Si    c    0.336354 *  0.087585 *  0.783220 *   4.00000    1.000000    
     42 Si    c    0.903137 *  0.251065 *  0.115875 *   4.00000    1.000000    
     43 Si    c    0.341639 *  0.246131 *  0.380175 *   4.00000    1.000000    
     44 Si    c    0.901565 *  0.661685 *  0.041427 *   4.00000    1.000000    
     45 Si    c    0.747686 *  0.086814 *  0.713331 *   4.00000    1.000000    
     46 Ge    c    0.641972 *  0.731921 *  0.883264 *   4.00000    1.000000    
     47 Si    c    0.086797 *  0.339616 *  0.546585 *   4.00000    1.000000    
     48 Si    c    0.249212 *  0.915369 *  0.218930 *   4.00000    1.000000    
     49 Si    c    0.968705 *  0.118768 *  0.964802 *   4.00000    1.000000    
     50 Si    c    0.877193 *  0.839204 *  0.300885 *   4.00000    1.000000    
     51 Si    c    0.149926 *  0.029297 *  0.632983 *   4.00000    1.000000    
     52 Si    c    0.025242 *  0.877315 *  0.468091 *   4.00000    1.000000    
     53 Si    c    0.117638 *  0.147698 *  0.799030 *   4.00000    1.000000    
     54 Si    c    0.850266 *  0.975978 *  0.134602 *   4.00000    1.000000    
     55 Si    c    0.115598 *  0.964760 *  0.367617 *   4.00000    1.000000    
     56 Si    c    0.850078 *  0.883691 *  0.033567 *   4.00000    1.000000    
     57 Si    c    0.027595 *  0.149392 *  0.697905 *   4.00000    1.000000    
     58 Si    c    0.872482 *  0.016173 *  0.864585 *   4.00000    1.000000    
     59 Si    c    0.148148 *  0.122407 *  0.532649 *   4.00000    1.000000    
     60 Si    c    0.968581 *  0.850811 *  0.199056 *   4.00000    1.000000    
     61 O2    c    0.925770 *  0.006436 *  0.001492 *   0.87073    1.000000    
     62 O2    c    0.998935 *  0.927367 *  0.332790 *   0.87073    1.000000    
     63 O2    c    0.070089 *  0.069339 *  0.666019 *   0.87073    1.000000    
     64 O2    c    0.066804 *  0.997941 *  0.501081 *   0.87073    1.000000    
     65 O2    c    0.998778 *  0.070305 *  0.832453 *   0.87073    1.000000    
     66 O2    c    0.930797 *  0.938215 *  0.168738 *   0.87073    1.000000    
     67 O2    c    0.339668 *  0.570110 *  0.331512 *   0.87073    1.000000    
     68 O2    c    0.420335 *  0.761674 *  0.664005 *   0.87073    1.000000    
     69 O2    c    0.233998 *  0.658678 *  0.996673 *   0.87073    1.000000    
     70 O2    c    0.660680 *  0.410385 *  0.832970 *   0.87073    1.000000    
     71 O2    c    0.572704 *  0.239712 *  0.167731 *   0.87073    1.000000    
     72 O2    c    0.758171 *  0.338972 *  0.500429 *   0.87073    1.000000    
     73 O3    c    0.567761 *  0.335869 *  0.998299 *   1.33043    1.000000    
     74 O2    c    0.763359 *  0.420281 *  0.666690 *   0.87073    1.000000    
     75 O3    c    0.659918 *  0.230004 *  0.336333 *   1.33043    1.000000    
     76 O2    c    0.418066 *  0.658795 *  0.497592 *   0.87073    1.000000    
     77 O2    c    0.233695 *  0.586112 *  0.164551 *   0.87073    1.000000    
     78 O2    c    0.327147 *  0.758232 *  0.829635 *   0.87073    1.000000    
     79 O2    c    0.124555 *  0.213412 *  0.969781 *   0.87073    1.000000    
     80 O2    c    0.783978 *  0.897437 *  0.306424 *   0.87073    1.000000    
     81 O2    c    0.087262 *  0.874749 *  0.637555 *   0.87073    1.000000    
     82 O2    c    0.870828 *  0.784454 *  0.473505 *   0.87073    1.000000    
     83 O2    c    0.210487 *  0.086980 *  0.803608 *   0.87073    1.000000    
     84 O2    c    0.909552 *  0.130848 *  0.137869 *   0.87073    1.000000    
     85 O2    c    0.215198 *  0.117084 *  0.360118 *   0.87073    1.000000    
     86 O2    c    0.919733 *  0.800007 *  0.026152 *   0.87073    1.000000    
     87 O2    c    0.872690 *  0.086213 *  0.692365 *   0.87073    1.000000    
     88 O3    c    0.785832 *  0.866856 *  0.860086 *   1.33043    1.000000    
     89 O2    c    0.085427 *  0.212877 *  0.526541 *   0.87073    1.000000    
     90 O2    c    0.123859 *  0.912346 *  0.196515 *   0.87073    1.000000    
     91 O2    c    0.925959 *  0.852253 *  0.249745 *   0.87073    1.000000    
     92 O2    c    0.136095 *  0.071867 *  0.583200 *   0.87073    1.000000    
     93 O2    c    0.930199 *  0.061179 *  0.915225 *   0.87073    1.000000    
     94 O2    c    0.064372 *  0.135571 *  0.748639 *   0.87073    1.000000    
     95 O2    c    0.865568 *  0.934389 *  0.084922 *   0.87073    1.000000    
     96 O2    c    0.061557 *  0.933663 *  0.417926 *   0.87073    1.000000    
     97 O2    c    0.902669 *  0.203425 *  0.975444 *   0.87073    1.000000    
     98 O2    c    0.799463 *  0.688358 *  0.313520 *   0.87073    1.000000    
     99 O2    c    0.302659 *  0.099380 *  0.644672 *   0.87073    1.000000    
    100 O2    c    0.096358 *  0.796535 *  0.479041 *   0.87073    1.000000    
    101 O2    c    0.203444 *  0.301098 *  0.810159 *   0.87073    1.000000    
    102 O2    c    0.698046 *  0.907848 *  0.147508 *   0.87073    1.000000    
    103 O2    c    0.183780 *  0.880597 *  0.357075 *   0.87073    1.000000    
    104 O2    c    0.695555 *  0.793996 *  0.024877 *   0.87073    1.000000    
    105 O2    c    0.098528 *  0.301177 *  0.685442 *   0.87073    1.000000    
    106 O2    c    0.790199 *  0.086855 *  0.852848 *   0.87073    1.000000    
    107 O2    c    0.299637 *  0.204110 *  0.519589 *   0.87073    1.000000    
    108 O2    c    0.897419 *  0.702455 *  0.182044 *   0.87073    1.000000    
    109 O2    c    0.322152 *  0.648661 *  0.249610 *   0.87073    1.000000    
    110 O2    c    0.355359 *  0.678847 *  0.581137 *   0.87073    1.000000    
    111 O2    c    0.322608 *  0.678075 *  0.913865 *   0.87073    1.000000    
    112 O2    c    0.680141 *  0.353272 *  0.749492 *   0.87073    1.000000    
    113 O3    c    0.615077 *  0.305072 *  0.084991 *   1.33043    1.000000    
    114 O2    c    0.675727 *  0.320477 *  0.417839 *   0.87073    1.000000    
    115 O2    c    0.373228 *  0.333835 *  0.966216 *   0.87073    1.000000    
    116 O3    c    0.684005 *  0.040369 *  0.308925 *   1.33043    1.000000    
    117 O2    c    0.956594 *  0.625927 *  0.636292 *   0.87073    1.000000    
    118 O2    c    0.623645 *  0.668898 *  0.469625 *   0.87073    1.000000    
    119 O2    c    0.323447 *  0.953828 *  0.800544 *   0.87073    1.000000    
    120 O2    c    0.035832 *  0.379225 *  0.132645 *   0.87073    1.000000    
    121 O2    c    0.329666 *  0.367031 *  0.361330 *   0.87073    1.000000    
    122 O2    c    0.035332 *  0.666753 *  0.025758 *   0.87073    1.000000    
    123 O2    c    0.623388 *  0.955296 *  0.694407 *   0.87073    1.000000    
    124 O3    c    0.677945 *  0.619699 *  0.858440 *   1.33043    1.000000    
    125 O2    c    0.953635 *  0.328939 *  0.528561 *   0.87073    1.000000    
    126 O2    c    0.373076 *  0.047060 *  0.201517 *   0.87073    1.000000    
    127 O3    c    0.757614 *  0.285437 *  0.003694 *   1.33043    1.000000    
    128 O2    c    0.698815 *  0.461593 *  0.345162 *   0.87073    1.000000    
    129 O2    c    0.534638 *  0.229643 *  0.676126 *   0.87073    1.000000    
    130 O2    c    0.228471 *  0.697039 *  0.509143 *   0.87073    1.000000    
    131 O2    c    0.305407 *  0.533891 *  0.841910 *   0.87073    1.000000    
    132 O2    c    0.465670 *  0.778467 *  0.180072 *   0.87073    1.000000    
    133 O2    c    0.297823 *  0.761882 *  0.322642 *   0.87073    1.000000    
    134 O2    c    0.466423 *  0.700351 *  0.987083 *   0.87073    1.000000    
    135 O2    c    0.230585 *  0.533086 *  0.653872 *   0.87073    1.000000    
    136 O2    c    0.696990 *  0.223469 *  0.821209 *   0.87073    1.000000    
    137 O2    c    0.530519 *  0.304228 *  0.489296 *   0.87073    1.000000    
    138 O2    c    0.762715 *  0.468030 *  0.151246 *   0.87073    1.000000    
    139 O3    c    0.774825 *  0.547163 *  0.019848 *   1.33043    1.000000    
    140 O2    c    0.466647 *  0.246568 *  0.360565 *   0.87073    1.000000    
    141 O2    c    0.751936 *  0.214804 *  0.694491 *   0.87073    1.000000    
    142 O2    c    0.213420 *  0.464989 *  0.526598 *   0.87073    1.000000    
    143 O3    c    0.528528 *  0.762770 *  0.856272 *   1.33043    1.000000    
    144 O2    c    0.254445 *  0.791690 *  0.200032 *   0.87073    1.000000    
    145 O2    c    0.530147 *  0.785313 *  0.304556 *   0.87073    1.000000    
    146 O2    c    0.256285 *  0.470096 *  0.966951 *   0.87073    1.000000    
    147 O2    c    0.215900 *  0.750722 *  0.636810 *   0.87073    1.000000    
    148 O2    c    0.463992 *  0.212568 *  0.803583 *   0.87073    1.000000    
    149 O2    c    0.747823 *  0.533810 *  0.472136 *   0.87073    1.000000    
    150 O2    c    0.778788 *  0.254086 *  0.134677 *   0.87073    1.000000    
    151 O2    c    0.236490 *  0.330391 *  0.895089 *   0.87073    1.000000    
    152 O2    c    0.675343 *  0.912287 *  0.233092 *   0.87073    1.000000    
    153 O2    c    0.091271 *  0.768395 *  0.563519 *   0.87073    1.000000    
    154 O2    c    0.769108 *  0.674615 *  0.398072 *   0.87073    1.000000    
    155 O2    c    0.321114 *  0.091797 *  0.728982 *   0.87073    1.000000    
    156 O2    c    0.899109 *  0.232914 *  0.061846 *   0.87073    1.000000    
    157 O2    c    0.322735 *  0.228395 *  0.434356 *   0.87073    1.000000    
    158 O2    c    0.896965 *  0.671425 *  0.096558 *   0.87073    1.000000    
    159 O2    c    0.765446 *  0.085455 *  0.767509 *   0.87073    1.000000    
    160 O3    c    0.688845 *  0.782518 *  0.940491 *   1.33043    1.000000    
    161 O2    c    0.089758 *  0.322283 *  0.600703 *   0.87073    1.000000    
    162 O2    c    0.233327 *  0.909488 *  0.272947 *   0.87073    1.000000    
    163 O2    c    0.580302 *  0.558925 *  0.988992 *   0.87073    1.000000    
    164 O3    c    0.425990 *  0.018934 *  0.335176 *   1.33043    1.000000    
    165 O2    c    0.971701 *  0.412169 *  0.656287 *   0.87073    1.000000    
    166 O2    c    0.407270 *  0.439622 *  0.488874 *   0.87073    1.000000    
    167 O2    c    0.551342 *  0.967199 *  0.821326 *   0.87073    1.000000    
    168 O2    c    0.019459 *  0.588314 *  0.150286 *   0.87073    1.000000    
    169 O2    c    0.560242 *  0.583742 *  0.341658 *   0.87073    1.000000    
    170 O2    c    0.017820 *  0.439264 *  0.007657 *   0.87073    1.000000    
    171 O2    c    0.409718 *  0.970256 *  0.674082 *   0.87073    1.000000    
    172 O2    c    0.443939 *  0.415498 *  0.841516 *   0.87073    1.000000    
    173 O2    c    0.968834 *  0.557453 *  0.508793 *   0.87073    1.000000    
    174 O2    c    0.586245 *  0.033562 *  0.180760 *   0.87073    1.000000    
    175 O3    c    0.589954 *  0.185426 *  0.250671 *   1.33043    1.000000    
    176 O2    c    0.833003 *  0.415507 *  0.583056 *   0.87073    1.000000    
    177 O2    c    0.584340 *  0.421662 *  0.915488 *   0.87073    1.000000    
    178 O2    c    0.410851 *  0.832012 *  0.747051 *   0.87073    1.000000    
    179 O2    c    0.155219 *  0.583082 *  0.079711 *   0.87073    1.000000    
    180 O2    c    0.414805 *  0.580385 *  0.414616 *   0.87073    1.000000    
    181 F     c    0.474486 *  0.945919 *  0.261877 *   0.56000    1.000000    
    182 F     c    0.095813 *  0.547854 *  0.581995 *   0.56000    1.000000    
    183 F     c    0.489197 *  0.584946 *  0.909553 *   0.56000    1.000000    
    184 F     c    0.545880 *  0.096463 *  0.748007 *   0.56000    1.000000    
    185 F     c    0.854970 *  0.436881 *  0.071002 *   0.56000    1.000000    
    186 F     c    0.545248 *  0.454281 *  0.415691 *   0.56000    1.000000    
    187 O2    s    0.921998 *  0.005067 *  0.001058 *  -2.87073    1.000000    
    188 O2    s    0.998169 *  0.921490 *  0.333073 *  -2.87073    1.000000    
    189 O2    s    0.074216 *  0.073809 *  0.665896 *  -2.87073    1.000000    
    190 O2    s    0.071284 *  0.998309 *  0.500904 *  -2.87073    1.000000    
    191 O2    s    0.999167 *  0.073524 *  0.831988 *  -2.87073    1.000000    
    192 O2    s    0.926200 *  0.932923 *  0.168312 *  -2.87073    1.000000    
    193 O2    s    0.351023 *  0.578964 *  0.331525 *  -2.87073    1.000000    
    194 O2    s    0.412296 *  0.765722 *  0.664004 *  -2.87073    1.000000    
    195 O2    s    0.229719 *  0.647367 *  0.996638 *  -2.87073    1.000000    
    196 O2    s    0.648891 *  0.403801 *  0.832602 *  -2.87073    1.000000    
    197 O2    s    0.580737 *  0.235881 *  0.167596 *  -2.87073    1.000000    
    198 O2    s    0.762767 *  0.350988 *  0.500317 *  -2.87073    1.000000    
    199 O3    s    0.573984 *  0.347507 *  0.997665 *  -3.33043    1.000000    
    200 O2    s    0.767525 *  0.412669 *  0.666614 *  -2.87073    1.000000    
    201 O3    s    0.649744 *  0.229800 *  0.337146 *  -3.33043    1.000000    
    202 O2    s    0.410544 *  0.646991 *  0.497765 *  -2.87073    1.000000    
    203 O2    s    0.229764 *  0.592956 *  0.164726 *  -2.87073    1.000000    
    204 O2    s    0.340065 *  0.762977 *  0.829740 *  -2.87073    1.000000    
    205 O2    s    0.121709 *  0.217073 *  0.967086 *  -2.87073    1.000000    
    206 O2    s    0.781247 *  0.892273 *  0.303803 *  -2.87073    1.000000    
    207 O2    s    0.094065 *  0.878142 *  0.635048 *  -2.87073    1.000000    
    208 O2    s    0.874505 *  0.781258 *  0.470724 *  -2.87073    1.000000    
    209 O2    s    0.213755 *  0.093476 *  0.801025 *  -2.87073    1.000000    
    210 O2    s    0.902724 *  0.127166 *  0.135282 *  -2.87073    1.000000    
    211 O2    s    0.217533 *  0.114042 *  0.362955 *  -2.87073    1.000000    
    212 O2    s    0.910538 *  0.794866 *  0.028466 *  -2.87073    1.000000    
    213 O2    s    0.876327 *  0.093010 *  0.695084 *  -2.87073    1.000000    
    214 O3    s    0.786254 *  0.875047 *  0.862109 *  -3.33043    1.000000    
    215 O2    s    0.092189 *  0.216339 *  0.529231 *  -2.87073    1.000000    
    216 O2    s    0.120376 *  0.906111 *  0.199094 *  -2.87073    1.000000    
    217 O2    s    0.925483 *  0.850623 *  0.249528 *  -2.87073    1.000000    
    218 O2    s    0.139010 *  0.072769 *  0.583094 *  -2.87073    1.000000    
    219 O2    s    0.928721 *  0.063272 *  0.915755 *  -2.87073    1.000000    
    220 O2    s    0.066237 *  0.138507 *  0.748588 *  -2.87073    1.000000    
    221 O2    s    0.862156 *  0.933718 *  0.085056 *  -2.87073    1.000000    
    222 O2    s    0.063684 *  0.930912 *  0.417762 *  -2.87073    1.000000    
    223 O2    s    0.908748 *  0.203854 *  0.978331 *  -2.87073    1.000000    
    224 O2    s    0.797917 *  0.695442 *  0.315965 *  -2.87073    1.000000    
    225 O2    s    0.296064 *  0.091597 *  0.647359 *  -2.87073    1.000000    
    226 O2    s    0.088758 *  0.795125 *  0.481724 *  -2.87073    1.000000    
    227 O2    s    0.205124 *  0.295558 *  0.813003 *  -2.87073    1.000000    
    228 O2    s    0.704322 *  0.915266 *  0.150168 *  -2.87073    1.000000    
    229 O2    s    0.187804 *  0.890714 *  0.354514 *  -2.87073    1.000000    
    230 O2    s    0.702813 *  0.794554 *  0.021737 *  -2.87073    1.000000    
    231 O2    s    0.090828 *  0.294959 *  0.682864 *  -2.87073    1.000000    
    232 O2    s    0.788519 *  0.080044 *  0.849963 *  -2.87073    1.000000    
    233 O2    s    0.293226 *  0.205314 *  0.517010 *  -2.87073    1.000000    
    234 O2    s    0.904690 *  0.708061 *  0.179820 *  -2.87073    1.000000    
    235 O2    s    0.327009 *  0.658899 *  0.249470 *  -2.87073    1.000000    
    236 O2    s    0.343369 *  0.672685 *  0.581076 *  -2.87073    1.000000    
    237 O2    s    0.327691 *  0.672873 *  0.914142 *  -2.87073    1.000000    
    238 O2    s    0.674007 *  0.341094 *  0.749337 *  -2.87073    1.000000    
    239 O3    s    0.628370 *  0.311485 *  0.086123 *  -3.33043    1.000000    
    240 O2    s    0.670450 *  0.326035 *  0.417911 *  -2.87073    1.000000    
    241 O2    s    0.375378 *  0.342995 *  0.964313 *  -2.87073    1.000000    
    242 O3    s    0.674095 *  0.030004 *  0.306139 *  -3.33043    1.000000    
    243 O2    s    0.963356 *  0.622726 *  0.634075 *  -2.87073    1.000000    
    244 O2    s    0.620166 *  0.658557 *  0.467391 *  -2.87073    1.000000    
    245 O2    s    0.333739 *  0.960722 *  0.798412 *  -2.87073    1.000000    
    246 O2    s    0.029943 *  0.382556 *  0.130732 *  -2.87073    1.000000    
    247 O2    s    0.339959 *  0.370862 *  0.363605 *  -2.87073    1.000000    
    248 O2    s    0.029690 *  0.657328 *  0.027543 *  -2.87073    1.000000    
    249 O2    s    0.620279 *  0.962098 *  0.696671 *  -2.87073    1.000000    
    250 O3    s    0.666068 *  0.612127 *  0.860761 *  -3.33043    1.000000    
    251 O2    s    0.960635 *  0.339043 *  0.530849 *  -2.87073    1.000000    
    252 O2    s    0.375255 *  0.040197 *  0.203571 *  -2.87073    1.000000    
    253 O3    s    0.767898 *  0.292459 *  0.006816 *  -3.33043    1.000000    
    254 O2    s    0.691367 *  0.461518 *  0.348039 *  -2.87073    1.000000    
    255 O2    s    0.534925 *  0.222389 *  0.679283 *  -2.87073    1.000000    
    256 O2    s    0.221461 *  0.689468 *  0.512227 *  -2.87073    1.000000    
    257 O2    s    0.312241 *  0.534447 *  0.844620 *  -2.87073    1.000000    
    258 O2    s    0.464563 *  0.784192 *  0.182847 *  -2.87073    1.000000    
    259 O2    s    0.305364 *  0.768324 *  0.320266 *  -2.87073    1.000000    
    260 O2    s    0.465082 *  0.692867 *  0.984269 *  -2.87073    1.000000    
    261 O2    s    0.223108 *  0.533319 *  0.650806 *  -2.87073    1.000000    
    262 O2    s    0.689013 *  0.216283 *  0.818113 *  -2.87073    1.000000    
    263 O2    s    0.531031 *  0.311466 *  0.486120 *  -2.87073    1.000000    
    264 O2    s    0.769435 *  0.468070 *  0.148482 *  -2.87073    1.000000    
    265 O3    s    0.784125 *  0.549051 *  0.023012 *  -3.33043    1.000000    
    266 O2    s    0.468502 *  0.253549 *  0.363254 *  -2.87073    1.000000    
    267 O2    s    0.743714 *  0.209429 *  0.696984 *  -2.87073    1.000000    
    268 O2    s    0.208266 *  0.467771 *  0.529192 *  -2.87073    1.000000    
    269 O3    s    0.521136 *  0.751938 *  0.858858 *  -3.33043    1.000000    
    270 O2    s    0.261040 *  0.795193 *  0.202001 *  -2.87073    1.000000    
    271 O2    s    0.527119 *  0.788633 *  0.302532 *  -2.87073    1.000000    
    272 O2    s    0.262623 *  0.472630 *  0.964799 *  -2.87073    1.000000    
    273 O2    s    0.210306 *  0.742727 *  0.634185 *  -2.87073    1.000000    
    274 O2    s    0.466331 *  0.206913 *  0.800911 *  -2.87073    1.000000    
    275 O2    s    0.739841 *  0.530909 *  0.469491 *  -2.87073    1.000000    
    276 O2    s    0.783397 *  0.260253 *  0.132352 *  -2.87073    1.000000    
    277 O2    s    0.244900 *  0.338634 *  0.896038 *  -2.87073    1.000000    
    278 O2    s    0.666614 *  0.912015 *  0.233553 *  -2.87073    1.000000    
    279 O2    s    0.091418 *  0.759013 *  0.564365 *  -2.87073    1.000000    
    280 O2    s    0.759338 *  0.664504 *  0.398957 *  -2.87073    1.000000    
    281 O2    s    0.330725 *  0.091826 *  0.729968 *  -2.87073    1.000000    
    282 O2    s    0.898766 *  0.240894 *  0.062946 *  -2.87073    1.000000    
    283 O2    s    0.332332 *  0.237881 *  0.433522 *  -2.87073    1.000000    
    284 O2    s    0.897031 *  0.662943 *  0.096312 *  -2.87073    1.000000    
    285 O2    s    0.756343 *  0.085937 *  0.766568 *  -2.87073    1.000000    
    286 O3    s    0.677001 *  0.770956 *  0.940840 *  -3.33043    1.000000    
    287 O2    s    0.090098 *  0.331963 *  0.599864 *  -2.87073    1.000000    
    288 O2    s    0.240900 *  0.908817 *  0.271690 *  -2.87073    1.000000    
    289 O2    s    0.577620 *  0.559790 *  0.985996 *  -2.87073    1.000000    
    290 O3    s    0.421505 *  0.010420 *  0.331351 *  -3.33043    1.000000    
    291 O2    s    0.976517 *  0.416670 *  0.652945 *  -2.87073    1.000000    
    292 O2    s    0.412347 *  0.439503 *  0.485596 *  -2.87073    1.000000    
    293 O2    s    0.551895 *  0.971811 *  0.818038 *  -2.87073    1.000000    
    294 O2    s    0.015940 *  0.584223 *  0.147496 *  -2.87073    1.000000    
    295 O2    s    0.559934 *  0.578501 *  0.345148 *  -2.87073    1.000000    
    296 O2    s    0.014477 *  0.440179 *  0.010441 *  -2.87073    1.000000    
    297 O2    s    0.414571 *  0.975227 *  0.677457 *  -2.87073    1.000000    
    298 O2    s    0.442809 *  0.419008 *  0.844355 *  -2.87073    1.000000    
    299 O2    s    0.974042 *  0.558055 *  0.512135 *  -2.87073    1.000000    
    300 O2    s    0.582918 *  0.028670 *  0.183563 *  -2.87073    1.000000    
    301 O3    s    0.582362 *  0.172487 *  0.248937 *  -3.33043    1.000000    
    302 O2    s    0.844162 *  0.421190 *  0.583049 *  -2.87073    1.000000    
    303 O2    s    0.579306 *  0.425889 *  0.915534 *  -2.87073    1.000000    
    304 O2    s    0.416453 *  0.843053 *  0.747112 *  -2.87073    1.000000    
    305 O2    s    0.145495 *  0.578027 *  0.079966 *  -2.87073    1.000000    
    306 O2    s    0.420367 *  0.574594 *  0.414690 *  -2.87073    1.000000    
    307 F     s    0.480156 *  0.955055 *  0.264189 *  -1.56000    1.000000    
    308 F     s    0.096340 *  0.548111 *  0.581995 *  -1.56000    1.000000    
    309 F     s    0.497479 *  0.593384 *  0.908204 *  -1.56000    1.000000    
    310 F     s    0.546078 *  0.097288 *  0.747985 *  -1.56000    1.000000    
    311 F     s    0.845988 *  0.433285 *  0.069081 *  -1.56000    1.000000    
    312 F     s    0.545203 *  0.454786 *  0.415633 *  -1.56000    1.000000    
--------------------------------------------------------------------------------



********************************************************************************
*  General input information                                                   *
********************************************************************************

  Species output for all configurations : 

--------------------------------------------------------------------------------
  Species    Type    Atomic    Atomic    Charge       Radii (Angs)     Library
                     Number     Mass       (e)     Cova   Ionic  VDW   Symbol
--------------------------------------------------------------------------------
    Si       Core       14      28.09   4.000000   1.200  0.000  2.100          
    O1       Core        8      16.00   1.733957   0.730  0.000  1.360          
    O1       Shell       8       0.00  -3.733957   0.730  0.000  1.360          
    O2       Core        8      16.00   0.870733   0.730  0.000  1.360          
    O2       Shell       8       0.00  -2.870733   0.730  0.000  1.360          
    O3       Core        8      16.00   1.330431   0.730  0.000  1.360          
    O3       Shell       8       0.00  -3.330431   0.730  0.000  1.360          
    F        Core        9      19.00   0.560000   0.710  0.000  1.300          
    F        Shell       9       0.00  -1.560000   0.710  0.000  1.300          
    Ge       Core       32      72.61   4.000000   1.170  0.000  1.750          
--------------------------------------------------------------------------------


  Lattice summation method               =    Ewald          (3-D)
                                         =    Parry          (2-D)
                                         =    Saunders et al (1-D)
  Accuracy factor for lattice sums       =   12.000


  Time limit = Infinity

  Maximum range for interatomic potentials =        16.000000 Angstroms

  Taper potentials to zero over   1.0000 Angstroms using polynomial

  General interatomic potentials :

--------------------------------------------------------------------------------
Atom  Types   Potential         A         B         C         D     Cutoffs(Ang)
  1     2                                                            Min    Max 
--------------------------------------------------------------------------------
Si   c O1   s Buckingham    0.132E+04 0.318      10.1      0.00     0.000 16.000
Si   c O2   s Buckingham    0.132E+04 0.318      10.1      0.00     0.000 16.000
Si   c O3   s Buckingham    0.132E+04 0.318      10.1      0.00     0.000 16.000
Ge   c O1   s Buckingham    0.150E+04 0.326      16.8      0.00     0.000 16.000
Ge   c O2   s Buckingham    0.150E+04 0.326      16.8      0.00     0.000 16.000
Ge   c O3   s Buckingham    0.150E+04 0.326      16.8      0.00     0.000 16.000
O1   s O1   s Buckingham    0.228E+05 0.149      10.9      0.00     0.000 16.000
O1   s O2   s Buckingham    0.228E+05 0.149      10.9      0.00     0.000 16.000
O1   s O3   s Buckingham    0.228E+05 0.149      10.9      0.00     0.000 16.000
O2   s O2   s Buckingham    0.228E+05 0.149      10.9      0.00     0.000 16.000
O2   s O3   s Buckingham    0.228E+05 0.149      10.9      0.00     0.000 16.000
O3   s O3   s Buckingham    0.228E+05 0.149      10.9      0.00     0.000 16.000
Si   c F    s Buckingham     977.     0.282      0.00      0.00     0.000 16.000
Ge   c F    s Buckingham     681.     0.320      0.00      0.00     0.000 16.000
F    s F    s Buckingham     540.     0.262      0.00      0.00     0.000 16.000
O1   s F    s Buckingham    0.168E+04 0.268      0.00      0.00     0.000 16.000
O2   s F    s Buckingham    0.168E+04 0.268      0.00      0.00     0.000 16.000
O3   s F    s Buckingham    0.168E+04 0.268      0.00      0.00     0.000 16.000
O2   c O2   s Spring (c-s)   76.0      0.00      0.00      0.00     0.000  0.800
O3   c O3   s Spring (c-s)   128.      0.00      0.00      0.00     0.000  0.800
O1   c O1   s Spring (c-s)   180.      0.00      0.00      0.00     0.000  0.800
F    c F    s Spring (c-s)   33.5      0.00      0.00      0.00     0.000  0.800
--------------------------------------------------------------------------------

  General Three-body potentials :

  Harmonic form:

--------------------------------------------------------------------------------
Atom    Atom    Atom           Force Constants            Theta     Cutoffs  
  1       2       3     (eVrad**-2/eVrad**-3/eVrad**-4)   (deg)  1-2  1-3  2-3
--------------------------------------------------------------------------------
Si    c O1    s O1    s  1.261        0.0000    0.0000   109.470 0.00 0.00 0.00
                                                                 1.90 1.90 3.50
Si    c O1    s O2    s  1.261        0.0000    0.0000   109.470 0.00 0.00 0.00
                                                                 1.90 1.90 3.50
Si    c O2    s O2    s  1.261        0.0000    0.0000   109.470 0.00 0.00 0.00
                                                                 1.90 1.90 3.50
--------------------------------------------------------------------------------

********************************************************************************
*  Output for configuration   1                                                *
********************************************************************************


  Components of energy : 

--------------------------------------------------------------------------------
  Interatomic potentials     =        2065.64495176 eV
  Three-body potentials      =           0.48494381 eV
  Monopole - monopole (real) =       -6614.88767693 eV
  Monopole - monopole (recip)=       -3171.88712207 eV
  Monopole - monopole (total)=       -9786.77479900 eV
  Neutralising energy        =          -6.46114730 eV
--------------------------------------------------------------------------------
  Total lattice energy       =       -7727.10605073 eV
--------------------------------------------------------------------------------
  Total lattice energy       =         -745547.6143 kJ/(mole unit cells)
--------------------------------------------------------------------------------


  Number of variables =      939

  Maximum number of calculations  =          1000
  Maximum Hessian update interval =            10
  Maximum step size               =   1.000000000
  Maximum parameter tolerance     =   0.000010000
  Maximum function  tolerance     =   0.000010000
  Maximum gradient  tolerance     =   0.001000000
  Maximum gradient  component     =   0.010000000

  Symmetry not applied to optimisation

  Cell parameters to be optimised using strains

  Newton-Raphson optimiser to be used

  BFGS hessian update to be used

  Dumpfile to be written after every cycle

  Start of bulk optimisation :

  Cycle:      0 Energy:     -7727.106051  Gnorm:      0.007324  CPU:    1.085
  ** Hessian calculated **
  Cycle:      1 Energy:     -7727.308058  Gnorm:      0.007569  CPU:    3.646
  Cycle:      2 Energy:     -7727.340338  Gnorm:      0.005505  CPU:    5.023
  Cycle:      3 Energy:     -7727.341327  Gnorm:      0.002394  CPU:    6.401
  Cycle:      4 Energy:     -7727.342100  Gnorm:      0.000450  CPU:    7.780
  Cycle:      5 Energy:     -7727.342106  Gnorm:      0.000139  CPU:    9.158


  **** Optimisation achieved ****


  Final energy =   -7727.34210625 eV
  Final Gnorm  =       0.00001378

  Components of energy : 

--------------------------------------------------------------------------------
  Interatomic potentials     =        2066.65814692 eV
  Three-body potentials      =           0.48438857 eV
  Monopole - monopole (real) =       -6617.30297223 eV
  Monopole - monopole (recip)=       -3170.72289056 eV
  Monopole - monopole (total)=       -9788.02586279 eV
  Neutralising energy        =          -6.45877894 eV
--------------------------------------------------------------------------------
  Total lattice energy       =       -7727.34210625 eV
--------------------------------------------------------------------------------
  Total lattice energy       =         -745570.3900 kJ/(mole unit cells)
--------------------------------------------------------------------------------

  Final fractional coordinates of atoms :

--------------------------------------------------------------------------------
   No.  Atomic        x           y          z          Radius
        Label       (Frac)      (Frac)     (Frac)       (Angs) 
--------------------------------------------------------------------------------
     1  Ge    c     0.699600    0.375700    0.033890    0.000000
     2  Si    c     0.583804    0.284741    0.366470    0.000000
     3  Si    c     0.644780    0.268484    0.699273    0.000000
     4  Si    c     0.253758    0.589696    0.529378    0.000000
     5  Si    c     0.353108    0.658551    0.860544    0.000000
     6  Si    c     0.295235    0.689128    0.198962    0.000000
     7  Si    c     0.341199    0.669782    0.300782    0.000000
     8  Si    c     0.306179    0.608978    0.963586    0.000000
     9  Si    c     0.261843    0.648682    0.629773    0.000000
    10  Si    c     0.590024    0.261965    0.799487    0.000000
    11  Si    c     0.631976    0.347431    0.467938    0.000000
    12  Si    c     0.665197    0.304532    0.131627    0.000000
    13  Si    c     0.518201    0.404931    0.967377    0.000000
    14  Ge    c     0.536677    0.065596    0.301432    0.000000
    15  Si    c     0.853174    0.442476    0.634305    0.000000
    16  Si    c     0.422549    0.548539    0.463977    0.000000
    17  Si    c     0.378420    0.857616    0.796139    0.000000
    18  Si    c     0.087796    0.521546    0.129930    0.000000
    19  Si    c     0.376434    0.490701    0.362797    0.000000
    20  Si    c     0.091719    0.573451    0.027034    0.000000
    21  Si    c     0.433846    0.859851    0.695029    0.000000
    22  Si    c     0.568908    0.447246    0.863071    0.000000
    23  Si    c     0.843704    0.385890    0.532863    0.000000
    24  Si    c     0.508035    0.107883    0.203233    0.000000
    25  Si    c     0.283204    0.377548    0.847495    0.000000
    26  Si    c     0.580390    0.896258    0.186916    0.000000
    27  Si    c     0.052811    0.666755    0.516930    0.000000
    28  Si    c     0.657213    0.562052    0.350743    0.000000
    29  Si    c     0.364921    0.069462    0.682469    0.000000
    30  Si    c     0.878822    0.283772    0.011621    0.000000
    31  Si    c     0.351864    0.269899    0.479869    0.000000
    32  Si    c     0.873535    0.591025    0.142689    0.000000
    33  Si    c     0.663855    0.060006    0.814057    0.000000
    34  Si    c     0.588645    0.690136    0.982176    0.000000
    35  Si    c     0.061666    0.370302    0.646657    0.000000
    36  Si    c     0.260877    0.869125    0.321980    0.000000
    37  Si    c     0.235022    0.324005    0.949618    0.000000
    38  Si    c     0.632435    0.885088    0.289027    0.000000
    39  Si    c     0.053508    0.721846    0.617517    0.000000
    40  Si    c     0.702529    0.626355    0.450969    0.000000
    41  Si    c     0.305151    0.059743    0.782734    0.000000
    42  Si    c     0.882575    0.237840    0.114934    0.000000
    43  Si    c     0.300746    0.214588    0.379007    0.000000
    44  Si    c     0.892536    0.658967    0.040460    0.000000
    45  Si    c     0.714893    0.059499    0.712961    0.000000
    46  Ge    c     0.620102    0.710336    0.882173    0.000000
    47  Si    c     0.044513    0.308327    0.546043    0.000000
    48  Si    c     0.224042    0.899343    0.219303    0.000000
    49  Si    c     0.952604    0.106111    0.963896    0.000000
    50  Si    c     0.839462    0.807040    0.300381    0.000000
    51  Si    c     0.115155    0.001753    0.632871    0.000000
    52  Si    c     0.982509    0.845900    0.467846    0.000000
    53  Si    c     0.091901    0.126150    0.798790    0.000000
    54  Si    c     0.828174    0.963311    0.135126    0.000000
    55  Si    c     0.078074    0.932522    0.367551    0.000000
    56  Si    c     0.833017    0.874378    0.033878    0.000000
    57  Si    c     0.996085    0.124226    0.697865    0.000000
    58  Si    c     0.847316    0.995024    0.864779    0.000000
    59  Si    c     0.104949    0.090850    0.532301    0.000000
    60  Si    c     0.942544    0.834042    0.199290    0.000000
    61  O2    c     0.906875    0.998361    0.002450    0.000000
    62  O2    c     0.960389    0.889931    0.332941    0.000000
    63  O2    c     0.036952    0.042036    0.666528    0.000000
    64  O2    c     0.022408    0.965118    0.501367    0.000000
    65  O2    c     0.973230    0.053729    0.832504    0.000000
    66  O2    c     0.907556    0.925158    0.169774    0.000000
    67  O2    c     0.301798    0.540596    0.329087    0.000000
    68  O2    c     0.387459    0.736234    0.661784    0.000000
    69  O2    c     0.219322    0.645436    0.995686    0.000000
    70  O2    c     0.634352    0.383050    0.833437    0.000000
    71  O2    c     0.551407    0.225037    0.167768    0.000000
    72  O2    c     0.714312    0.309304    0.501673    0.000000
    73  O3    c     0.561908    0.330589    0.999443    0.000000
    74  O2    c     0.730168    0.393767    0.667691    0.000000
    75  O3    c     0.623373    0.201104    0.337572    0.000000
    76  O2    c     0.373528    0.626273    0.495240    0.000000
    77  O2    c     0.211903    0.572597    0.163435    0.000000
    78  O2    c     0.299329    0.730714    0.828133    0.000000
    79  O2    c     0.108748    0.196872    0.969152    0.000000
    80  O2    c     0.748542    0.867142    0.307119    0.000000
    81  O2    c     0.053592    0.847588    0.637532    0.000000
    82  O2    c     0.827529    0.754090    0.471956    0.000000
    83  O2    c     0.179567    0.059824    0.803050    0.000000
    84  O2    c     0.888457    0.118030    0.137472    0.000000
    85  O2    c     0.175331    0.084614    0.359011    0.000000
    86  O2    c     0.909430    0.797057    0.026493    0.000000
    87  O2    c     0.841043    0.060314    0.692556    0.000000
    88  O3    c     0.765216    0.845901    0.859874    0.000000
    89  O2    c     0.040921    0.180176    0.526505    0.000000
    90  O2    c     0.098138    0.897773    0.197959    0.000000
    91  O2    c     0.890992    0.825243    0.249403    0.000000
    92  O2    c     0.097402    0.042645    0.583128    0.000000
    93  O2    c     0.908051    0.043526    0.915130    0.000000
    94  O2    c     0.036641    0.115230    0.748660    0.000000
    95  O2    c     0.843868    0.921019    0.085573    0.000000
    96  O2    c     0.023914    0.903768    0.417943    0.000000
    97  O2    c     0.891751    0.195802    0.973442    0.000000
    98  O2    c     0.758128    0.655360    0.311766    0.000000
    99  O2    c     0.268452    0.072452    0.644018    0.000000
   100  O2    c     0.051935    0.764042    0.478911    0.000000
   101  O2    c     0.182963    0.278574    0.810081    0.000000
   102  O2    c     0.676142    0.896062    0.148083    0.000000
   103  O2    c     0.149327    0.851232    0.357444    0.000000
   104  O2    c     0.679855    0.781943    0.024077    0.000000
   105  O2    c     0.066487    0.275212    0.684648    0.000000
   106  O2    c     0.758408    0.058678    0.853098    0.000000
   107  O2    c     0.255515    0.172922    0.518390    0.000000
   108  O2    c     0.874408    0.688064    0.180671    0.000000
   109  O2    c     0.294258    0.629658    0.248117    0.000000
   110  O2    c     0.316461    0.648856    0.579130    0.000000
   111  O2    c     0.303601    0.657839    0.912645    0.000000
   112  O2    c     0.646169    0.323850    0.749773    0.000000
   113  O3    c     0.603340    0.298216    0.083694    0.000000
   114  O2    c     0.633640    0.290154    0.418508    0.000000
   115  O2    c     0.359418    0.320474    0.967541    0.000000
   116  O3    c     0.651898    0.014064    0.310143    0.000000
   117  O2    c     0.921999    0.598772    0.636701    0.000000
   118  O2    c     0.579698    0.636958    0.467848    0.000000
   119  O2    c     0.290672    0.924891    0.799514    0.000000
   120  O2    c     0.014147    0.366120    0.132080    0.000000
   121  O2    c     0.287571    0.334138    0.359315    0.000000
   122  O2    c     0.025794    0.662076    0.025484    0.000000
   123  O2    c     0.590983    0.929264    0.693001    0.000000
   124  O3    c     0.657724    0.599086    0.857226    0.000000
   125  O2    c     0.910722    0.297873    0.528699    0.000000
   126  O2    c     0.348402    0.030955    0.201765    0.000000
   127  O3    c     0.746645    0.278256    0.002605    0.000000
   128  O2    c     0.658258    0.429881    0.344857    0.000000
   129  O2    c     0.501789    0.202318    0.675625    0.000000
   130  O2    c     0.185193    0.664835    0.507840    0.000000
   131  O2    c     0.284247    0.511171    0.841125    0.000000
   132  O2    c     0.441026    0.765570    0.179247    0.000000
   133  O2    c     0.262576    0.734278    0.321814    0.000000
   134  O2    c     0.449970    0.685958    0.986011    0.000000
   135  O2    c     0.196793    0.506239    0.652568    0.000000
   136  O2    c     0.665077    0.194088    0.821100    0.000000
   137  O2    c     0.487107    0.274344    0.489248    0.000000
   138  O2    c     0.742979    0.454191    0.150572    0.000000
   139  O3    c     0.769080    0.543832    0.017529    0.000000
   140  O2    c     0.426320    0.215081    0.359961    0.000000
   141  O2    c     0.719156    0.187732    0.694556    0.000000
   142  O2    c     0.170157    0.433147    0.525319    0.000000
   143  O3    c     0.506454    0.739865    0.854155    0.000000
   144  O2    c     0.228941    0.776492    0.199579    0.000000
   145  O2    c     0.496302    0.760326    0.304919    0.000000
   146  O2    c     0.240255    0.453934    0.967061    0.000000
   147  O2    c     0.181223    0.723041    0.635709    0.000000
   148  O2    c     0.432617    0.183311    0.803983    0.000000
   149  O2    c     0.704289    0.503547    0.471690    0.000000
   150  O2    c     0.757614    0.240150    0.133159    0.000000
   151  O2    c     0.220578    0.312200    0.895521    0.000000
   152  O2    c     0.646146    0.891635    0.233879    0.000000
   153  O2    c     0.052236    0.738776    0.563227    0.000000
   154  O2    c     0.726036    0.642436    0.396765    0.000000
   155  O2    c     0.289288    0.065142    0.728477    0.000000
   156  O2    c     0.882606    0.221960    0.060755    0.000000
   157  O2    c     0.280206    0.196820    0.433212    0.000000
   158  O2    c     0.877793    0.658901    0.095514    0.000000
   159  O2    c     0.732057    0.056141    0.767175    0.000000
   160  O3    c     0.670194    0.766740    0.939087    0.000000
   161  O2    c     0.051222    0.293763    0.600223    0.000000
   162  O2    c     0.206792    0.890618    0.273321    0.000000
   163  O2    c     0.565530    0.547018    0.988993    0.000000
   164  O3    c     0.394153    0.989488    0.336523    0.000000
   165  O2    c     0.938470    0.386353    0.656649    0.000000
   166  O2    c     0.362743    0.407844    0.487440    0.000000
   167  O2    c     0.519067    0.939123    0.820632    0.000000
   168  O2    c     0.999167    0.575852    0.149219    0.000000
   169  O2    c     0.518521    0.549727    0.339715    0.000000
   170  O2    c     0.001726    0.430652    0.006465    0.000000
   171  O2    c     0.376414    0.943740    0.672637    0.000000
   172  O2    c     0.424271    0.395211    0.841190    0.000000
   173  O2    c     0.925699    0.526429    0.509018    0.000000
   174  O2    c     0.563985    0.019832    0.181593    0.000000
   175  O3    c     0.561905    0.164726    0.251799    0.000000
   176  O2    c     0.794903    0.386685    0.584050    0.000000
   177  O2    c     0.567462    0.406864    0.915938    0.000000
   178  O2    c     0.378386    0.804724    0.745359    0.000000
   179  O2    c     0.136892    0.570105    0.078977    0.000000
   180  O2    c     0.371335    0.547034    0.412475    0.000000
   181  F     c     0.445145    0.924552    0.261786    0.000000
   182  F     c     0.057124    0.518893    0.581305    0.000000
   183  F     c     0.471330    0.566752    0.908999    0.000000
   184  F     c     0.511248    0.066308    0.747144    0.000000
   185  F     c     0.845139    0.430995    0.070536    0.000000
   186  F     c     0.500772    0.421394    0.414525    0.000000
   187  O2    s     0.903507    0.996181    0.001753    0.000000
   188  O2    s     0.959849    0.885173    0.333120    0.000000
   189  O2    s     0.041099    0.046693    0.666267    0.000000
   190  O2    s     0.027168    0.965797    0.501059    0.000000
   191  O2    s     0.973619    0.055921    0.832024    0.000000
   192  O2    s     0.902748    0.919544    0.169194    0.000000
   193  O2    s     0.313229    0.549496    0.329328    0.000000
   194  O2    s     0.379296    0.739939    0.661898    0.000000
   195  O2    s     0.214656    0.634105    0.995730    0.000000
   196  O2    s     0.622701    0.377163    0.833021    0.000000
   197  O2    s     0.558975    0.221253    0.167614    0.000000
   198  O2    s     0.719219    0.321192    0.501412    0.000000
   199  O3    s     0.566980    0.342020    0.998393    0.000000
   200  O2    s     0.734203    0.385928    0.667477    0.000000
   201  O3    s     0.612948    0.200685    0.338183    0.000000
   202  O2    s     0.366277    0.614521    0.495532    0.000000
   203  O2    s     0.207591    0.579418    0.163639    0.000000
   204  O2    s     0.312547    0.736039    0.828230    0.000000
   205  O2    s     0.105845    0.200852    0.966567    0.000000
   206  O2    s     0.745826    0.862336    0.304362    0.000000
   207  O2    s     0.060087    0.850880    0.634997    0.000000
   208  O2    s     0.831271    0.750724    0.469355    0.000000
   209  O2    s     0.183314    0.066846    0.800516    0.000000
   210  O2    s     0.881559    0.114242    0.134927    0.000000
   211  O2    s     0.177813    0.081703    0.361940    0.000000
   212  O2    s     0.899781    0.790892    0.028688    0.000000
   213  O2    s     0.844569    0.067040    0.695197    0.000000
   214  O3    s     0.765101    0.854115    0.861874    0.000000
   215  O2    s     0.048026    0.183877    0.529090    0.000000
   216  O2    s     0.094604    0.891143    0.200293    0.000000
   217  O2    s     0.891264    0.824260    0.249257    0.000000
   218  O2    s     0.100247    0.043475    0.582984    0.000000
   219  O2    s     0.907053    0.045913    0.915669    0.000000
   220  O2    s     0.038303    0.117488    0.748563    0.000000
   221  O2    s     0.840892    0.920804    0.085613    0.000000
   222  O2    s     0.025491    0.900581    0.417743    0.000000
   223  O2    s     0.897031    0.195636    0.976562    0.000000
   224  O2    s     0.756984    0.662547    0.314359    0.000000
   225  O2    s     0.261922    0.064647    0.646713    0.000000
   226  O2    s     0.044665    0.762846    0.481597    0.000000
   227  O2    s     0.184143    0.273200    0.812874    0.000000
   228  O2    s     0.682213    0.903090    0.150694    0.000000
   229  O2    s     0.153249    0.861351    0.354888    0.000000
   230  O2    s     0.687204    0.782814    0.021096    0.000000
   231  O2    s     0.058578    0.269011    0.682155    0.000000
   232  O2    s     0.757369    0.052543    0.850194    0.000000
   233  O2    s     0.249222    0.174105    0.515901    0.000000
   234  O2    s     0.881704    0.693557    0.178625    0.000000
   235  O2    s     0.298997    0.639907    0.248138    0.000000
   236  O2    s     0.304554    0.642828    0.579212    0.000000
   237  O2    s     0.308663    0.652796    0.912980    0.000000
   238  O2    s     0.640261    0.311799    0.749632    0.000000
   239  O3    s     0.616232    0.303936    0.085597    0.000000
   240  O2    s     0.628438    0.295728    0.418531    0.000000
   241  O2    s     0.361172    0.329195    0.965524    0.000000
   242  O3    s     0.642065    0.003671    0.307257    0.000000
   243  O2    s     0.928700    0.595572    0.634431    0.000000
   244  O2    s     0.576377    0.626705    0.465655    0.000000
   245  O2    s     0.301258    0.932073    0.797391    0.000000
   246  O2    s     0.008400    0.369422    0.130073    0.000000
   247  O2    s     0.297987    0.338141    0.361658    0.000000
   248  O2    s     0.019602    0.652526    0.027131    0.000000
   249  O2    s     0.587808    0.935823    0.695322    0.000000
   250  O3    s     0.645873    0.591327    0.859616    0.000000
   251  O2    s     0.917846    0.307971    0.530943    0.000000
   252  O2    s     0.350471    0.024251    0.203800    0.000000
   253  O3    s     0.757825    0.285401    0.005744    0.000000
   254  O2    s     0.650734    0.429930    0.347684    0.000000
   255  O2    s     0.501886    0.194968    0.678804    0.000000
   256  O2    s     0.178311    0.657360    0.511024    0.000000
   257  O2    s     0.291141    0.511836    0.843804    0.000000
   258  O2    s     0.440031    0.771014    0.182135    0.000000
   259  O2    s     0.270584    0.741041    0.319603    0.000000
   260  O2    s     0.448564    0.678351    0.983271    0.000000
   261  O2    s     0.189233    0.506523    0.649573    0.000000
   262  O2    s     0.657111    0.187067    0.818067    0.000000
   263  O2    s     0.487729    0.281461    0.486013    0.000000
   264  O2    s     0.749620    0.454557    0.147861    0.000000
   265  O3    s     0.778287    0.545764    0.021000    0.000000
   266  O2    s     0.428138    0.222122    0.362654    0.000000
   267  O2    s     0.710863    0.182194    0.697012    0.000000
   268  O2    s     0.165130    0.435901    0.527962    0.000000
   269  O3    s     0.499004    0.729241    0.856828    0.000000
   270  O2    s     0.235624    0.780016    0.201581    0.000000
   271  O2    s     0.493365    0.763443    0.302839    0.000000
   272  O2    s     0.246646    0.456500    0.964879    0.000000
   273  O2    s     0.175579    0.715116    0.633145    0.000000
   274  O2    s     0.435131    0.178055    0.801259    0.000000
   275  O2    s     0.696423    0.500559    0.469064    0.000000
   276  O2    s     0.762395    0.246265    0.131006    0.000000
   277  O2    s     0.228796    0.320433    0.896359    0.000000
   278  O2    s     0.637599    0.891510    0.234247    0.000000
   279  O2    s     0.052429    0.729427    0.564121    0.000000
   280  O2    s     0.716458    0.632460    0.397649    0.000000
   281  O2    s     0.298830    0.065019    0.729433    0.000000
   282  O2    s     0.882223    0.229684    0.061809    0.000000
   283  O2    s     0.289895    0.206384    0.432386    0.000000
   284  O2    s     0.878729    0.651320    0.095220    0.000000
   285  O2    s     0.723158    0.056883    0.766280    0.000000
   286  O3    s     0.658366    0.755027    0.939694    0.000000
   287  O2    s     0.051602    0.303360    0.599339    0.000000
   288  O2    s     0.213927    0.889564    0.272065    0.000000
   289  O2    s     0.563004    0.548000    0.986052    0.000000
   290  O3    s     0.389107    0.981191    0.332605    0.000000
   291  O2    s     0.943095    0.390646    0.653230    0.000000
   292  O2    s     0.367983    0.407717    0.484163    0.000000
   293  O2    s     0.519925    0.943867    0.817333    0.000000
   294  O2    s     0.995406    0.571539    0.146450    0.000000
   295  O2    s     0.518345    0.544803    0.343247    0.000000
   296  O2    s     0.998984    0.431403    0.009246    0.000000
   297  O2    s     0.381337    0.948662    0.676034    0.000000
   298  O2    s     0.422927    0.398549    0.844040    0.000000
   299  O2    s     0.931069    0.526975    0.512347    0.000000
   300  O2    s     0.560264    0.014662    0.184286    0.000000
   301  O3    s     0.554395    0.152147    0.249709    0.000000
   302  O2    s     0.806073    0.392388    0.583905    0.000000
   303  O2    s     0.562555    0.410839    0.915866    0.000000
   304  O2    s     0.384103    0.815884    0.745417    0.000000
   305  O2    s     0.127122    0.565295    0.079139    0.000000
   306  O2    s     0.377080    0.541388    0.412594    0.000000
   307  F     s     0.451283    0.934263    0.264389    0.000000
   308  F     s     0.057585    0.519145    0.581268    0.000000
   309  F     s     0.480285    0.575835    0.907439    0.000000
   310  F     s     0.511207    0.066830    0.747086    0.000000
   311  F     s     0.834468    0.427060    0.067926    0.000000
   312  F     s     0.500495    0.421777    0.414449    0.000000
--------------------------------------------------------------------------------

  Final Cartesian lattice vectors (Angstroms) :

       11.976018   -0.011355   -0.009372
       -6.128846   10.362835    0.015529
       -0.114877   -0.167879   29.498906


  Final cell parameters and derivatives :

--------------------------------------------------------------------------------
       a           11.976027 Angstrom     dE/de1(xx)     0.000497 eV/strain
       b           12.039574 Angstrom     dE/de2(yy)     0.000510 eV/strain
       c           29.499608 Angstrom     dE/de3(zz)     0.001113 eV/strain
       alpha       90.093170 Degrees      dE/de4(yz)     0.000163 eV/strain
       beta        90.267650 Degrees      dE/de5(xz)     0.000152 eV/strain
       gamma      120.655512 Degrees      dE/de6(xy)     0.000211 eV/strain
--------------------------------------------------------------------------------

  Primitive cell volume =          3658.933981 Angs**3

  Density of cell =      1.748622 g/cm**3

  Non-primitive cell volume =          3658.933981 Angs**3


  Final internal derivatives :

--------------------------------------------------------------------------------
   No.  Atomic          a             b             c           Radius
        Label          (eV)          (eV)          (eV)        (eV/Angs)
--------------------------------------------------------------------------------
      1 Ge    c       0.000000      0.000000      0.000000      0.000000
      2 Si    c       0.000022      0.000015     -0.000016      0.000000
      3 Si    c      -0.000124     -0.000092      0.000420      0.000000
      4 Si    c      -0.000021     -0.000098     -0.000330      0.000000
      5 Si    c       0.000026      0.000135     -0.000511      0.000000
      6 Si    c      -0.000061      0.000127     -0.000831      0.000000
      7 Si    c       0.000022      0.000402     -0.000153      0.000000
      8 Si    c      -0.000191     -0.000004      0.000268      0.000000
      9 Si    c      -0.000128      0.000029      0.000730      0.000000
     10 Si    c      -0.000299     -0.000074     -0.000274      0.000000
     11 Si    c       0.000019     -0.000002      0.000106      0.000000
     12 Si    c      -0.000811     -0.000511      0.001425      0.000000
     13 Si    c      -0.000412      0.000200      0.000185      0.000000
     14 Ge    c      -0.000081      0.000595      0.001055      0.000000
     15 Si    c       0.000063      0.000081      0.000155      0.000000
     16 Si    c       0.000004      0.000014     -0.000015      0.000000
     17 Si    c      -0.000054     -0.000019      0.000562      0.000000
     18 Si    c       0.000518     -0.000130      0.000891      0.000000
     19 Si    c       0.000337     -0.000474      0.000587      0.000000
     20 Si    c       0.000231      0.000049     -0.000879      0.000000
     21 Si    c       0.000090      0.000014     -0.000150      0.000000
     22 Si    c      -0.000178      0.000426      0.000068      0.000000
     23 Si    c       0.000053     -0.000018     -0.000176      0.000000
     24 Si    c      -0.000016     -0.000147     -0.000142      0.000000
     25 Si    c       0.000004     -0.000020     -0.000753      0.000000
     26 Si    c      -0.000207      0.000132      0.000651      0.000000
     27 Si    c      -0.000047     -0.000002     -0.000134      0.000000
     28 Si    c      -0.000003      0.000047     -0.000064      0.000000
     29 Si    c       0.000133      0.000034      0.000017      0.000000
     30 Si    c      -0.000034     -0.000501     -0.001199      0.000000
     31 Si    c      -0.000044      0.000050      0.000039      0.000000
     32 Si    c      -0.000283      0.000101      0.000634      0.000000
     33 Si    c      -0.000248     -0.000019     -0.000317      0.000000
     34 Si    c       0.000109      0.000018      0.000802      0.000000
     35 Si    c       0.000090      0.000073      0.000319      0.000000
     36 Si    c       0.000438     -0.000156     -0.000577      0.000000
     37 Si    c      -0.000139      0.000152     -0.000081      0.000000
     38 Si    c       0.000274     -0.000360      0.000554      0.000000
     39 Si    c       0.000081     -0.000135      0.000363      0.000000
     40 Si    c       0.000068      0.000011     -0.000027      0.000000
     41 Si    c       0.000109      0.000041      0.000169      0.000000
     42 Si    c      -0.000131     -0.000118      0.000955      0.000000
     43 Si    c      -0.000048      0.000142     -0.000287      0.000000
     44 Si    c       0.000262      0.000330     -0.003179      0.000000
     45 Si    c      -0.000203      0.000121      0.000261      0.000000
     46 Ge    c       0.000174     -0.000206     -0.001001      0.000000
     47 Si    c      -0.000062      0.000082     -0.000339      0.000000
     48 Si    c       0.000071      0.000248     -0.000632      0.000000
     49 Si    c       0.000032     -0.000149      0.001507      0.000000
     50 Si    c      -0.000145      0.000199      0.000431      0.000000
     51 Si    c       0.000099     -0.000073      0.000131      0.000000
     52 Si    c      -0.000089      0.000051      0.000435      0.000000
     53 Si    c       0.000047     -0.000246      0.001013      0.000000
     54 Si    c      -0.000095      0.000280     -0.000232      0.000000
     55 Si    c      -0.000118      0.000266      0.000213      0.000000
     56 Si    c       0.000299      0.000201     -0.000940      0.000000
     57 Si    c      -0.000098      0.000065     -0.000947      0.000000
     58 Si    c       0.000431     -0.000728     -0.001150      0.000000
     59 Si    c       0.000028      0.000010     -0.000187      0.000000
     60 Si    c       0.000008     -0.000036     -0.000155      0.000000
     61 O2    c      -0.000119      0.000013     -0.000535      0.000000
     62 O2    c      -0.000109      0.000010     -0.000154      0.000000
     63 O2    c       0.000028     -0.000034      0.000091      0.000000
     64 O2    c       0.000014     -0.000175     -0.000277      0.000000
     65 O2    c       0.000034      0.000018     -0.000119      0.000000
     66 O2    c       0.000105     -0.000105      0.000332      0.000000
     67 O2    c      -0.000271     -0.000023     -0.000569      0.000000
     68 O2    c       0.000125      0.000070      0.000341      0.000000
     69 O2    c       0.000061     -0.000150      0.000013      0.000000
     70 O2    c       0.000210     -0.000312      0.000223      0.000000
     71 O2    c       0.000056      0.000483     -0.001165      0.000000
     72 O2    c      -0.000130      0.000049     -0.000098      0.000000
     73 O3    c       0.000060      0.000115     -0.000121      0.000000
     74 O2    c       0.000104      0.000115     -0.000445      0.000000
     75 O3    c       0.000087     -0.000106     -0.000317      0.000000
     76 O2    c      -0.000046      0.000033      0.000107      0.000000
     77 O2    c       0.000062      0.000117      0.000328      0.000000
     78 O2    c       0.000103     -0.000035     -0.000039      0.000000
     79 O2    c      -0.000099     -0.000207      0.000258      0.000000
     80 O2    c      -0.000316      0.000032     -0.000561      0.000000
     81 O2    c      -0.000056      0.000170      0.000021      0.000000
     82 O2    c      -0.000048      0.000024     -0.000162      0.000000
     83 O2    c      -0.000146      0.000142     -0.000141      0.000000
     84 O2    c       0.000036     -0.000225      0.000138      0.000000
     85 O2    c      -0.000030     -0.000126     -0.000165      0.000000
     86 O2    c      -0.000395      0.000433     -0.000022      0.000000
     87 O2    c       0.000127     -0.000068     -0.000129      0.000000
     88 O3    c       0.000367      0.000974     -0.000503      0.000000
     89 O2    c       0.000022     -0.000069     -0.000013      0.000000
     90 O2    c      -0.000134      0.000086     -0.000052      0.000000
     91 O2    c       0.000256      0.000364     -0.001064      0.000000
     92 O2    c       0.000025      0.000032      0.000001      0.000000
     93 O2    c       0.000117      0.000113      0.001083      0.000000
     94 O2    c       0.000182      0.000058      0.000594      0.000000
     95 O2    c      -0.000083      0.000014     -0.000120      0.000000
     96 O2    c       0.000262     -0.000059     -0.000282      0.000000
     97 O2    c       0.000150     -0.000284      0.000340      0.000000
     98 O2    c      -0.000157     -0.000367      0.000047      0.000000
     99 O2    c      -0.000022      0.000019     -0.000075      0.000000
    100 O2    c      -0.000040      0.000040      0.000065      0.000000
    101 O2    c       0.000068      0.000169      0.000006      0.000000
    102 O2    c       0.000287     -0.000081     -0.000527      0.000000
    103 O2    c      -0.000051     -0.000100      0.000341      0.000000
    104 O2    c       0.000168     -0.000033      0.000388      0.000000
    105 O2    c       0.000002     -0.000011     -0.000134      0.000000
    106 O2    c      -0.000416      0.000258     -0.000050      0.000000
    107 O2    c      -0.000038     -0.000020      0.000227      0.000000
    108 O2    c      -0.000108      0.000142      0.000258      0.000000
    109 O2    c       0.000195     -0.000187      0.000939      0.000000
    110 O2    c       0.000183     -0.000034     -0.000495      0.000000
    111 O2    c      -0.000041      0.000017      0.000215      0.000000
    112 O2    c       0.000037      0.000016     -0.000356      0.000000
    113 O3    c      -0.000615      0.000483     -0.005737      0.000000
    114 O2    c       0.000002      0.000003     -0.000080      0.000000
    115 O2    c       0.000479     -0.000291      0.000480      0.000000
    116 O3    c       0.000064      0.000081     -0.000162      0.000000
    117 O2    c       0.000031     -0.000002     -0.000059      0.000000
    118 O2    c      -0.000047      0.000049      0.000015      0.000000
    119 O2    c       0.000068     -0.000045      0.000072      0.000000
    120 O2    c       0.000095     -0.000134      0.000123      0.000000
    121 O2    c       0.000034     -0.000005     -0.000099      0.000000
    122 O2    c       0.000013      0.000168     -0.000069      0.000000
    123 O2    c      -0.000057     -0.000006     -0.000085      0.000000
    124 O3    c      -0.000109      0.000129     -0.000197      0.000000
    125 O2    c      -0.000024      0.000048      0.000101      0.000000
    126 O2    c       0.000017      0.000030      0.000087      0.000000
    127 O3    c      -0.001323      0.000902      0.001127      0.000000
    128 O2    c       0.000059     -0.000095     -0.000017      0.000000
    129 O2    c       0.000007     -0.000019      0.000030      0.000000
    130 O2    c      -0.000028      0.000015      0.000058      0.000000
    131 O2    c      -0.000010     -0.000004     -0.000027      0.000000
    132 O2    c       0.000160      0.000146      0.000087      0.000000
    133 O2    c      -0.000153      0.000531      0.000276      0.000000
    134 O2    c      -0.000027      0.000055      0.000124      0.000000
    135 O2    c      -0.000025      0.000021     -0.000076      0.000000
    136 O2    c       0.000118     -0.000088      0.000135      0.000000
    137 O2    c       0.000107     -0.000026      0.000038      0.000000
    138 O2    c      -0.000182     -0.000137      0.000246      0.000000
    139 O3    c      -0.000069     -0.001023     -0.000340      0.000000
    140 O2    c      -0.000071      0.000063     -0.000234      0.000000
    141 O2    c       0.000028     -0.000042      0.000062      0.000000
    142 O2    c      -0.000007     -0.000009      0.000035      0.000000
    143 O3    c      -0.000193      0.000078     -0.000262      0.000000
    144 O2    c       0.000290     -0.000313     -0.000294      0.000000
    145 O2    c      -0.000132     -0.000032     -0.000208      0.000000
    146 O2    c      -0.000078      0.000176      0.000102      0.000000
    147 O2    c       0.000073     -0.000044     -0.000074      0.000000
    148 O2    c      -0.000184      0.000134      0.000196      0.000000
    149 O2    c       0.000015     -0.000046      0.000101      0.000000
    150 O2    c       0.000054     -0.000157      0.000383      0.000000
    151 O2    c      -0.000071     -0.000078      0.000171      0.000000
    152 O2    c      -0.000109      0.000247     -0.002034      0.000000
    153 O2    c      -0.000021      0.000080     -0.000221      0.000000
    154 O2    c       0.000023      0.000039      0.000032      0.000000
    155 O2    c      -0.000028      0.000027      0.000174      0.000000
    156 O2    c      -0.000004     -0.000277      0.000277      0.000000
    157 O2    c       0.000018      0.000007      0.000133      0.000000
    158 O2    c      -0.000226      0.000146      0.005726      0.000000
    159 O2    c       0.000058     -0.000002     -0.000144      0.000000
    160 O3    c       0.000146      0.000276      0.000379      0.000000
    161 O2    c       0.000039     -0.000093      0.000153      0.000000
    162 O2    c       0.000213     -0.000225      0.002403      0.000000
    163 O2    c       0.000063     -0.000278     -0.000120      0.000000
    164 O3    c      -0.000239     -0.000173     -0.001512      0.000000
    165 O2    c       0.000013      0.000005      0.000029      0.000000
    166 O2    c       0.000034     -0.000085      0.000159      0.000000
    167 O2    c      -0.000053      0.000091     -0.000248      0.000000
    168 O2    c       0.000065     -0.000029      0.000325      0.000000
    169 O2    c      -0.000119      0.000082     -0.000112      0.000000
    170 O2    c       0.000241      0.000105      0.000071      0.000000
    171 O2    c      -0.000010      0.000033      0.000015      0.000000
    172 O2    c       0.000066     -0.000071     -0.000033      0.000000
    173 O2    c      -0.000004     -0.000024      0.000059      0.000000
    174 O2    c      -0.000026     -0.000080      0.000063      0.000000
    175 O3    c      -0.000051     -0.000212      0.001020      0.000000
    176 O2    c      -0.000048     -0.000020     -0.000020      0.000000
    177 O2    c      -0.000005     -0.000129      0.000368      0.000000
    178 O2    c       0.000029     -0.000048     -0.000009      0.000000
    179 O2    c       0.000150      0.000053     -0.000048      0.000000
    180 O2    c       0.000020      0.000018      0.000033      0.000000
    181 F     c      -0.000109      0.000013     -0.000926      0.000000
    182 F     c       0.000003      0.000013      0.000094      0.000000
    183 F     c      -0.000179     -0.000037      0.000093      0.000000
    184 F     c       0.000010      0.000142      0.000221      0.000000
    185 F     c       0.000671     -0.000054      0.001024      0.000000
    186 F     c       0.000029      0.000060     -0.000094      0.000000
    187 O2    s      -0.000069     -0.000209     -0.000167      0.000000
    188 O2    s       0.000209      0.000037      0.000761      0.000000
    189 O2    s      -0.000034     -0.000024     -0.000038      0.000000
    190 O2    s      -0.000081      0.000067      0.000042      0.000000
    191 O2    s      -0.000114      0.000202      0.000103      0.000000
    192 O2    s      -0.000022     -0.000141     -0.000210      0.000000
    193 O2    s       0.000219      0.000032      0.000163      0.000000
    194 O2    s       0.000023      0.000004     -0.000032      0.000000
    195 O2    s      -0.000073      0.000082      0.000128      0.000000
    196 O2    s      -0.000189      0.000189     -0.000359      0.000000
    197 O2    s      -0.000102     -0.000357      0.000882      0.000000
    198 O2    s       0.000080     -0.000053     -0.000067      0.000000
    199 O3    s      -0.000191     -0.000207     -0.000385      0.000000
    200 O2    s      -0.000020     -0.000052      0.000119      0.000000
    201 O3    s      -0.000016      0.000043      0.000381      0.000000
    202 O2    s       0.000016     -0.000009     -0.000036      0.000000
    203 O2    s      -0.000135     -0.000032     -0.000016      0.000000
    204 O2    s      -0.000147      0.000085     -0.000266      0.000000
    205 O2    s      -0.000138     -0.000012     -0.000239      0.000000
    206 O2    s       0.000005      0.000103      0.000583      0.000000
    207 O2    s      -0.000005     -0.000042      0.000210      0.000000
    208 O2    s       0.000063      0.000067     -0.000088      0.000000
    209 O2    s       0.000008     -0.000047      0.000152      0.000000
    210 O2    s       0.000067     -0.000031     -0.000172      0.000000
    211 O2    s       0.000012     -0.000009      0.000460      0.000000
    212 O2    s      -0.000359      0.000403      0.000099      0.000000
    213 O2    s      -0.000058     -0.000059     -0.000082      0.000000
    214 O3    s      -0.000406     -0.000313      0.000939      0.000000
    215 O2    s      -0.000053      0.000023     -0.000167      0.000000
    216 O2    s      -0.000001     -0.000151     -0.000268      0.000000
    217 O2    s       0.000112     -0.000170      0.000244      0.000000
    218 O2    s       0.000002     -0.000024     -0.000077      0.000000
    219 O2    s      -0.000144      0.000149     -0.000017      0.000000
    220 O2    s      -0.000141      0.000068     -0.000004      0.000000
    221 O2    s       0.000066     -0.000220     -0.000311      0.000000
    222 O2    s      -0.000080     -0.000012     -0.000024      0.000000
    223 O2    s       0.000258     -0.000298     -0.000129      0.000000
    224 O2    s       0.000074      0.000083     -0.000349      0.000000
    225 O2    s       0.000035     -0.000006     -0.000031      0.000000
    226 O2    s      -0.000016     -0.000007     -0.000137      0.000000
    227 O2    s      -0.000120     -0.000135      0.000104      0.000000
    228 O2    s      -0.000130     -0.000034      0.000034      0.000000
    229 O2    s       0.000167      0.000045     -0.000483      0.000000
    230 O2    s       0.000332      0.000113     -0.000098      0.000000
    231 O2    s      -0.000031      0.000065      0.000028      0.000000
    232 O2    s       0.000364     -0.000313      0.000141      0.000000
    233 O2    s       0.000005     -0.000019     -0.000177      0.000000
    234 O2    s       0.000094     -0.000033      0.000171      0.000000
    235 O2    s      -0.000151      0.000205     -0.000607      0.000000
    236 O2    s      -0.000112     -0.000015      0.000023      0.000000
    237 O2    s      -0.000062      0.000013      0.000251      0.000000
    238 O2    s       0.000007     -0.000006      0.000221      0.000000
    239 O3    s       0.000337     -0.000009      0.001108      0.000000
    240 O2    s       0.000006      0.000002      0.000089      0.000000
    241 O2    s      -0.000141      0.000072      0.000524      0.000000
    242 O3    s      -0.000040     -0.000073      0.000740      0.000000
    243 O2    s      -0.000086      0.000020      0.000134      0.000000
    244 O2    s       0.000043     -0.000006      0.000119      0.000000
    245 O2    s      -0.000045     -0.000041     -0.000099      0.000000
    246 O2    s      -0.000079      0.000244     -0.000508      0.000000
    247 O2    s      -0.000116      0.000042      0.000118      0.000000
    248 O2    s       0.000344     -0.000441     -0.000474      0.000000
    249 O2    s      -0.000009     -0.000031     -0.000044      0.000000
    250 O3    s       0.000225     -0.000125      0.000119      0.000000
    251 O2    s       0.000026     -0.000040     -0.000194      0.000000
    252 O2    s      -0.000195      0.000021     -0.000058      0.000000
    253 O3    s       0.000816     -0.000568     -0.001053      0.000000
    254 O2    s      -0.000017      0.000109      0.000100      0.000000
    255 O2    s      -0.000005     -0.000004     -0.000152      0.000000
    256 O2    s       0.000032     -0.000023     -0.000010      0.000000
    257 O2    s      -0.000013      0.000001     -0.000083      0.000000
    258 O2    s      -0.000040     -0.000005      0.000408      0.000000
    259 O2    s      -0.000029      0.000138     -0.000470      0.000000
    260 O2    s      -0.000015      0.000001     -0.000126      0.000000
    261 O2    s      -0.000001     -0.000005     -0.000122      0.000000
    262 O2    s      -0.000109      0.000025     -0.000255      0.000000
    263 O2    s      -0.000009     -0.000023     -0.000100      0.000000
    264 O2    s       0.000302      0.000339     -0.000378      0.000000
    265 O3    s      -0.000617      0.000588      0.000514      0.000000
    266 O2    s       0.000097     -0.000160      0.000290      0.000000
    267 O2    s       0.000047     -0.000022     -0.000238      0.000000
    268 O2    s       0.000063      0.000041     -0.000134      0.000000
    269 O3    s       0.000106      0.000191     -0.000574      0.000000
    270 O2    s      -0.000042     -0.000059      0.000013      0.000000
    271 O2    s      -0.000098      0.000079      0.000027      0.000000
    272 O2    s      -0.000055      0.000046      0.000091      0.000000
    273 O2    s      -0.000006      0.000003      0.000055      0.000000
    274 O2    s       0.000361     -0.000283     -0.000324      0.000000
    275 O2    s       0.000034      0.000031     -0.000117      0.000000
    276 O2    s       0.000224     -0.000064      0.000223      0.000000
    277 O2    s       0.000019     -0.000037     -0.000135      0.000000
    278 O2    s      -0.000152      0.000031      0.000473      0.000000
    279 O2    s      -0.000001     -0.000063     -0.000234      0.000000
    280 O2    s      -0.000020     -0.000096     -0.000022      0.000000
    281 O2    s      -0.000047     -0.000011     -0.000147      0.000000
    282 O2    s       0.000191      0.000307     -0.000601      0.000000
    283 O2    s       0.000008      0.000036     -0.000115      0.000000
    284 O2    s       0.000388      0.000149     -0.001943      0.000000
    285 O2    s      -0.000015     -0.000025      0.000159      0.000000
    286 O3    s       0.000025     -0.000042     -0.000819      0.000000
    287 O2    s      -0.000033      0.000081      0.000158      0.000000
    288 O2    s       0.000315     -0.000178     -0.000051      0.000000
    289 O2    s      -0.000072     -0.000007     -0.000075      0.000000
    290 O3    s      -0.000173     -0.000255      0.000331      0.000000
    291 O2    s      -0.000071     -0.000003      0.000056      0.000000
    292 O2    s      -0.000015      0.000047     -0.000250      0.000000
    293 O2    s       0.000160     -0.000152      0.000382      0.000000
    294 O2    s      -0.000055     -0.000069     -0.000908      0.000000
    295 O2    s       0.000046      0.000052      0.000127      0.000000
    296 O2    s      -0.000170      0.000071      0.000139      0.000000
    297 O2    s       0.000072     -0.000146      0.000072      0.000000
    298 O2    s       0.000065      0.000021      0.000007      0.000000
    299 O2    s       0.000027      0.000075     -0.000122      0.000000
    300 O2    s       0.000190     -0.000272      0.000120      0.000000
    301 O3    s       0.000161      0.000362     -0.000295      0.000000
    302 O2    s      -0.000007      0.000026      0.000274      0.000000
    303 O2    s       0.000012      0.000245     -0.000115      0.000000
    304 O2    s      -0.000012      0.000113     -0.000029      0.000000
    305 O2    s      -0.000301     -0.000095      0.000123      0.000000
    306 O2    s      -0.000004      0.000010      0.000013      0.000000
    307 F     s      -0.000056     -0.000479      0.000081      0.000000
    308 F     s      -0.000005     -0.000011     -0.000164      0.000000
    309 F     s       0.000106     -0.000323      0.000579      0.000000
    310 F     s      -0.000023     -0.000256     -0.000320      0.000000
    311 F     s      -0.000414     -0.000110      0.001080      0.000000
    312 F     s      -0.000037     -0.000074      0.000220      0.000000
--------------------------------------------------------------------------------
  Maximum abs         0.001323      0.001023      0.005737      0.000000
--------------------------------------------------------------------------------


  Time to end of optimisation =      10.5370 seconds


  Peak dynamic memory used =      19.13 MB 


  Timing analysis for GULP :

--------------------------------------------------------------------------------
  Task / Subroutine                                          Time (Seconds)
--------------------------------------------------------------------------------
  Calculation of reciprocal space energy and derivatives          0.3552
  Calculation of real space energy and derivatives                8.9391
  Calculation of three-body energy and derivatives                1.0094
  Calculation of matrix inversion                                 0.1919
--------------------------------------------------------------------------------
  Total CPU time                                                 10.5370
--------------------------------------------------------------------------------


  Dump file written as out.res                                                 
  CIF file written as out.cif                                                 


  Job Finished at 06:50.23  3rd December   2016                               

