********************************************************************************
*                       GENERAL UTILITY LATTICE PROGRAM                        *
*                                 Julian Gale                                  *
*                      Nanochemistry Research Institute                        *
*                           Department of Chemistry                            *
*                    Curtin University, Western Australia                      *
********************************************************************************
* Version = 4.2.0 * Last modified =  20th January 2014                         *
********************************************************************************
*  optimise     - perform optimisation run                                     *
*  conp         - constant pressure calculation                                *
*  qok          - running with non charge neutral cell is OK                   *
********************************************************************************

  Job Started  at 06:46.47  3rd December   2016                               

  Number of CPUs =     1


  Total number of configurations input =   1

********************************************************************************
*  Input for Configuration =   1                                               *
********************************************************************************

  Formula = Ge3Si57O120F6                                               

  Number of irreducible atoms/shells =     312


  Total number atoms/shells =     312

  Dimensionality = 3               :  Bulk   


  Charge on solid   =  -6.000000 =>neutralising background added


  Cartesian lattice vectors (Angstroms) :

       11.916649    0.000000    0.000000
       -5.997146   10.381720    0.000000
       -0.287673   -0.153112   29.520396

  Cell parameters (Angstroms/Degrees):

  a =      11.9166    alpha =  89.9780
  b =      11.9894    beta  =  90.5583
  c =      29.5222    gamma = 120.0135

  Initial cell volume =        3652.125246 Angs**3

  Temperature of configuration =  0.000     K 

  Pressure of configuration =         0.000 GPa 

  Fractional coordinates of asymmetric unit :

--------------------------------------------------------------------------------
   No.  Atomic       x           y          z         Charge      Occupancy
        Label      (Frac)      (Frac)     (Frac)        (e)         (Frac)  
--------------------------------------------------------------------------------
      1 Ge    c    0.699600    0.375700    0.033890     4.00000    1.000000    
      2 Si    c    0.626061 *  0.325889 *  0.369374 *   4.00000    1.000000    
      3 Si    c    0.677625 *  0.299393 *  0.699936 *   4.00000    1.000000    
      4 Si    c    0.293417 *  0.621144 *  0.531412 *   4.00000    1.000000    
      5 Si    c    0.377863 *  0.674983 *  0.862790 *   4.00000    1.000000    
      6 Si    c    0.316413 *  0.696565 *  0.195739 *   4.00000    1.000000    
      7 Si    c    0.369874 *  0.692772 *  0.298255 *   4.00000    1.000000    
      8 Si    c    0.320592 *  0.621420 *  0.962461 *   4.00000    1.000000    
      9 Si    c    0.298849 *  0.677295 *  0.631923 *   4.00000    1.000000    
     10 Si    c    0.622687 *  0.297091 *  0.800260 *   4.00000    1.000000    
     11 Si    c    0.674307 *  0.382741 *  0.469851 *   4.00000    1.000000    
     12 Si    c    0.693092 *  0.322539 *  0.132259 *   4.00000    1.000000    
     13 Si    c    0.528586 *  0.417384 *  0.966381 *   4.00000    1.000000    
     14 Ge    c    0.575488 *  0.108218 *  0.304877 *   4.00000    1.000000    
     15 Si    c    0.887947 *  0.472614 *  0.635783 *   4.00000    1.000000    
     16 Si    c    0.462136 *  0.581895 *  0.465084 *   4.00000    1.000000    
     17 Si    c    0.417388 *  0.885624 *  0.798361 *   4.00000    1.000000    
     18 Si    c    0.111608 *  0.528398 *  0.127975 *   4.00000    1.000000    
     19 Si    c    0.416330 *  0.524369 *  0.363430 *   4.00000    1.000000    
     20 Si    c    0.104743 *  0.579598 *  0.025243 *   4.00000    1.000000    
     21 Si    c    0.470395 *  0.888326 *  0.697023 *   4.00000    1.000000    
     22 Si    c    0.582849 *  0.468781 *  0.864708 *   4.00000    1.000000    
     23 Si    c    0.885560 *  0.420113 *  0.534497 *   4.00000    1.000000    
     24 Si    c    0.528602 *  0.121989 *  0.200744 *   4.00000    1.000000    
     25 Si    c    0.300891 *  0.397965 *  0.848886 *   4.00000    1.000000    
     26 Si    c    0.599560 *  0.908253 *  0.183364 *   4.00000    1.000000    
     27 Si    c    0.091456 *  0.699453 *  0.517938 *   4.00000    1.000000    
     28 Si    c    0.699888 *  0.600876 *  0.351933 *   4.00000    1.000000    
     29 Si    c    0.399290 *  0.097697 *  0.684051 *   4.00000    1.000000    
     30 Si    c    0.889311 *  0.292918 *  0.010899 *   4.00000    1.000000    
     31 Si    c    0.393173 *  0.302176 *  0.480761 *   4.00000    1.000000    
     32 Si    c    0.901386 *  0.606004 *  0.142935 *   4.00000    1.000000    
     33 Si    c    0.699641 *  0.095219 *  0.813866 *   4.00000    1.000000    
     34 Si    c    0.599585 *  0.699118 *  0.979002 *   4.00000    1.000000    
     35 Si    c    0.098508 *  0.400043 *  0.648443 *   4.00000    1.000000    
     36 Si    c    0.287621 *  0.891038 *  0.319368 *   4.00000    1.000000    
     37 Si    c    0.248660 *  0.341114 *  0.948871 *   4.00000    1.000000    
     38 Si    c    0.659518 *  0.908283 *  0.285315 *   4.00000    1.000000    
     39 Si    c    0.088638 *  0.750508 *  0.618681 *   4.00000    1.000000    
     40 Si    c    0.743741 *  0.661508 *  0.452602 *   4.00000    1.000000    
     41 Si    c    0.340537 *  0.087711 *  0.784173 *   4.00000    1.000000    
     42 Si    c    0.904056 *  0.247578 *  0.113342 *   4.00000    1.000000    
     43 Si    c    0.341009 *  0.246451 *  0.379741 *   4.00000    1.000000    
     44 Si    c    0.900939 *  0.660054 *  0.040552 *   4.00000    1.000000    
     45 Si    c    0.749647 *  0.090459 *  0.713386 *   4.00000    1.000000    
     46 Si    c    0.659480 *  0.747279 *  0.878609 *   4.00000    1.000000    
     47 Si    c    0.086259 *  0.341286 *  0.547870 *   4.00000    1.000000    
     48 Ge    c    0.261658 *  0.910815 *  0.219160 *   4.00000    1.000000    
     49 Si    c    0.971634 *  0.120107 *  0.964282 *   4.00000    1.000000    
     50 Si    c    0.878277 *  0.842431 *  0.298999 *   4.00000    1.000000    
     51 Si    c    0.150485 *  0.030275 *  0.633071 *   4.00000    1.000000    
     52 Si    c    0.022640 *  0.880050 *  0.467567 *   4.00000    1.000000    
     53 Si    c    0.121785 *  0.148522 *  0.798802 *   4.00000    1.000000    
     54 Si    c    0.847183 *  0.971257 *  0.132463 *   4.00000    1.000000    
     55 Si    c    0.116243 *  0.965998 *  0.367203 *   4.00000    1.000000    
     56 Si    c    0.848075 *  0.881996 *  0.030791 *   4.00000    1.000000    
     57 Si    c    0.029457 *  0.151362 *  0.697967 *   4.00000    1.000000    
     58 Si    c    0.879536 *  0.024602 *  0.863892 *   4.00000    1.000000    
     59 Si    c    0.146911 *  0.123285 *  0.532505 *   4.00000    1.000000    
     60 Si    c    0.976327 *  0.853439 *  0.197774 *   4.00000    1.000000    
     61 O2    c    0.928956 *  0.007304 *  0.000560 *   0.87073    1.000000    
     62 O2    c    0.999043 *  0.928114 *  0.332017 *   0.87073    1.000000    
     63 O2    c    0.069175 *  0.071547 *  0.664764 *   0.87073    1.000000    
     64 O2    c    0.065480 *  0.001455 *  0.500106 *   0.87073    1.000000    
     65 O2    c    0.000530 *  0.067991 *  0.831123 *   0.87073    1.000000    
     66 O2    c    0.925526 *  0.931894 *  0.166916 *   0.87073    1.000000    
     67 O2    c    0.338618 *  0.569780 *  0.329276 *   0.87073    1.000000    
     68 O2    c    0.423720 *  0.763890 *  0.664140 *   0.87073    1.000000    
     69 O2    c    0.231601 *  0.657139 *  0.994125 *   0.87073    1.000000    
     70 O2    c    0.660467 *  0.419152 *  0.833227 *   0.87073    1.000000    
     71 O2    c    0.587520 *  0.251068 *  0.171094 *   0.87073    1.000000    
     72 O2    c    0.756439 *  0.342986 *  0.503233 *   0.87073    1.000000    
     73 O3    c    0.566260 *  0.336281 *  0.998735 *   1.33043    1.000000    
     74 O2    c    0.763429 *  0.424120 *  0.668275 *   0.87073    1.000000    
     75 O3    c    0.665823 *  0.239559 *  0.340035 *   1.33043    1.000000    
     76 O2    c    0.412698 *  0.658381 *  0.496953 *   0.87073    1.000000    
     77 O2    c    0.237661 *  0.575342 *  0.160782 *   0.87073    1.000000    
     78 O2    c    0.339656 *  0.759560 *  0.829776 *   0.87073    1.000000    
     79 O2    c    0.125709 *  0.213707 *  0.969598 *   0.87073    1.000000    
     80 O2    c    0.781160 *  0.898924 *  0.304494 *   0.87073    1.000000    
     81 O2    c    0.088463 *  0.876490 *  0.638536 *   0.87073    1.000000    
     82 O2    c    0.868061 *  0.789225 *  0.473315 *   0.87073    1.000000    
     83 O2    c    0.213862 *  0.086286 *  0.804405 *   0.87073    1.000000    
     84 O2    c    0.909113 *  0.125956 *  0.135016 *   0.87073    1.000000    
     85 O2    c    0.215055 *  0.118543 *  0.359834 *   0.87073    1.000000    
     86 O2    c    0.916931 *  0.797156 *  0.024259 *   0.87073    1.000000    
     87 O2    c    0.874955 *  0.090344 *  0.692466 *   0.87073    1.000000    
     88 O2    c    0.786756 *  0.871038 *  0.857991 *   0.87073    1.000000    
     89 O2    c    0.083266 *  0.213976 *  0.527637 *   0.87073    1.000000    
     90 O3    c    0.126370 *  0.918577 *  0.195444 *   1.33043    1.000000    
     91 O2    c    0.924266 *  0.851752 *  0.248214 *   0.87073    1.000000    
     92 O2    c    0.137514 *  0.070034 *  0.582522 *   0.87073    1.000000    
     93 O2    c    0.933518 *  0.058492 *  0.914679 *   0.87073    1.000000    
     94 O2    c    0.068223 *  0.134108 *  0.748145 *   0.87073    1.000000    
     95 O2    c    0.855747 *  0.926066 *  0.082536 *   0.87073    1.000000    
     96 O2    c    0.058800 *  0.935020 *  0.417235 *   0.87073    1.000000    
     97 O2    c    0.900608 *  0.201759 *  0.972953 *   0.87073    1.000000    
     98 O2    c    0.799664 *  0.692806 *  0.313463 *   0.87073    1.000000    
     99 O2    c    0.302696 *  0.100803 *  0.645417 *   0.87073    1.000000    
    100 O2    c    0.091987 *  0.797182 *  0.479511 *   0.87073    1.000000    
    101 O2    c    0.203236 *  0.300270 *  0.810201 *   0.87073    1.000000    
    102 O2    c    0.695206 *  0.907194 *  0.145207 *   0.87073    1.000000    
    103 O2    c    0.191778 *  0.886942 *  0.359617 *   0.87073    1.000000    
    104 O2    c    0.696079 *  0.799096 *  0.017521 *   0.87073    1.000000    
    105 O2    c    0.101131 *  0.303443 *  0.686500 *   0.87073    1.000000    
    106 O2    c    0.797875 *  0.095623 *  0.852497 *   0.87073    1.000000    
    107 O2    c    0.297677 *  0.205793 *  0.519149 *   0.87073    1.000000    
    108 O2    c    0.907972 *  0.703215 *  0.181926 *   0.87073    1.000000    
    109 O2    c    0.319420 *  0.643330 *  0.246650 *   0.87073    1.000000    
    110 O2    c    0.354631 *  0.678211 *  0.581435 *   0.87073    1.000000    
    111 O2    c    0.318630 *  0.677269 *  0.912245 *   0.87073    1.000000    
    112 O2    c    0.678748 *  0.355521 *  0.750285 *   0.87073    1.000000    
    113 O3    c    0.617056 *  0.306334 *  0.085691 *   1.33043    1.000000    
    114 O2    c    0.679600 *  0.327049 *  0.420279 *   0.87073    1.000000    
    115 O2    c    0.371127 *  0.331729 *  0.966725 *   0.87073    1.000000    
    116 O3    c    0.672262 *  0.037339 *  0.304697 *   1.33043    1.000000    
    117 O2    c    0.957375 *  0.628819 *  0.637843 *   0.87073    1.000000    
    118 O2    c    0.618845 *  0.670507 *  0.468469 *   0.87073    1.000000    
    119 O2    c    0.330096 *  0.954724 *  0.801490 *   0.87073    1.000000    
    120 O2    c    0.038116 *  0.372948 *  0.129532 *   0.87073    1.000000    
    121 O2    c    0.331172 *  0.368117 *  0.359963 *   0.87073    1.000000    
    122 O2    c    0.033148 *  0.663796 *  0.023807 *   0.87073    1.000000    
    123 O2    c    0.627278 *  0.958298 *  0.694413 *   0.87073    1.000000    
    124 O2    c    0.668993 *  0.624607 *  0.860735 *   0.87073    1.000000    
    125 O2    c    0.952549 *  0.331324 *  0.530010 *   0.87073    1.000000    
    126 O3    c    0.375309 *  0.058234 *  0.194980 *   1.33043    1.000000    
    127 O3    c    0.754541 *  0.284264 *  0.002109 *   1.33043    1.000000    
    128 O2    c    0.699679 *  0.466844 *  0.345598 *   0.87073    1.000000    
    129 O2    c    0.533883 *  0.231647 *  0.676846 *   0.87073    1.000000    
    130 O2    c    0.224409 *  0.696852 *  0.509780 *   0.87073    1.000000    
    131 O2    c    0.302821 *  0.532239 *  0.839735 *   0.87073    1.000000    
    132 O2    c    0.463019 *  0.775922 *  0.176365 *   0.87073    1.000000    
    133 O2    c    0.290195 *  0.756012 *  0.320307 *   0.87073    1.000000    
    134 O2    c    0.464348 *  0.699404 *  0.985465 *   0.87073    1.000000    
    135 O2    c    0.233265 *  0.534911 *  0.654570 *   0.87073    1.000000    
    136 O2    c    0.698742 *  0.228417 *  0.821918 *   0.87073    1.000000    
    137 O2    c    0.529153 *  0.306946 *  0.490324 *   0.87073    1.000000    
    138 O2    c    0.768942 *  0.471411 *  0.150429 *   0.87073    1.000000    
    139 O3    c    0.772365 *  0.546696 *  0.020075 *   1.33043    1.000000    
    140 O2    c    0.468096 *  0.245609 *  0.361206 *   0.87073    1.000000    
    141 O2    c    0.752161 *  0.217994 *  0.694491 *   0.87073    1.000000    
    142 O2    c    0.212199 *  0.465060 *  0.527396 *   0.87073    1.000000    
    143 O2    c    0.534820 *  0.750514 *  0.858442 *   0.87073    1.000000    
    144 O3    c    0.235723 *  0.769123 *  0.192005 *   1.33043    1.000000    
    145 O2    c    0.524227 *  0.788180 *  0.301808 *   0.87073    1.000000    
    146 O2    c    0.245755 *  0.465870 *  0.968169 *   0.87073    1.000000    
    147 O2    c    0.216451 *  0.750974 *  0.637195 *   0.87073    1.000000    
    148 O2    c    0.466177 *  0.213562 *  0.804394 *   0.87073    1.000000    
    149 O2    c    0.744816 *  0.538443 *  0.474018 *   0.87073    1.000000    
    150 O2    c    0.782255 *  0.253659 *  0.133419 *   0.87073    1.000000    
    151 O2    c    0.226772 *  0.324226 *  0.894568 *   0.87073    1.000000    
    152 O2    c    0.667754 *  0.909991 *  0.230894 *   0.87073    1.000000    
    153 O2    c    0.088331 *  0.769073 *  0.564426 *   0.87073    1.000000    
    154 O2    c    0.767607 *  0.676983 *  0.398560 *   0.87073    1.000000    
    155 O2    c    0.323120 *  0.091779 *  0.729906 *   0.87073    1.000000    
    156 O2    c    0.897521 *  0.229816 *  0.059219 *   0.87073    1.000000    
    157 O2    c    0.322446 *  0.229907 *  0.433951 *   0.87073    1.000000    
    158 O2    c    0.901871 *  0.672490 *  0.095682 *   0.87073    1.000000    
    159 O2    c    0.770138 *  0.091814 *  0.767615 *   0.87073    1.000000    
    160 O2    c    0.676182 *  0.767501 *  0.932926 *   0.87073    1.000000    
    161 O2    c    0.091041 *  0.324608 *  0.601998 *   0.87073    1.000000    
    162 O3    c    0.213057 *  0.903146 *  0.275813 *   1.33043    1.000000    
    163 O2    c    0.581677 *  0.559451 *  0.988757 *   0.87073    1.000000    
    164 O3    c    0.428510 *  0.010800 *  0.330551 *   1.33043    1.000000    
    165 O2    c    0.974580 *  0.416519 *  0.658007 *   0.87073    1.000000    
    166 O2    c    0.405096 *  0.441012 *  0.487714 *   0.87073    1.000000    
    167 O2    c    0.559567 *  0.969912 *  0.821678 *   0.87073    1.000000    
    168 O2    c    0.022413 *  0.581713 *  0.148157 *   0.87073    1.000000    
    169 O2    c    0.559903 *  0.587611 *  0.341558 *   0.87073    1.000000    
    170 O2    c    0.013466 *  0.437005 *  0.004784 *   0.87073    1.000000    
    171 O2    c    0.411830 *  0.971968 *  0.674210 *   0.87073    1.000000    
    172 O2    c    0.440309 *  0.409657 *  0.841407 *   0.87073    1.000000    
    173 O2    c    0.965301 *  0.559549 *  0.509961 *   0.87073    1.000000    
    174 O2    c    0.582536 *  0.032334 *  0.178522 *   0.87073    1.000000    
    175 O3    c    0.577399 *  0.170061 *  0.251991 *   1.33043    1.000000    
    176 O2    c    0.833111 *  0.419219 *  0.585097 *   0.87073    1.000000    
    177 O2    c    0.584325 *  0.420624 *  0.915771 *   0.87073    1.000000    
    178 O2    c    0.417132 *  0.833952 *  0.747358 *   0.87073    1.000000    
    179 O2    c    0.154704 *  0.576771 *  0.076656 *   0.87073    1.000000    
    180 O2    c    0.410916 *  0.578840 *  0.413434 *   0.87073    1.000000    
    181 F     c    0.417440 *  0.913095 *  0.247482 *   0.56000    1.000000    
    182 F     c    0.094248 *  0.547929 *  0.582343 *   0.56000    1.000000    
    183 F     c    0.447294 *  0.550809 *  0.912980 *   0.56000    1.000000    
    184 F     c    0.548595 *  0.096222 *  0.748002 *   0.56000    1.000000    
    185 F     c    0.854782 *  0.433907 *  0.069628 *   0.56000    1.000000    
    186 F     c    0.545838 *  0.450605 *  0.414499 *   0.56000    1.000000    
    187 O2    s    0.924588 *  0.005824 *  0.999899 *  -2.87073    1.000000    
    188 O2    s    0.998584 *  0.922803 *  0.332251 *  -2.87073    1.000000    
    189 O2    s    0.073892 *  0.075832 *  0.664900 *  -2.87073    1.000000    
    190 O2    s    0.069809 *  0.001436 *  0.500066 *  -2.87073    1.000000    
    191 O2    s    0.000558 *  0.072151 *  0.831164 *  -2.87073    1.000000    
    192 O2    s    0.921912 *  0.928223 *  0.166212 *  -2.87073    1.000000    
    193 O2    s    0.349698 *  0.578176 *  0.329425 *  -2.87073    1.000000    
    194 O2    s    0.415553 *  0.767652 *  0.664156 *  -2.87073    1.000000    
    195 O2    s    0.227230 *  0.645395 *  0.994205 *  -2.87073    1.000000    
    196 O2    s    0.648626 *  0.411546 *  0.833008 *  -2.87073    1.000000    
    197 O2    s    0.592570 *  0.244796 *  0.170106 *  -2.87073    1.000000    
    198 O2    s    0.761134 *  0.355200 *  0.502934 *  -2.87073    1.000000    
    199 O3    s    0.572470 *  0.347851 *  0.998021 *  -3.33043    1.000000    
    200 O2    s    0.767635 *  0.416474 *  0.668134 *  -2.87073    1.000000    
    201 O3    s    0.654781 *  0.237832 *  0.340208 *  -3.33043    1.000000    
    202 O2    s    0.405703 *  0.646651 *  0.497155 *  -2.87073    1.000000    
    203 O2    s    0.232596 *  0.582463 *  0.160897 *  -2.87073    1.000000    
    204 O2    s    0.351680 *  0.764058 *  0.829886 *  -2.87073    1.000000    
    205 O2    s    0.121731 *  0.216753 *  0.966898 *  -2.87073    1.000000    
    206 O2    s    0.778123 *  0.893940 *  0.301844 *  -2.87073    1.000000    
    207 O2    s    0.095060 *  0.879681 *  0.635914 *  -2.87073    1.000000    
    208 O2    s    0.871514 *  0.785564 *  0.470571 *  -2.87073    1.000000    
    209 O2    s    0.217232 *  0.093065 *  0.801724 *  -2.87073    1.000000    
    210 O2    s    0.902083 *  0.122409 *  0.132511 *  -2.87073    1.000000    
    211 O2    s    0.217860 *  0.115956 *  0.362637 *  -2.87073    1.000000    
    212 O2    s    0.907875 *  0.792538 *  0.026582 *  -2.87073    1.000000    
    213 O2    s    0.878538 *  0.096924 *  0.695196 *  -2.87073    1.000000    
    214 O2    s    0.783551 *  0.874681 *  0.860715 *  -2.87073    1.000000    
    215 O2    s    0.090365 *  0.217445 *  0.530222 *  -2.87073    1.000000    
    216 O3    s    0.118238 *  0.910621 *  0.197258 *  -3.33043    1.000000    
    217 O2    s    0.924394 *  0.850847 *  0.248772 *  -2.87073    1.000000    
    218 O2    s    0.140040 *  0.071642 *  0.582492 *  -2.87073    1.000000    
    219 O2    s    0.931727 *  0.061598 *  0.914532 *  -2.87073    1.000000    
    220 O2    s    0.069836 *  0.137711 *  0.748125 *  -2.87073    1.000000    
    221 O2    s    0.853913 *  0.926391 *  0.082532 *  -2.87073    1.000000    
    222 O2    s    0.061191 *  0.932343 *  0.417243 *  -2.87073    1.000000    
    223 O2    s    0.907207 *  0.202325 *  0.975957 *  -2.87073    1.000000    
    224 O2    s    0.797724 *  0.699212 *  0.315895 *  -2.87073    1.000000    
    225 O2    s    0.296180 *  0.092917 *  0.648020 *  -2.87073    1.000000    
    226 O2    s    0.084600 *  0.796033 *  0.482133 *  -2.87073    1.000000    
    227 O2    s    0.204462 *  0.293964 *  0.812923 *  -2.87073    1.000000    
    228 O2    s    0.700745 *  0.913918 *  0.147925 *  -2.87073    1.000000    
    229 O2    s    0.193222 *  0.895470 *  0.356523 *  -2.87073    1.000000    
    230 O2    s    0.702351 *  0.797746 *  0.015022 *  -2.87073    1.000000    
    231 O2    s    0.093376 *  0.297413 *  0.683802 *  -2.87073    1.000000    
    232 O2    s    0.796462 *  0.088081 *  0.849746 *  -2.87073    1.000000    
    233 O2    s    0.291476 *  0.207007 *  0.516576 *  -2.87073    1.000000    
    234 O2    s    0.914128 *  0.708013 *  0.179366 *  -2.87073    1.000000    
    235 O2    s    0.324189 *  0.653541 *  0.246851 *  -2.87073    1.000000    
    236 O2    s    0.342787 *  0.672292 *  0.581411 *  -2.87073    1.000000    
    237 O2    s    0.324813 *  0.671308 *  0.912378 *  -2.87073    1.000000    
    238 O2    s    0.672930 *  0.343814 *  0.750194 *  -2.87073    1.000000    
    239 O3    s    0.630376 *  0.312697 *  0.086804 *  -3.33043    1.000000    
    240 O2    s    0.673457 *  0.332779 *  0.420143 *  -2.87073    1.000000    
    241 O2    s    0.373619 *  0.341579 *  0.964678 *  -2.87073    1.000000    
    242 O3    s    0.663462 *  0.029361 *  0.302704 *  -3.33043    1.000000    
    243 O2    s    0.963977 *  0.625493 *  0.635617 *  -2.87073    1.000000    
    244 O2    s    0.615785 *  0.660377 *  0.466424 *  -2.87073    1.000000    
    245 O2    s    0.340219 *  0.961629 *  0.799326 *  -2.87073    1.000000    
    246 O2    s    0.031889 *  0.376272 *  0.127674 *  -2.87073    1.000000    
    247 O2    s    0.340935 *  0.371702 *  0.362356 *  -2.87073    1.000000    
    248 O2    s    0.027499 *  0.654461 *  0.025634 *  -2.87073    1.000000    
    249 O2    s    0.623918 *  0.964984 *  0.696693 *  -2.87073    1.000000    
    250 O2    s    0.659092 *  0.621435 *  0.863030 *  -2.87073    1.000000    
    251 O2    s    0.959712 *  0.341566 *  0.532364 *  -2.87073    1.000000    
    252 O3    s    0.382284 *  0.053598 *  0.197395 *  -3.33043    1.000000    
    253 O3    s    0.765302 *  0.291216 *  0.005219 *  -3.33043    1.000000    
    254 O2    s    0.692096 *  0.466608 *  0.348744 *  -2.87073    1.000000    
    255 O2    s    0.534557 *  0.224563 *  0.680009 *  -2.87073    1.000000    
    256 O2    s    0.217528 *  0.689334 *  0.512894 *  -2.87073    1.000000    
    257 O2    s    0.310305 *  0.532757 *  0.843090 *  -2.87073    1.000000    
    258 O2    s    0.462282 *  0.781678 *  0.179118 *  -2.87073    1.000000    
    259 O2    s    0.298101 *  0.762932 *  0.317893 *  -2.87073    1.000000    
    260 O2    s    0.463493 *  0.691391 *  0.982414 *  -2.87073    1.000000    
    261 O2    s    0.225801 *  0.535302 *  0.651565 *  -2.87073    1.000000    
    262 O2    s    0.691010 *  0.221486 *  0.818805 *  -2.87073    1.000000    
    263 O2    s    0.529728 *  0.314341 *  0.487133 *  -2.87073    1.000000    
    264 O2    s    0.775512 *  0.470914 *  0.147755 *  -2.87073    1.000000    
    265 O3    s    0.782058 *  0.548498 *  0.023136 *  -3.33043    1.000000    
    266 O2    s    0.470045 *  0.253448 *  0.363845 *  -2.87073    1.000000    
    267 O2    s    0.744021 *  0.212659 *  0.697070 *  -2.87073    1.000000    
    268 O2    s    0.207023 *  0.468031 *  0.529996 *  -2.87073    1.000000    
    269 O2    s    0.531992 *  0.742219 *  0.861051 *  -2.87073    1.000000    
    270 O3    s    0.246090 *  0.772365 *  0.194422 *  -3.33043    1.000000    
    271 O2    s    0.522033 *  0.790798 *  0.299666 *  -2.87073    1.000000    
    272 O2    s    0.253865 *  0.468733 *  0.965556 *  -2.87073    1.000000    
    273 O2    s    0.210999 *  0.743142 *  0.634650 *  -2.87073    1.000000    
    274 O2    s    0.468968 *  0.208556 *  0.801785 *  -2.87073    1.000000    
    275 O2    s    0.737194 *  0.535536 *  0.471274 *  -2.87073    1.000000    
    276 O2    s    0.786799 *  0.259874 *  0.131094 *  -2.87073    1.000000    
    277 O2    s    0.236769 *  0.333699 *  0.895501 *  -2.87073    1.000000    
    278 O2    s    0.659526 *  0.909604 *  0.231624 *  -2.87073    1.000000    
    279 O2    s    0.088683 *  0.759768 *  0.565234 *  -2.87073    1.000000    
    280 O2    s    0.757983 *  0.667358 *  0.399350 *  -2.87073    1.000000    
    281 O2    s    0.332941 *  0.091974 *  0.730812 *  -2.87073    1.000000    
    282 O2    s    0.897377 *  0.237884 *  0.060344 *  -2.87073    1.000000    
    283 O2    s    0.331850 *  0.239269 *  0.433127 *  -2.87073    1.000000    
    284 O2    s    0.901654 *  0.663913 *  0.095356 *  -2.87073    1.000000    
    285 O2    s    0.760647 *  0.092029 *  0.766681 *  -2.87073    1.000000    
    286 O2    s    0.666470 *  0.758285 *  0.931981 *  -2.87073    1.000000    
    287 O2    s    0.091317 *  0.334274 *  0.601088 *  -2.87073    1.000000    
    288 O3    s    0.224021 *  0.902572 *  0.275933 *  -3.33043    1.000000    
    289 O2    s    0.577955 *  0.560321 *  0.985388 *  -2.87073    1.000000    
    290 O3    s    0.426449 *  0.006648 *  0.327333 *  -3.33043    1.000000    
    291 O2    s    0.979056 *  0.420811 *  0.654642 *  -2.87073    1.000000    
    292 O2    s    0.409972 *  0.440862 *  0.484558 *  -2.87073    1.000000    
    293 O2    s    0.559860 *  0.974844 *  0.818381 *  -2.87073    1.000000    
    294 O2    s    0.019081 *  0.578380 *  0.145405 *  -2.87073    1.000000    
    295 O2    s    0.559750 *  0.582351 *  0.344911 *  -2.87073    1.000000    
    296 O2    s    0.010428 *  0.437659 *  0.007625 *  -2.87073    1.000000    
    297 O2    s    0.416763 *  0.976929 *  0.677645 *  -2.87073    1.000000    
    298 O2    s    0.440187 *  0.414720 *  0.844642 *  -2.87073    1.000000    
    299 O2    s    0.970840 *  0.560257 *  0.513342 *  -2.87073    1.000000    
    300 O2    s    0.578969 *  0.027297 *  0.181230 *  -2.87073    1.000000    
    301 O3    s    0.572421 *  0.160253 *  0.251439 *  -3.33043    1.000000    
    302 O2    s    0.844361 *  0.424901 *  0.585078 *  -2.87073    1.000000    
    303 O2    s    0.578591 *  0.425463 *  0.915446 *  -2.87073    1.000000    
    304 O2    s    0.422712 *  0.844960 *  0.747380 *  -2.87073    1.000000    
    305 O2    s    0.145115 *  0.571924 *  0.076925 *  -2.87073    1.000000    
    306 O2    s    0.416677 *  0.573557 *  0.413584 *  -2.87073    1.000000    
    307 F     s    0.410875 *  0.913840 *  0.246505 *  -1.56000    1.000000    
    308 F     s    0.094540 *  0.547941 *  0.582231 *  -1.56000    1.000000    
    309 F     s    0.446666 *  0.551345 *  0.912861 *  -1.56000    1.000000    
    310 F     s    0.548774 *  0.096651 *  0.747896 *  -1.56000    1.000000    
    311 F     s    0.845119 *  0.430132 *  0.067597 *  -1.56000    1.000000    
    312 F     s    0.546032 *  0.450306 *  0.414286 *  -1.56000    1.000000    
--------------------------------------------------------------------------------



********************************************************************************
*  General input information                                                   *
********************************************************************************

  Species output for all configurations : 

--------------------------------------------------------------------------------
  Species    Type    Atomic    Atomic    Charge       Radii (Angs)     Library
                     Number     Mass       (e)     Cova   Ionic  VDW   Symbol
--------------------------------------------------------------------------------
    Si       Core       14      28.09   4.000000   1.200  0.000  2.100          
    O1       Core        8      16.00   1.733957   0.730  0.000  1.360          
    O1       Shell       8       0.00  -3.733957   0.730  0.000  1.360          
    O2       Core        8      16.00   0.870733   0.730  0.000  1.360          
    O2       Shell       8       0.00  -2.870733   0.730  0.000  1.360          
    O3       Core        8      16.00   1.330431   0.730  0.000  1.360          
    O3       Shell       8       0.00  -3.330431   0.730  0.000  1.360          
    F        Core        9      19.00   0.560000   0.710  0.000  1.300          
    F        Shell       9       0.00  -1.560000   0.710  0.000  1.300          
    Ge       Core       32      72.61   4.000000   1.170  0.000  1.750          
--------------------------------------------------------------------------------


  Lattice summation method               =    Ewald          (3-D)
                                         =    Parry          (2-D)
                                         =    Saunders et al (1-D)
  Accuracy factor for lattice sums       =   12.000


  Time limit = Infinity

  Maximum range for interatomic potentials =        16.000000 Angstroms

  Taper potentials to zero over   1.0000 Angstroms using polynomial

  General interatomic potentials :

--------------------------------------------------------------------------------
Atom  Types   Potential         A         B         C         D     Cutoffs(Ang)
  1     2                                                            Min    Max 
--------------------------------------------------------------------------------
Si   c O1   s Buckingham    0.132E+04 0.318      10.1      0.00     0.000 16.000
Si   c O2   s Buckingham    0.132E+04 0.318      10.1      0.00     0.000 16.000
Si   c O3   s Buckingham    0.132E+04 0.318      10.1      0.00     0.000 16.000
Ge   c O1   s Buckingham    0.150E+04 0.326      16.8      0.00     0.000 16.000
Ge   c O2   s Buckingham    0.150E+04 0.326      16.8      0.00     0.000 16.000
Ge   c O3   s Buckingham    0.150E+04 0.326      16.8      0.00     0.000 16.000
O1   s O1   s Buckingham    0.228E+05 0.149      10.9      0.00     0.000 16.000
O1   s O2   s Buckingham    0.228E+05 0.149      10.9      0.00     0.000 16.000
O1   s O3   s Buckingham    0.228E+05 0.149      10.9      0.00     0.000 16.000
O2   s O2   s Buckingham    0.228E+05 0.149      10.9      0.00     0.000 16.000
O2   s O3   s Buckingham    0.228E+05 0.149      10.9      0.00     0.000 16.000
O3   s O3   s Buckingham    0.228E+05 0.149      10.9      0.00     0.000 16.000
Si   c F    s Buckingham     977.     0.282      0.00      0.00     0.000 16.000
Ge   c F    s Buckingham     681.     0.320      0.00      0.00     0.000 16.000
F    s F    s Buckingham     540.     0.262      0.00      0.00     0.000 16.000
O1   s F    s Buckingham    0.168E+04 0.268      0.00      0.00     0.000 16.000
O2   s F    s Buckingham    0.168E+04 0.268      0.00      0.00     0.000 16.000
O3   s F    s Buckingham    0.168E+04 0.268      0.00      0.00     0.000 16.000
O2   c O2   s Spring (c-s)   76.0      0.00      0.00      0.00     0.000  0.800
O3   c O3   s Spring (c-s)   128.      0.00      0.00      0.00     0.000  0.800
O1   c O1   s Spring (c-s)   180.      0.00      0.00      0.00     0.000  0.800
F    c F    s Spring (c-s)   33.5      0.00      0.00      0.00     0.000  0.800
--------------------------------------------------------------------------------

  General Three-body potentials :

  Harmonic form:

--------------------------------------------------------------------------------
Atom    Atom    Atom           Force Constants            Theta     Cutoffs  
  1       2       3     (eVrad**-2/eVrad**-3/eVrad**-4)   (deg)  1-2  1-3  2-3
--------------------------------------------------------------------------------
Si    c O1    s O1    s  1.261        0.0000    0.0000   109.470 0.00 0.00 0.00
                                                                 1.90 1.90 3.50
Si    c O1    s O2    s  1.261        0.0000    0.0000   109.470 0.00 0.00 0.00
                                                                 1.90 1.90 3.50
Si    c O2    s O2    s  1.261        0.0000    0.0000   109.470 0.00 0.00 0.00
                                                                 1.90 1.90 3.50
--------------------------------------------------------------------------------

********************************************************************************
*  Output for configuration   1                                                *
********************************************************************************


  Components of energy : 

--------------------------------------------------------------------------------
  Interatomic potentials     =        2063.58229972 eV
  Three-body potentials      =           0.45967529 eV
  Monopole - monopole (real) =       -6611.53937273 eV
  Monopole - monopole (recip)=       -3172.69969757 eV
  Monopole - monopole (total)=       -9784.23907030 eV
  Neutralising energy        =          -6.46279019 eV
--------------------------------------------------------------------------------
  Total lattice energy       =       -7726.65988549 eV
--------------------------------------------------------------------------------
  Total lattice energy       =         -745504.5661 kJ/(mole unit cells)
--------------------------------------------------------------------------------


  Number of variables =      939

  Maximum number of calculations  =          1000
  Maximum Hessian update interval =            10
  Maximum step size               =   1.000000000
  Maximum parameter tolerance     =   0.000010000
  Maximum function  tolerance     =   0.000010000
  Maximum gradient  tolerance     =   0.001000000
  Maximum gradient  component     =   0.010000000

  Symmetry not applied to optimisation

  Cell parameters to be optimised using strains

  Newton-Raphson optimiser to be used

  BFGS hessian update to be used

  Dumpfile to be written after every cycle

  Start of bulk optimisation :

  Cycle:      0 Energy:     -7726.659885  Gnorm:      0.007110  CPU:    1.087
  ** Hessian calculated **
  Cycle:      1 Energy:     -7726.794287  Gnorm:      0.005586  CPU:    3.396
  Cycle:      2 Energy:     -7726.813728  Gnorm:      0.003489  CPU:    4.776
  Cycle:      3 Energy:     -7726.813965  Gnorm:      0.000606  CPU:    6.157
  Cycle:      4 Energy:     -7726.814001  Gnorm:      0.000268  CPU:    7.618
  Cycle:      5 Energy:     -7726.814003  Gnorm:      0.000038  CPU:    8.998


  **** Optimisation achieved ****


  Final energy =   -7726.81400284 eV
  Final Gnorm  =       0.00000618

  Components of energy : 

--------------------------------------------------------------------------------
  Interatomic potentials     =        2064.04196427 eV
  Three-body potentials      =           0.46104100 eV
  Monopole - monopole (real) =       -6613.02466972 eV
  Monopole - monopole (recip)=       -3171.83131277 eV
  Monopole - monopole (total)=       -9784.85598250 eV
  Neutralising energy        =          -6.46102562 eV
--------------------------------------------------------------------------------
  Total lattice energy       =       -7726.81400284 eV
--------------------------------------------------------------------------------
  Total lattice energy       =         -745519.4361 kJ/(mole unit cells)
--------------------------------------------------------------------------------

  Final fractional coordinates of atoms :

--------------------------------------------------------------------------------
   No.  Atomic        x           y          z          Radius
        Label       (Frac)      (Frac)     (Frac)       (Angs) 
--------------------------------------------------------------------------------
     1  Ge    c     0.699600    0.375700    0.033890    0.000000
     2  Si    c     0.593781    0.303838    0.369334    0.000000
     3  Si    c     0.655179    0.283643    0.699560    0.000000
     4  Si    c     0.262307    0.602089    0.529998    0.000000
     5  Si    c     0.359304    0.657966    0.861609    0.000000
     6  Si    c     0.291627    0.681554    0.194881    0.000000
     7  Si    c     0.339405    0.672955    0.297715    0.000000
     8  Si    c     0.304670    0.606178    0.961571    0.000000
     9  Si    c     0.275855    0.662487    0.630463    0.000000
    10  Si    c     0.601118    0.279220    0.800003    0.000000
    11  Si    c     0.642197    0.362666    0.469799    0.000000
    12  Si    c     0.673396    0.308884    0.131822    0.000000
    13  Si    c     0.516092    0.404052    0.966856    0.000000
    14  Ge    c     0.544301    0.087507    0.304703    0.000000
    15  Si    c     0.864823    0.458282    0.635934    0.000000
    16  Si    c     0.428582    0.560170    0.463523    0.000000
    17  Si    c     0.397291    0.868138    0.796810    0.000000
    18  Si    c     0.091353    0.512163    0.127374    0.000000
    19  Si    c     0.383265    0.501077    0.361967    0.000000
    20  Si    c     0.091458    0.569069    0.024842    0.000000
    21  Si    c     0.449911    0.873602    0.695176    0.000000
    22  Si    c     0.565163    0.452994    0.864438    0.000000
    23  Si    c     0.855184    0.402309    0.534605    0.000000
    24  Si    c     0.503484    0.106855    0.200026    0.000000
    25  Si    c     0.283382    0.381391    0.848423    0.000000
    26  Si    c     0.574553    0.892885    0.183027    0.000000
    27  Si    c     0.060696    0.680966    0.517579    0.000000
    28  Si    c     0.666835    0.577969    0.350820    0.000000
    29  Si    c     0.377802    0.082661    0.682657    0.000000
    30  Si    c     0.877526    0.282293    0.009453    0.000000
    31  Si    c     0.360604    0.281206    0.479607    0.000000
    32  Si    c     0.883102    0.591773    0.143042    0.000000
    33  Si    c     0.678953    0.077514    0.812931    0.000000
    34  Si    c     0.583814    0.685218    0.977980    0.000000
    35  Si    c     0.075754    0.385854    0.647923    0.000000
    36  Si    c     0.256236    0.870220    0.318970    0.000000
    37  Si    c     0.235363    0.326799    0.948804    0.000000
    38  Si    c     0.628893    0.887872    0.285375    0.000000
    39  Si    c     0.064770    0.735308    0.618293    0.000000
    40  Si    c     0.710729    0.640857    0.451482    0.000000
    41  Si    c     0.319868    0.070171    0.783057    0.000000
    42  Si    c     0.884161    0.232801    0.112463    0.000000
    43  Si    c     0.308526    0.223919    0.378683    0.000000
    44  Si    c     0.893260    0.656809    0.040773    0.000000
    45  Si    c     0.728483    0.075547    0.712225    0.000000
    46  Si    c     0.641135    0.731067    0.877361    0.000000
    47  Si    c     0.056307    0.323006    0.547409    0.000000
    48  Ge    c     0.236950    0.894911    0.218500    0.000000
    49  Si    c     0.957220    0.107804    0.963187    0.000000
    50  Si    c     0.846254    0.819869    0.298475    0.000000
    51  Si    c     0.127706    0.015004    0.632510    0.000000
    52  Si    c     0.989136    0.860258    0.467161    0.000000
    53  Si    c     0.102422    0.132565    0.798183    0.000000
    54  Si    c     0.822969    0.955697    0.132306    0.000000
    55  Si    c     0.084191    0.943999    0.366729    0.000000
    56  Si    c     0.830987    0.871560    0.030509    0.000000
    57  Si    c     0.008895    0.137892    0.697492    0.000000
    58  Si    c     0.860457    0.008369    0.863270    0.000000
    59  Si    c     0.114709    0.103330    0.531820    0.000000
    60  Si    c     0.951269    0.836632    0.197986    0.000000
    61  O2    c     0.911129    0.997659    0.000722    0.000000
    62  O2    c     0.966302    0.904218    0.331762    0.000000
    63  O2    c     0.049183    0.058150    0.664660    0.000000
    64  O2    c     0.030424    0.980991    0.499896    0.000000
    65  O2    c     0.981687    0.052515    0.830689    0.000000
    66  O2    c     0.899181    0.913539    0.166707    0.000000
    67  O2    c     0.306316    0.547733    0.327802    0.000000
    68  O2    c     0.402435    0.749945    0.661878    0.000000
    69  O2    c     0.217816    0.643992    0.993534    0.000000
    70  O2    c     0.640687    0.400981    0.833061    0.000000
    71  O2    c     0.566139    0.236223    0.170210    0.000000
    72  O2    c     0.724889    0.324875    0.503909    0.000000
    73  O3    c     0.561524    0.330387    0.999146    0.000000
    74  O2    c     0.741242    0.410138    0.668719    0.000000
    75  O3    c     0.633839    0.217226    0.340429    0.000000
    76  O2    c     0.379549    0.637651    0.494833    0.000000
    77  O2    c     0.216570    0.559337    0.160455    0.000000
    78  O2    c     0.320353    0.741610    0.828145    0.000000
    79  O2    c     0.111477    0.198269    0.968806    0.000000
    80  O2    c     0.749425    0.876475    0.304562    0.000000
    81  O2    c     0.066416    0.861612    0.638504    0.000000
    82  O2    c     0.834390    0.769067    0.472032    0.000000
    83  O2    c     0.192797    0.068204    0.803122    0.000000
    84  O2    c     0.886830    0.110381    0.134602    0.000000
    85  O2    c     0.183022    0.096057    0.358752    0.000000
    86  O2    c     0.907393    0.793190    0.025159    0.000000
    87  O2    c     0.854639    0.076952    0.691474    0.000000
    88  O2    c     0.768686    0.855123    0.857063    0.000000
    89  O2    c     0.051384    0.194556    0.527544    0.000000
    90  O3    c     0.101399    0.904794    0.195911    0.000000
    91  O2    c     0.893777    0.831409    0.247766    0.000000
    92  O2    c     0.109509    0.051501    0.581927    0.000000
    93  O2    c     0.915283    0.043142    0.914114    0.000000
    94  O2    c     0.047441    0.120615    0.747788    0.000000
    95  O2    c     0.831493    0.911607    0.082254    0.000000
    96  O2    c     0.027320    0.915609    0.416865    0.000000
    97  O2    c     0.890078    0.193480    0.971185    0.000000
    98  O2    c     0.766759    0.669739    0.312283    0.000000
    99  O2    c     0.280554    0.085680    0.644032    0.000000
   100  O2    c     0.058738    0.777799    0.479217    0.000000
   101  O2    c     0.185251    0.283531    0.810005    0.000000
   102  O2    c     0.671326    0.893395    0.145055    0.000000
   103  O2    c     0.159774    0.864905    0.359206    0.000000
   104  O2    c     0.680796    0.785897    0.016106    0.000000
   105  O2    c     0.080414    0.289920    0.685992    0.000000
   106  O2    c     0.777401    0.077916    0.851636    0.000000
   107  O2    c     0.264621    0.184602    0.517780    0.000000
   108  O2    c     0.887934    0.687065    0.182256    0.000000
   109  O2    c     0.292292    0.627036    0.245755    0.000000
   110  O2    c     0.327505    0.661064    0.579465    0.000000
   111  O2    c     0.300397    0.660621    0.911139    0.000000
   112  O2    c     0.656129    0.338383    0.750016    0.000000
   113  O3    c     0.606839    0.300441    0.084284    0.000000
   114  O2    c     0.647620    0.306156    0.420413    0.000000
   115  O2    c     0.358090    0.318339    0.967234    0.000000
   116  O3    c     0.641320    0.016777    0.304492    0.000000
   117  O2    c     0.934161    0.614225    0.637921    0.000000
   118  O2    c     0.585107    0.648875    0.466885    0.000000
   119  O2    c     0.309664    0.936926    0.800045    0.000000
   120  O2    c     0.018296    0.357083    0.128909    0.000000
   121  O2    c     0.298171    0.345072    0.358453    0.000000
   122  O2    c     0.023958    0.657571    0.024089    0.000000
   123  O2    c     0.606813    0.943902    0.692697    0.000000
   124  O2    c     0.650957    0.608577    0.859681    0.000000
   125  O2    c     0.922246    0.313580    0.530107    0.000000
   126  O3    c     0.350410    0.042511    0.193778    0.000000
   127  O3    c     0.745505    0.278762    0.001096    0.000000
   128  O2    c     0.667194    0.444195    0.345097    0.000000
   129  O2    c     0.512103    0.216826    0.675913    0.000000
   130  O2    c     0.192854    0.677713    0.508418    0.000000
   131  O2    c     0.284283    0.515080    0.838955    0.000000
   132  O2    c     0.438010    0.761802    0.175515    0.000000
   133  O2    c     0.258727    0.735125    0.319626    0.000000
   134  O2    c     0.448516    0.685365    0.984301    0.000000
   135  O2    c     0.210922    0.520339    0.653300    0.000000
   136  O2    c     0.677105    0.209861    0.821321    0.000000
   137  O2    c     0.496727    0.286646    0.489891    0.000000
   138  O2    c     0.750477    0.457642    0.150116    0.000000
   139  O3    c     0.766314    0.543679    0.019229    0.000000
   140  O2    c     0.436003    0.223032    0.360677    0.000000
   141  O2    c     0.730680    0.203261    0.693578    0.000000
   142  O2    c     0.181164    0.446113    0.526257    0.000000
   143  O2    c     0.516202    0.733790    0.857026    0.000000
   144  O3    c     0.210735    0.754021    0.190586    0.000000
   145  O2    c     0.493419    0.768512    0.301974    0.000000
   146  O2    c     0.230640    0.450794    0.967901    0.000000
   147  O2    c     0.193409    0.735917    0.636070    0.000000
   148  O2    c     0.444698    0.195162    0.803911    0.000000
   149  O2    c     0.711788    0.518120    0.473313    0.000000
   150  O2    c     0.762734    0.239920    0.132181    0.000000
   151  O2    c     0.211824    0.308577    0.894560    0.000000
   152  O2    c     0.639067    0.890715    0.230965    0.000000
   153  O2    c     0.060967    0.752480    0.563987    0.000000
   154  O2    c     0.733923    0.654736    0.397370    0.000000
   155  O2    c     0.302332    0.075762    0.728774    0.000000
   156  O2    c     0.881079    0.217522    0.058200    0.000000
   157  O2    c     0.289854    0.208080    0.432937    0.000000
   158  O2    c     0.887403    0.661750    0.095942    0.000000
   159  O2    c     0.749100    0.075338    0.766477    0.000000
   160  O2    c     0.658940    0.752537    0.931599    0.000000
   161  O2    c     0.064702    0.308808    0.601582    0.000000
   162  O3    c     0.184354    0.884232    0.275007    0.000000
   163  O2    c     0.566881    0.546668    0.988323    0.000000
   164  O3    c     0.397355    0.989224    0.330190    0.000000
   165  O2    c     0.952781    0.403287    0.658052    0.000000
   166  O2    c     0.371682    0.419577    0.486420    0.000000
   167  O2    c     0.539158    0.951911    0.820306    0.000000
   168  O2    c     0.002740    0.565460    0.147964    0.000000
   169  O2    c     0.526649    0.563833    0.340061    0.000000
   170  O2    c     0.999773    0.427645    0.004026    0.000000
   171  O2    c     0.391380    0.957758    0.672590    0.000000
   172  O2    c     0.422858    0.393651    0.840927    0.000000
   173  O2    c     0.933929    0.541600    0.509982    0.000000
   174  O2    c     0.558679    0.017684    0.178590    0.000000
   175  O3    c     0.547815    0.151747    0.251887    0.000000
   176  O2    c     0.806795    0.403479    0.585630    0.000000
   177  O2    c     0.568365    0.406775    0.915600    0.000000
   178  O2    c     0.397245    0.818151    0.745554    0.000000
   179  O2    c     0.137918    0.562635    0.076457    0.000000
   180  O2    c     0.377171    0.555681    0.411778    0.000000
   181  F     c     0.389120    0.895628    0.246849    0.000000
   182  F     c     0.067915    0.532437    0.581559    0.000000
   183  F     c     0.429946    0.535956    0.912206    0.000000
   184  F     c     0.527833    0.080087    0.746733    0.000000
   185  F     c     0.847029    0.427881    0.069524    0.000000
   186  F     c     0.512004    0.427519    0.413401    0.000000
   187  O2    s     0.907154    0.995688    0.999884    0.000000
   188  O2    s     0.966045    0.899259    0.331950    0.000000
   189  O2    s     0.053559    0.062218    0.664702    0.000000
   190  O2    s     0.035182    0.981089    0.499782    0.000000
   191  O2    s     0.981602    0.056546    0.830704    0.000000
   192  O2    s     0.895875    0.910378    0.166032    0.000000
   193  O2    s     0.317533    0.556266    0.328044    0.000000
   194  O2    s     0.394201    0.753473    0.662005    0.000000
   195  O2    s     0.213118    0.632263    0.993648    0.000000
   196  O2    s     0.628856    0.393610    0.832810    0.000000
   197  O2    s     0.570908    0.230103    0.169295    0.000000
   198  O2    s     0.729639    0.336870    0.503476    0.000000
   199  O3    s     0.566321    0.341777    0.998059    0.000000
   200  O2    s     0.745358    0.402263    0.668452    0.000000
   201  O3    s     0.622852    0.215668    0.340507    0.000000
   202  O2    s     0.372750    0.625949    0.495146    0.000000
   203  O2    s     0.211177    0.566625    0.160490    0.000000
   204  O2    s     0.332339    0.746284    0.828293    0.000000
   205  O2    s     0.107398    0.201569    0.966181    0.000000
   206  O2    s     0.746459    0.871736    0.301844    0.000000
   207  O2    s     0.072739    0.864718    0.635791    0.000000
   208  O2    s     0.837920    0.765403    0.469406    0.000000
   209  O2    s     0.196357    0.075271    0.800533    0.000000
   210  O2    s     0.879845    0.106921    0.132074    0.000000
   211  O2    s     0.185777    0.093517    0.361615    0.000000
   212  O2    s     0.897838    0.787576    0.027318    0.000000
   213  O2    s     0.858101    0.083353    0.694243    0.000000
   214  O2    s     0.765401    0.858762    0.859781    0.000000
   215  O2    s     0.058635    0.198071    0.530020    0.000000
   216  O3    s     0.093234    0.896367    0.197619    0.000000
   217  O2    s     0.894346    0.830651    0.248386    0.000000
   218  O2    s     0.112149    0.053321    0.581892    0.000000
   219  O2    s     0.913903    0.046531    0.913966    0.000000
   220  O2    s     0.049249    0.123951    0.747725    0.000000
   221  O2    s     0.830470    0.912235    0.082236    0.000000
   222  O2    s     0.029435    0.912610    0.416857    0.000000
   223  O2    s     0.896081    0.193575    0.974361    0.000000
   224  O2    s     0.764915    0.676197    0.314780    0.000000
   225  O2    s     0.274087    0.077848    0.646697    0.000000
   226  O2    s     0.051537    0.776725    0.481832    0.000000
   227  O2    s     0.186384    0.277298    0.812665    0.000000
   228  O2    s     0.676734    0.899781    0.147752    0.000000
   229  O2    s     0.161281    0.873542    0.356121    0.000000
   230  O2    s     0.687083    0.784884    0.013776    0.000000
   231  O2    s     0.072482    0.283850    0.683301    0.000000
   232  O2    s     0.776148    0.070524    0.848923    0.000000
   233  O2    s     0.258518    0.185972    0.515287    0.000000
   234  O2    s     0.893791    0.691955    0.179641    0.000000
   235  O2    s     0.297048    0.637183    0.246018    0.000000
   236  O2    s     0.315699    0.655217    0.579576    0.000000
   237  O2    s     0.306763    0.654803    0.911276    0.000000
   238  O2    s     0.650386    0.326648    0.749905    0.000000
   239  O3    s     0.619869    0.306193    0.086028    0.000000
   240  O2    s     0.641464    0.311829    0.420253    0.000000
   241  O2    s     0.360303    0.327852    0.965141    0.000000
   242  O3    s     0.632574    0.008787    0.302517    0.000000
   243  O2    s     0.940718    0.610864    0.635649    0.000000
   244  O2    s     0.582213    0.638848    0.464888    0.000000
   245  O2    s     0.319768    0.943885    0.797907    0.000000
   246  O2    s     0.012060    0.360563    0.127026    0.000000
   247  O2    s     0.307982    0.348718    0.360886    0.000000
   248  O2    s     0.017927    0.648278    0.025847    0.000000
   249  O2    s     0.603334    0.950408    0.695003    0.000000
   250  O2    s     0.641121    0.605484    0.862027    0.000000
   251  O2    s     0.929417    0.323739    0.532395    0.000000
   252  O3    s     0.357598    0.038206    0.196241    0.000000
   253  O3    s     0.756917    0.285527    0.004225    0.000000
   254  O2    s     0.659596    0.444035    0.348223    0.000000
   255  O2    s     0.512656    0.209579    0.679072    0.000000
   256  O2    s     0.186107    0.670289    0.511630    0.000000
   257  O2    s     0.291878    0.515713    0.842299    0.000000
   258  O2    s     0.437417    0.767454    0.178325    0.000000
   259  O2    s     0.266772    0.742126    0.317258    0.000000
   260  O2    s     0.447665    0.677236    0.981286    0.000000
   261  O2    s     0.203384    0.520770    0.650362    0.000000
   262  O2    s     0.669471    0.203042    0.818206    0.000000
   263  O2    s     0.497382    0.293990    0.486669    0.000000
   264  O2    s     0.757089    0.457325    0.147511    0.000000
   265  O3    s     0.775900    0.545049    0.022474    0.000000
   266  O2    s     0.437832    0.230896    0.363298    0.000000
   267  O2    s     0.722494    0.197764    0.696178    0.000000
   268  O2    s     0.176048    0.449061    0.528904    0.000000
   269  O2    s     0.513477    0.725566    0.859671    0.000000
   270  O3    s     0.221072    0.757141    0.193093    0.000000
   271  O2    s     0.491296    0.771037    0.299754    0.000000
   272  O2    s     0.238803    0.453701    0.965267    0.000000
   273  O2    s     0.187908    0.728078    0.633572    0.000000
   274  O2    s     0.447571    0.190320    0.801262    0.000000
   275  O2    s     0.704267    0.515188    0.470589    0.000000
   276  O2    s     0.767318    0.245978    0.129981    0.000000
   277  O2    s     0.221772    0.318143    0.895412    0.000000
   278  O2    s     0.631007    0.890640    0.231626    0.000000
   279  O2    s     0.061336    0.743133    0.564820    0.000000
   280  O2    s     0.724462    0.645237    0.398203    0.000000
   281  O2    s     0.312090    0.075896    0.729643    0.000000
   282  O2    s     0.881058    0.225441    0.059303    0.000000
   283  O2    s     0.299287    0.217467    0.432083    0.000000
   284  O2    s     0.887491    0.653632    0.095498    0.000000
   285  O2    s     0.739607    0.075583    0.765585    0.000000
   286  O2    s     0.649218    0.743258    0.930702    0.000000
   287  O2    s     0.064960    0.318367    0.600640    0.000000
   288  O3    s     0.195366    0.883665    0.275302    0.000000
   289  O2    s     0.563378    0.547742    0.984985    0.000000
   290  O3    s     0.395309    0.985263    0.326978    0.000000
   291  O2    s     0.957044    0.407343    0.654638    0.000000
   292  O2    s     0.376643    0.419448    0.483255    0.000000
   293  O2    s     0.539472    0.956940    0.817041    0.000000
   294  O2    s     0.999415    0.562363    0.145194    0.000000
   295  O2    s     0.526574    0.558735    0.343452    0.000000
   296  O2    s     0.997100    0.428208    0.006854    0.000000
   297  O2    s     0.396189    0.962550    0.676024    0.000000
   298  O2    s     0.422612    0.398662    0.844179    0.000000
   299  O2    s     0.939576    0.542179    0.513336    0.000000
   300  O2    s     0.554869    0.012569    0.181186    0.000000
   301  O3    s     0.543169    0.142150    0.251251    0.000000
   302  O2    s     0.817965    0.409063    0.585472    0.000000
   303  O2    s     0.562811    0.411530    0.915201    0.000000
   304  O2    s     0.402717    0.829056    0.745592    0.000000
   305  O2    s     0.128261    0.557934    0.076623    0.000000
   306  O2    s     0.383068    0.550523    0.411963    0.000000
   307  F     s     0.382069    0.896439    0.245745    0.000000
   308  F     s     0.068282    0.532561    0.581418    0.000000
   309  F     s     0.429235    0.536559    0.912073    0.000000
   310  F     s     0.528045    0.080544    0.746607    0.000000
   311  F     s     0.836138    0.424045    0.066970    0.000000
   312  F     s     0.512116    0.427115    0.413171    0.000000
--------------------------------------------------------------------------------

  Final Cartesian lattice vectors (Angstroms) :

       11.917739    0.007278   -0.011973
       -5.991354   10.394095    0.020756
       -0.317454   -0.111637   29.496495


  Final cell parameters and derivatives :

--------------------------------------------------------------------------------
       a           11.917747 Angstrom     dE/de1(xx)     0.000585 eV/strain
       b           11.997248 Angstrom     dE/de2(yy)     0.000556 eV/strain
       c           29.498415 Angstrom     dE/de3(zz)     0.001242 eV/strain
       alpha       89.780813 Degrees      dE/de4(yz)    -0.000008 eV/strain
       beta        90.674308 Degrees      dE/de5(xz)     0.000079 eV/strain
       gamma      119.925022 Degrees      dE/de6(xy)     0.000081 eV/strain
--------------------------------------------------------------------------------

  Primitive cell volume =          3655.118369 Angs**3

  Density of cell =      1.750447 g/cm**3

  Non-primitive cell volume =          3655.118369 Angs**3


  Final internal derivatives :

--------------------------------------------------------------------------------
   No.  Atomic          a             b             c           Radius
        Label          (eV)          (eV)          (eV)        (eV/Angs)
--------------------------------------------------------------------------------
      1 Ge    c       0.000000      0.000000      0.000000      0.000000
      2 Si    c       0.000015      0.000009      0.000026      0.000000
      3 Si    c      -0.000034     -0.000017      0.000131      0.000000
      4 Si    c      -0.000124     -0.000100     -0.000359      0.000000
      5 Si    c       0.000017     -0.000062     -0.000001      0.000000
      6 Si    c      -0.000041     -0.000033     -0.000423      0.000000
      7 Si    c       0.000026      0.000099      0.000154      0.000000
      8 Si    c      -0.000091      0.000006      0.000104      0.000000
      9 Si    c      -0.000089      0.000028      0.000553      0.000000
     10 Si    c      -0.000023     -0.000056     -0.000126      0.000000
     11 Si    c      -0.000057      0.000061     -0.000179      0.000000
     12 Si    c       0.000106     -0.000248      0.002269      0.000000
     13 Si    c      -0.000209     -0.000121      0.000249      0.000000
     14 Ge    c      -0.000019     -0.000051      0.000098      0.000000
     15 Si    c       0.000056      0.000061      0.000328      0.000000
     16 Si    c       0.000021     -0.000054      0.000080      0.000000
     17 Si    c      -0.000011      0.000002      0.000030      0.000000
     18 Si    c       0.000154     -0.000037      0.000492      0.000000
     19 Si    c       0.000033     -0.000037     -0.000023      0.000000
     20 Si    c       0.000008      0.000005     -0.000340      0.000000
     21 Si    c      -0.000005      0.000040      0.000030      0.000000
     22 Si    c      -0.000165      0.000099     -0.000108      0.000000
     23 Si    c       0.000071     -0.000024     -0.000581      0.000000
     24 Si    c      -0.000127     -0.000093     -0.000230      0.000000
     25 Si    c       0.000035      0.000036     -0.000081      0.000000
     26 Si    c      -0.000099      0.000077     -0.000243      0.000000
     27 Si    c      -0.000045     -0.000079     -0.000276      0.000000
     28 Si    c       0.000006     -0.000020     -0.000042      0.000000
     29 Si    c      -0.000003     -0.000015     -0.000091      0.000000
     30 Si    c       0.000146     -0.000233     -0.000568      0.000000
     31 Si    c      -0.000049      0.000064      0.000029      0.000000
     32 Si    c       0.000125     -0.000210      0.000319      0.000000
     33 Si    c      -0.000004      0.000002      0.000004      0.000000
     34 Si    c      -0.000091      0.000130     -0.000110      0.000000
     35 Si    c       0.000022      0.000084      0.000286      0.000000
     36 Si    c       0.000035     -0.000030      0.000315      0.000000
     37 Si    c       0.000032      0.000030     -0.000135      0.000000
     38 Si    c      -0.000012     -0.000012      0.000206      0.000000
     39 Si    c       0.000032     -0.000049      0.000366      0.000000
     40 Si    c       0.000082     -0.000028      0.000106      0.000000
     41 Si    c      -0.000005      0.000018      0.000052      0.000000
     42 Si    c      -0.000025      0.000139      0.000743      0.000000
     43 Si    c      -0.000034      0.000014     -0.000096      0.000000
     44 Si    c       0.000381      0.000020     -0.001610      0.000000
     45 Si    c      -0.000027      0.000014      0.000004      0.000000
     46 Si    c      -0.000030     -0.000010     -0.000198      0.000000
     47 Si    c      -0.000026      0.000035     -0.000433      0.000000
     48 Ge    c       0.000070      0.000056     -0.000353      0.000000
     49 Si    c       0.000059     -0.000005     -0.000039      0.000000
     50 Si    c      -0.000062      0.000088      0.000293      0.000000
     51 Si    c       0.000136     -0.000081      0.000509      0.000000
     52 Si    c       0.000061     -0.000039      0.000208      0.000000
     53 Si    c       0.000025     -0.000043      0.000211      0.000000
     54 Si    c      -0.000032      0.000039      0.000197      0.000000
     55 Si    c       0.000048     -0.000016     -0.000202      0.000000
     56 Si    c       0.000160     -0.000005     -0.000336      0.000000
     57 Si    c       0.000024      0.000009     -0.000024      0.000000
     58 Si    c       0.000060     -0.000063     -0.000202      0.000000
     59 Si    c      -0.000043      0.000177     -0.000487      0.000000
     60 Si    c       0.000082     -0.000019     -0.000085      0.000000
     61 O2    c      -0.000052     -0.000039      0.000259      0.000000
     62 O2    c      -0.000007     -0.000015     -0.000060      0.000000
     63 O2    c      -0.000009      0.000012      0.000014      0.000000
     64 O2    c      -0.000116     -0.000139     -0.000240      0.000000
     65 O2    c       0.000020      0.000007     -0.000014      0.000000
     66 O2    c       0.000061     -0.000029      0.000167      0.000000
     67 O2    c       0.000015     -0.000120      0.000013      0.000000
     68 O2    c       0.000104      0.000009      0.000037      0.000000
     69 O2    c       0.000017     -0.000018     -0.000028      0.000000
     70 O2    c       0.000067     -0.000033     -0.000032      0.000000
     71 O2    c      -0.000002      0.000224     -0.000357      0.000000
     72 O2    c       0.000055     -0.000076      0.000197      0.000000
     73 O3    c      -0.000443     -0.000195      0.000277      0.000000
     74 O2    c       0.000023      0.000069     -0.000095      0.000000
     75 O3    c       0.000036     -0.000025     -0.000009      0.000000
     76 O2    c      -0.000002      0.000023     -0.000054      0.000000
     77 O2    c      -0.000021      0.000066      0.000044      0.000000
     78 O2    c      -0.000023      0.000017     -0.000105      0.000000
     79 O2    c       0.000009     -0.000091      0.000090      0.000000
     80 O2    c       0.000015     -0.000020     -0.000047      0.000000
     81 O2    c      -0.000031      0.000080      0.000064      0.000000
     82 O2    c      -0.000091     -0.000020     -0.000025      0.000000
     83 O2    c       0.000034     -0.000037     -0.000012      0.000000
     84 O2    c       0.000056     -0.000029      0.000090      0.000000
     85 O2    c       0.000015      0.000019     -0.000007      0.000000
     86 O2    c      -0.000256      0.000246     -0.000092      0.000000
     87 O2    c       0.000039     -0.000021     -0.000052      0.000000
     88 O2    c       0.000032      0.000048     -0.000052      0.000000
     89 O2    c       0.000003     -0.000025     -0.000017      0.000000
     90 O3    c      -0.000124      0.000088      0.000026      0.000000
     91 O2    c      -0.000040      0.000016     -0.000249      0.000000
     92 O2    c      -0.000058     -0.000063      0.000108      0.000000
     93 O2    c       0.000053      0.000033      0.000129      0.000000
     94 O2    c      -0.000069      0.000047     -0.000271      0.000000
     95 O2    c       0.000042      0.000082      0.000248      0.000000
     96 O2    c      -0.000024      0.000057      0.000001      0.000000
     97 O2    c      -0.000047      0.000033      0.000109      0.000000
     98 O2    c      -0.000014     -0.000077     -0.000001      0.000000
     99 O2    c       0.000026     -0.000005     -0.000042      0.000000
    100 O2    c      -0.000020      0.000017     -0.000032      0.000000
    101 O2    c       0.000023      0.000066      0.000066      0.000000
    102 O2    c       0.000071     -0.000024     -0.000105      0.000000
    103 O2    c      -0.000022      0.000006      0.000057      0.000000
    104 O2    c       0.000048      0.000097      0.000270      0.000000
    105 O2    c       0.000012     -0.000019      0.000002      0.000000
    106 O2    c      -0.000053      0.000060     -0.000020      0.000000
    107 O2    c       0.000011      0.000006      0.000060      0.000000
    108 O2    c       0.000030      0.000179      0.000267      0.000000
    109 O2    c      -0.000005     -0.000031     -0.000028      0.000000
    110 O2    c       0.000161     -0.000002     -0.000194      0.000000
    111 O2    c      -0.000016      0.000010     -0.000048      0.000000
    112 O2    c      -0.000001      0.000011     -0.000042      0.000000
    113 O3    c      -0.001177     -0.000042     -0.001375      0.000000
    114 O2    c       0.000019     -0.000004      0.000032      0.000000
    115 O2    c       0.000145     -0.000074      0.000129      0.000000
    116 O3    c       0.000005     -0.000002     -0.000065      0.000000
    117 O2    c       0.000006     -0.000001     -0.000011      0.000000
    118 O2    c      -0.000052      0.000027      0.000048      0.000000
    119 O2    c       0.000003     -0.000011      0.000005      0.000000
    120 O2    c      -0.000010      0.000020     -0.000022      0.000000
    121 O2    c       0.000001      0.000004     -0.000019      0.000000
    122 O2    c      -0.000168      0.000224      0.000105      0.000000
    123 O2    c      -0.000007     -0.000010     -0.000070      0.000000
    124 O2    c      -0.000009      0.000021     -0.000043      0.000000
    125 O2    c      -0.000036      0.000030     -0.000007      0.000000
    126 O3    c      -0.000019     -0.000049      0.000177      0.000000
    127 O3    c      -0.000111      0.000005     -0.000167      0.000000
    128 O2    c       0.000017     -0.000021     -0.000014      0.000000
    129 O2    c       0.000015      0.000023     -0.000014      0.000000
    130 O2    c       0.000067     -0.000040     -0.000098      0.000000
    131 O2    c       0.000010     -0.000028      0.000017      0.000000
    132 O2    c      -0.000008      0.000026      0.000004      0.000000
    133 O2    c      -0.000004      0.000006     -0.000006      0.000000
    134 O2    c       0.000015      0.000015      0.000010      0.000000
    135 O2    c       0.000012      0.000022     -0.000059      0.000000
    136 O2    c      -0.000004      0.000011      0.000019      0.000000
    137 O2    c       0.000045     -0.000019      0.000092      0.000000
    138 O2    c       0.000035      0.000002      0.000215      0.000000
    139 O3    c       0.000296     -0.000395      0.000051      0.000000
    140 O2    c       0.000010     -0.000028     -0.000108      0.000000
    141 O2    c       0.000027     -0.000012     -0.000037      0.000000
    142 O2    c       0.000001      0.000016      0.000005      0.000000
    143 O2    c      -0.000006      0.000007     -0.000046      0.000000
    144 O3    c       0.000027     -0.000003     -0.000068      0.000000
    145 O2    c       0.000027      0.000004     -0.000033      0.000000
    146 O2    c      -0.000034      0.000045      0.000048      0.000000
    147 O2    c       0.000075     -0.000031     -0.000017      0.000000
    148 O2    c      -0.000021      0.000029      0.000080      0.000000
    149 O2    c       0.000019     -0.000000      0.000010      0.000000
    150 O2    c       0.000169     -0.000142      0.000124      0.000000
    151 O2    c      -0.000057     -0.000028      0.000115      0.000000
    152 O2    c       0.000088     -0.000049      0.000182      0.000000
    153 O2    c      -0.000043      0.000105     -0.000129      0.000000
    154 O2    c       0.000022      0.000017     -0.000037      0.000000
    155 O2    c      -0.000026      0.000013      0.000035      0.000000
    156 O2    c       0.000003     -0.000109     -0.000511      0.000000
    157 O2    c      -0.000005     -0.000009      0.000010      0.000000
    158 O2    c       0.000029      0.000100      0.002277      0.000000
    159 O2    c       0.000021     -0.000014      0.000016      0.000000
    160 O2    c       0.000003      0.000019      0.000158      0.000000
    161 O2    c       0.000051     -0.000102      0.000085      0.000000
    162 O3    c      -0.000212      0.000038     -0.000011      0.000000
    163 O2    c      -0.000089      0.000077     -0.000017      0.000000
    164 O3    c      -0.000009     -0.000009     -0.000052      0.000000
    165 O2    c       0.000015     -0.000011      0.000035      0.000000
    166 O2    c       0.000001     -0.000005      0.000007      0.000000
    167 O2    c      -0.000020     -0.000010     -0.000006      0.000000
    168 O2    c      -0.000095      0.000046     -0.000006      0.000000
    169 O2    c      -0.000040      0.000022     -0.000027      0.000000
    170 O2    c       0.000071      0.000058     -0.000046      0.000000
    171 O2    c      -0.000004     -0.000007     -0.000023      0.000000
    172 O2    c      -0.000004     -0.000007     -0.000017      0.000000
    173 O2    c      -0.000004     -0.000022      0.000011      0.000000
    174 O2    c       0.000005     -0.000034     -0.000014      0.000000
    175 O3    c      -0.000024      0.000127      0.000566      0.000000
    176 O2    c      -0.000127      0.000009      0.000225      0.000000
    177 O2    c       0.000011     -0.000077     -0.000270      0.000000
    178 O2    c      -0.000001     -0.000017     -0.000046      0.000000
    179 O2    c       0.000090      0.000021      0.000191      0.000000
    180 O2    c      -0.000021      0.000018     -0.000044      0.000000
    181 F     c       0.000055      0.000010     -0.000028      0.000000
    182 F     c      -0.000019     -0.000007     -0.000057      0.000000
    183 F     c       0.000005     -0.000035     -0.000005      0.000000
    184 F     c      -0.000007      0.000006     -0.000006      0.000000
    185 F     c       0.000419     -0.000090      0.000421      0.000000
    186 F     c       0.000016      0.000003      0.000031      0.000000
    187 O2    s       0.000041     -0.000145     -0.000221      0.000000
    188 O2    s       0.000010      0.000008      0.000049      0.000000
    189 O2    s      -0.000030      0.000023      0.000179      0.000000
    190 O2    s      -0.000076      0.000074     -0.000017      0.000000
    191 O2    s      -0.000034      0.000005      0.000040      0.000000
    192 O2    s       0.000018     -0.000106     -0.000105      0.000000
    193 O2    s      -0.000015      0.000022      0.000099      0.000000
    194 O2    s       0.000044     -0.000017      0.000011      0.000000
    195 O2    s       0.000011     -0.000006     -0.000078      0.000000
    196 O2    s      -0.000023      0.000027     -0.000007      0.000000
    197 O2    s       0.000047     -0.000197      0.000439      0.000000
    198 O2    s      -0.000018     -0.000002     -0.000029      0.000000
    199 O3    s       0.000364      0.000282     -0.000801      0.000000
    200 O2    s      -0.000020     -0.000005      0.000014      0.000000
    201 O3    s       0.000005     -0.000004      0.000011      0.000000
    202 O2    s       0.000036     -0.000000     -0.000043      0.000000
    203 O2    s       0.000014     -0.000066     -0.000038      0.000000
    204 O2    s       0.000001      0.000003      0.000058      0.000000
    205 O2    s      -0.000014      0.000044     -0.000107      0.000000
    206 O2    s      -0.000020      0.000039      0.000090      0.000000
    207 O2    s      -0.000007     -0.000038      0.000135      0.000000
    208 O2    s       0.000011      0.000037      0.000020      0.000000
    209 O2    s      -0.000004     -0.000048     -0.000029      0.000000
    210 O2    s      -0.000029      0.000003      0.000052      0.000000
    211 O2    s      -0.000006      0.000018     -0.000031      0.000000
    212 O2    s      -0.000119     -0.000090     -0.000086      0.000000
    213 O2    s      -0.000000     -0.000010      0.000002      0.000000
    214 O2    s      -0.000043     -0.000001      0.000168      0.000000
    215 O2    s      -0.000077      0.000030     -0.000021      0.000000
    216 O3    s      -0.000001     -0.000043      0.000136      0.000000
    217 O2    s       0.000044     -0.000041     -0.000161      0.000000
    218 O2    s       0.000056      0.000018      0.000063      0.000000
    219 O2    s      -0.000063     -0.000028      0.000028      0.000000
    220 O2    s      -0.000009     -0.000010      0.000020      0.000000
    221 O2    s       0.000020     -0.000201     -0.000365      0.000000
    222 O2    s       0.000032     -0.000038      0.000005      0.000000
    223 O2    s      -0.000060      0.000028      0.000067      0.000000
    224 O2    s       0.000017      0.000000     -0.000030      0.000000
    225 O2    s       0.000007      0.000032     -0.000006      0.000000
    226 O2    s       0.000023      0.000006     -0.000087      0.000000
    227 O2    s      -0.000028      0.000031     -0.000065      0.000000
    228 O2    s       0.000003      0.000010     -0.000144      0.000000
    229 O2    s      -0.000005     -0.000024      0.000055      0.000000
    230 O2    s       0.000085      0.000031      0.000136      0.000000
    231 O2    s       0.000004     -0.000007      0.000129      0.000000
    232 O2    s       0.000008     -0.000041      0.000011      0.000000
    233 O2    s       0.000099     -0.000035     -0.000089      0.000000
    234 O2    s      -0.000004     -0.000086     -0.000165      0.000000
    235 O2    s      -0.000014     -0.000009     -0.000219      0.000000
    236 O2    s      -0.000040     -0.000012      0.000005      0.000000
    237 O2    s       0.000033     -0.000002      0.000134      0.000000
    238 O2    s       0.000007      0.000003      0.000058      0.000000
    239 O3    s       0.001024      0.000104      0.000544      0.000000
    240 O2    s       0.000011     -0.000050     -0.000079      0.000000
    241 O2    s      -0.000036      0.000088      0.000135      0.000000
    242 O3    s       0.000005     -0.000006      0.000087      0.000000
    243 O2    s      -0.000039     -0.000002      0.000064      0.000000
    244 O2    s       0.000030     -0.000010     -0.000059      0.000000
    245 O2    s      -0.000002     -0.000010      0.000014      0.000000
    246 O2    s       0.000028      0.000053     -0.000031      0.000000
    247 O2    s      -0.000007      0.000010      0.000014      0.000000
    248 O2    s       0.000138     -0.000190     -0.000279      0.000000
    249 O2    s       0.000011     -0.000027      0.000030      0.000000
    250 O2    s       0.000057     -0.000006      0.000038      0.000000
    251 O2    s      -0.000017     -0.000020      0.000062      0.000000
    252 O3    s      -0.000009      0.000085     -0.000139      0.000000
    253 O3    s       0.000090     -0.000003      0.000019      0.000000
    254 O2    s       0.000009      0.000006     -0.000045      0.000000
    255 O2    s      -0.000018     -0.000011     -0.000012      0.000000
    256 O2    s      -0.000009      0.000041     -0.000007      0.000000
    257 O2    s      -0.000051      0.000046     -0.000161      0.000000
    258 O2    s       0.000017     -0.000034      0.000027      0.000000
    259 O2    s      -0.000032      0.000008      0.000099      0.000000
    260 O2    s      -0.000005     -0.000006     -0.000015      0.000000
    261 O2    s       0.000015     -0.000031      0.000059      0.000000
    262 O2    s       0.000011     -0.000002      0.000010      0.000000
    263 O2    s      -0.000026     -0.000017     -0.000037      0.000000
    264 O2    s      -0.000057      0.000218     -0.000689      0.000000
    265 O3    s      -0.000688      0.000184      0.000038      0.000000
    266 O2    s       0.000007      0.000015      0.000132      0.000000
    267 O2    s      -0.000007     -0.000017      0.000002      0.000000
    268 O2    s       0.000050     -0.000032     -0.000119      0.000000
    269 O2    s       0.000014      0.000026      0.000020      0.000000
    270 O3    s      -0.000092     -0.000004     -0.000106      0.000000
    271 O2    s       0.000041      0.000025      0.000054      0.000000
    272 O2    s      -0.000019      0.000050      0.000031      0.000000
    273 O2    s      -0.000043      0.000029      0.000075      0.000000
    274 O2    s       0.000052     -0.000040     -0.000066      0.000000
    275 O2    s      -0.000046      0.000050     -0.000003      0.000000
    276 O2    s      -0.000160      0.000022     -0.000010      0.000000
    277 O2    s       0.000028     -0.000045     -0.000073      0.000000
    278 O2    s      -0.000056      0.000004     -0.000046      0.000000
    279 O2    s      -0.000003     -0.000043      0.000033      0.000000
    280 O2    s      -0.000029      0.000001      0.000029      0.000000
    281 O2    s       0.000010     -0.000004     -0.000028      0.000000
    282 O2    s      -0.000087      0.000194     -0.000219      0.000000
    283 O2    s       0.000005     -0.000010      0.000004      0.000000
    284 O2    s      -0.000074     -0.000043     -0.000722      0.000000
    285 O2    s      -0.000024      0.000009      0.000021      0.000000
    286 O2    s       0.000046     -0.000020     -0.000086      0.000000
    287 O2    s      -0.000034      0.000042      0.000047      0.000000
    288 O3    s       0.000161      0.000004     -0.000134      0.000000
    289 O2    s       0.000145     -0.000107      0.000072      0.000000
    290 O3    s       0.000002      0.000024      0.000037      0.000000
    291 O2    s      -0.000047      0.000016      0.000049      0.000000
    292 O2    s       0.000001      0.000008     -0.000008      0.000000
    293 O2    s       0.000019     -0.000006      0.000011      0.000000
    294 O2    s      -0.000031     -0.000000     -0.000310      0.000000
    295 O2    s       0.000004     -0.000006      0.000007      0.000000
    296 O2    s      -0.000062     -0.000122      0.000049      0.000000
    297 O2    s       0.000018     -0.000007      0.000009      0.000000
    298 O2    s       0.000030     -0.000019     -0.000007      0.000000
    299 O2    s      -0.000051      0.000035     -0.000016      0.000000
    300 O2    s       0.000039      0.000029      0.000028      0.000000
    301 O3    s      -0.000001     -0.000078     -0.000206      0.000000
    302 O2    s       0.000063      0.000001      0.000039      0.000000
    303 O2    s       0.000127      0.000069      0.000390      0.000000
    304 O2    s       0.000011      0.000001      0.000049      0.000000
    305 O2    s      -0.000074     -0.000066      0.000089      0.000000
    306 O2    s       0.000010     -0.000005     -0.000063      0.000000
    307 F     s       0.000007     -0.000053      0.000199      0.000000
    308 F     s       0.000030      0.000017      0.000125      0.000000
    309 F     s       0.000004      0.000086      0.000087      0.000000
    310 F     s       0.000015     -0.000020      0.000019      0.000000
    311 F     s      -0.000026      0.000082      0.000663      0.000000
    312 F     s      -0.000028      0.000007     -0.000048      0.000000
--------------------------------------------------------------------------------
  Maximum abs         0.001177      0.000395      0.002277      0.000000
--------------------------------------------------------------------------------


  Time to end of optimisation =      10.3800 seconds


  Peak dynamic memory used =      19.13 MB 


  Timing analysis for GULP :

--------------------------------------------------------------------------------
  Task / Subroutine                                          Time (Seconds)
--------------------------------------------------------------------------------
  Calculation of reciprocal space energy and derivatives          0.3576
  Calculation of real space energy and derivatives                8.6941
  Calculation of three-body energy and derivatives                0.9796
  Calculation of matrix inversion                                 0.2641
--------------------------------------------------------------------------------
  Total CPU time                                                 10.3800
--------------------------------------------------------------------------------


  Dump file written as out.res                                                 
  CIF file written as out.cif                                                 


  Job Finished at 06:46.57  3rd December   2016                               

