********************************************************************************
*                       GENERAL UTILITY LATTICE PROGRAM                        *
*                                 Julian Gale                                  *
*                      Nanochemistry Research Institute                        *
*                           Department of Chemistry                            *
*                    Curtin University, Western Australia                      *
********************************************************************************
* Version = 4.2.0 * Last modified =  20th January 2014                         *
********************************************************************************
*  optimise     - perform optimisation run                                     *
*  conp         - constant pressure calculation                                *
*  qok          - running with non charge neutral cell is OK                   *
********************************************************************************

  Job Started  at 05:38.32  3rd December   2016                               

  Number of CPUs =     1


  Total number of configurations input =   1

********************************************************************************
*  Input for Configuration =   1                                               *
********************************************************************************

  Formula = Ge3Si57O120F6                                               

  Number of irreducible atoms/shells =     312


  Total number atoms/shells =     312

  Dimensionality = 3               :  Bulk   


  Charge on solid   =  -6.000000 =>neutralising background added


  Cartesian lattice vectors (Angstroms) :

       11.904741    0.000000    0.000000
       -6.016481   10.407411    0.000000
        0.162442   -0.171703   29.513602

  Cell parameters (Angstroms/Degrees):

  a =      11.9047    alpha =  90.4464
  b =      12.0213    beta  =  89.6847
  c =      29.5145    gamma = 120.0320

  Initial cell volume =        3656.662428 Angs**3

  Temperature of configuration =  0.000     K 

  Pressure of configuration =         0.000 GPa 

  Fractional coordinates of asymmetric unit :

--------------------------------------------------------------------------------
   No.  Atomic       x           y          z         Charge      Occupancy
        Label      (Frac)      (Frac)     (Frac)        (e)         (Frac)  
--------------------------------------------------------------------------------
      1 Ge    c    0.699600    0.375700    0.033890     4.00000    1.000000    
      2 Si    c    0.614792 *  0.321870 *  0.359936 *   4.00000    1.000000    
      3 Si    c    0.683035 *  0.311468 *  0.694327 *   4.00000    1.000000    
      4 Si    c    0.289640 *  0.620021 *  0.527154 *   4.00000    1.000000    
      5 Si    c    0.375976 *  0.676078 *  0.856117 *   4.00000    1.000000    
      6 Si    c    0.314601 *  0.701094 *  0.193346 *   4.00000    1.000000    
      7 Si    c    0.367650 *  0.694726 *  0.293522 *   4.00000    1.000000    
      8 Si    c    0.318342 *  0.619198 *  0.958036 *   4.00000    1.000000    
      9 Si    c    0.299468 *  0.680588 *  0.629238 *   4.00000    1.000000    
     10 Si    c    0.624513 *  0.307838 *  0.796802 *   4.00000    1.000000    
     11 Si    c    0.669851 *  0.379791 *  0.460043 *   4.00000    1.000000    
     12 Si    c    0.684212 *  0.317155 *  0.132042 *   4.00000    1.000000    
     13 Si    c    0.530536 *  0.409090 *  0.964130 *   4.00000    1.000000    
     14 Si    c    0.575121 *  0.105016 *  0.298934 *   4.00000    1.000000    
     15 Ge    c    0.902221 *  0.475944 *  0.627095 *   4.00000    1.000000    
     16 Si    c    0.458640 *  0.580289 *  0.459333 *   4.00000    1.000000    
     17 Si    c    0.419573 *  0.892463 *  0.793197 *   4.00000    1.000000    
     18 Si    c    0.106120 *  0.530406 *  0.126069 *   4.00000    1.000000    
     19 Si    c    0.407964 *  0.524953 *  0.357961 *   4.00000    1.000000    
     20 Si    c    0.102486 *  0.578935 *  0.023265 *   4.00000    1.000000    
     21 Si    c    0.472908 *  0.897355 *  0.692430 *   4.00000    1.000000    
     22 Ge    c    0.567802 *  0.471214 *  0.864671 *   4.00000    1.000000    
     23 Si    c    0.868833 *  0.409330 *  0.528215 *   4.00000    1.000000    
     24 Si    c    0.522986 *  0.108686 *  0.198163 *   4.00000    1.000000    
     25 Si    c    0.294939 *  0.393225 *  0.839357 *   4.00000    1.000000    
     26 Si    c    0.595217 *  0.902663 *  0.180240 *   4.00000    1.000000    
     27 Si    c    0.082391 *  0.695620 *  0.513969 *   4.00000    1.000000    
     28 Si    c    0.690809 *  0.597473 *  0.344590 *   4.00000    1.000000    
     29 Si    c    0.402790 *  0.105736 *  0.679708 *   4.00000    1.000000    
     30 Si    c    0.887952 *  0.291970 *  0.009540 *   4.00000    1.000000    
     31 Si    c    0.389039 *  0.302024 *  0.473895 *   4.00000    1.000000    
     32 Si    c    0.890308 *  0.601593 *  0.140403 *   4.00000    1.000000    
     33 Si    c    0.699855 *  0.102908 *  0.807987 *   4.00000    1.000000    
     34 Si    c    0.600508 *  0.695865 *  0.974359 *   4.00000    1.000000    
     35 Si    c    0.098846 *  0.398270 *  0.648375 *   4.00000    1.000000    
     36 Si    c    0.292153 *  0.895855 *  0.310726 *   4.00000    1.000000    
     37 Si    c    0.250265 *  0.335921 *  0.941996 *   4.00000    1.000000    
     38 Si    c    0.651196 *  0.904374 *  0.280701 *   4.00000    1.000000    
     39 Si    c    0.084144 *  0.754427 *  0.615932 *   4.00000    1.000000    
     40 Si    c    0.739989 *  0.658917 *  0.445063 *   4.00000    1.000000    
     41 Si    c    0.342713 *  0.093311 *  0.780162 *   4.00000    1.000000    
     42 Si    c    0.900319 *  0.248526 *  0.112240 *   4.00000    1.000000    
     43 Si    c    0.331357 *  0.247690 *  0.373489 *   4.00000    1.000000    
     44 Si    c    0.897958 *  0.659931 *  0.038045 *   4.00000    1.000000    
     45 Si    c    0.751236 *  0.098717 *  0.707401 *   4.00000    1.000000    
     46 Si    c    0.664348 *  0.749859 *  0.872542 *   4.00000    1.000000    
     47 Si    c    0.076370 *  0.335804 *  0.545458 *   4.00000    1.000000    
     48 Si    c    0.242278 *  0.908163 *  0.210520 *   4.00000    1.000000    
     49 Si    c    0.969993 *  0.120547 *  0.959635 *   4.00000    1.000000    
     50 Si    c    0.870697 *  0.844101 *  0.294690 *   4.00000    1.000000    
     51 Si    c    0.157361 *  0.038220 *  0.627716 *   4.00000    1.000000    
     52 Si    c    0.019410 *  0.877595 *  0.462024 *   4.00000    1.000000    
     53 Si    c    0.115788 *  0.145018 *  0.792980 *   4.00000    1.000000    
     54 Si    c    0.843086 *  0.971861 *  0.127726 *   4.00000    1.000000    
     55 Si    c    0.113317 *  0.966525 *  0.360737 *   4.00000    1.000000    
     56 Si    c    0.846669 *  0.882091 *  0.026008 *   4.00000    1.000000    
     57 Si    c    0.030164 *  0.150211 *  0.693130 *   4.00000    1.000000    
     58 Si    c    0.876552 *  0.032527 *  0.858785 *   4.00000    1.000000    
     59 Si    c    0.144065 *  0.121953 *  0.526936 *   4.00000    1.000000    
     60 Si    c    0.963474 *  0.850101 *  0.192934 *   4.00000    1.000000    
     61 O2    c    0.927494 *  0.003375 *  0.994035 *   0.87073    1.000000    
     62 O2    c    0.992197 *  0.923691 *  0.327533 *   0.87073    1.000000    
     63 O2    c    0.067018 *  0.072323 *  0.657784 *   0.87073    1.000000    
     64 O2    c    0.060712 *  0.999552 *  0.494472 *   0.87073    1.000000    
     65 O2    c    0.997474 *  0.065651 *  0.826797 *   0.87073    1.000000    
     66 O2    c    0.924824 *  0.931838 *  0.160258 *   0.87073    1.000000    
     67 O2    c    0.329897 *  0.571054 *  0.325122 *   0.87073    1.000000    
     68 O2    c    0.425299 *  0.771501 *  0.659354 *   0.87073    1.000000    
     69 O2    c    0.229083 *  0.652448 *  0.990870 *   0.87073    1.000000    
     70 O3    c    0.658411 *  0.423310 *  0.829528 *   1.33043    1.000000    
     71 O2    c    0.574943 *  0.239812 *  0.170065 *   0.87073    1.000000    
     72 O2    c    0.753861 *  0.338208 *  0.490871 *   0.87073    1.000000    
     73 O3    c    0.561300 *  0.335733 *  0.002082 *   1.33043    1.000000    
     74 O3    c    0.767036 *  0.430376 *  0.663190 *   1.33043    1.000000    
     75 O2    c    0.653771 *  0.232126 *  0.330177 *   0.87073    1.000000    
     76 O2    c    0.407854 *  0.655206 *  0.492243 *   0.87073    1.000000    
     77 O2    c    0.230707 *  0.581141 *  0.158872 *   0.87073    1.000000    
     78 O2    c    0.341835 *  0.764763 *  0.824959 *   0.87073    1.000000    
     79 O2    c    0.124432 *  0.213136 *  0.963910 *   0.87073    1.000000    
     80 O2    c    0.777396 *  0.904638 *  0.301029 *   0.87073    1.000000    
     81 O2    c    0.100480 *  0.887578 *  0.634389 *   0.87073    1.000000    
     82 O2    c    0.863855 *  0.786886 *  0.465647 *   0.87073    1.000000    
     83 O2    c    0.214738 *  0.092091 *  0.800427 *   0.87073    1.000000    
     84 O2    c    0.904503 *  0.125803 *  0.132808 *   0.87073    1.000000    
     85 O2    c    0.205104 *  0.119721 *  0.353979 *   0.87073    1.000000    
     86 O2    c    0.916507 *  0.797304 *  0.021828 *   0.87073    1.000000    
     87 O2    c    0.878093 *  0.099653 *  0.686202 *   0.87073    1.000000    
     88 O2    c    0.782365 *  0.881259 *  0.853272 *   0.87073    1.000000    
     89 O2    c    0.079683 *  0.212379 *  0.524287 *   0.87073    1.000000    
     90 O2    c    0.118683 *  0.912279 *  0.189662 *   0.87073    1.000000    
     91 O2    c    0.920862 *  0.859454 *  0.243546 *   0.87073    1.000000    
     92 O2    c    0.142194 *  0.070685 *  0.576397 *   0.87073    1.000000    
     93 O2    c    0.928590 *  0.065919 *  0.909726 *   0.87073    1.000000    
     94 O2    c    0.059938 *  0.119587 *  0.742611 *   0.87073    1.000000    
     95 O2    c    0.853461 *  0.932472 *  0.076931 *   0.87073    1.000000    
     96 O2    c    0.062079 *  0.930269 *  0.411581 *   0.87073    1.000000    
     97 O2    c    0.899750 *  0.200933 *  0.971904 *   0.87073    1.000000    
     98 O2    c    0.790217 *  0.692793 *  0.306142 *   0.87073    1.000000    
     99 O2    c    0.308362 *  0.113105 *  0.641186 *   0.87073    1.000000    
    100 O2    c    0.084901 *  0.792531 *  0.475215 *   0.87073    1.000000    
    101 O2    c    0.185189 *  0.297545 *  0.803305 *   0.87073    1.000000    
    102 O2    c    0.691488 *  0.901823 *  0.141255 *   0.87073    1.000000    
    103 O2    c    0.193919 *  0.894487 *  0.349378 *   0.87073    1.000000    
    104 O2    c    0.694866 *  0.795652 *  0.013130 *   0.87073    1.000000    
    105 O2    c    0.115204 *  0.303315 *  0.683500 *   0.87073    1.000000    
    106 O2    c    0.799966 *  0.106797 *  0.846464 *   0.87073    1.000000    
    107 O2    c    0.294010 *  0.204727 *  0.512159 *   0.87073    1.000000    
    108 O2    c    0.894685 *  0.700252 *  0.179058 *   0.87073    1.000000    
    109 O2    c    0.312272 *  0.639877 *  0.242731 *   0.87073    1.000000    
    110 O2    c    0.345199 *  0.675923 *  0.577190 *   0.87073    1.000000    
    111 O2    c    0.320933 *  0.671484 *  0.907464 *   0.87073    1.000000    
    112 O2    c    0.678124 *  0.358376 *  0.745776 *   0.87073    1.000000    
    113 O3    c    0.612982 *  0.302431 *  0.085338 *   1.33043    1.000000    
    114 O2    c    0.670547 *  0.323184 *  0.409969 *   0.87073    1.000000    
    115 O2    c    0.370934 *  0.325859 *  0.960501 *   0.87073    1.000000    
    116 O2    c    0.661888 *  0.035334 *  0.300602 *   0.87073    1.000000    
    117 O3    c    0.953799 *  0.642903 *  0.635878 *   1.33043    1.000000    
    118 O2    c    0.615394 *  0.667665 *  0.462814 *   0.87073    1.000000    
    119 O2    c    0.330209 *  0.959202 *  0.797606 *   0.87073    1.000000    
    120 O2    c    0.034249 *  0.375123 *  0.127716 *   0.87073    1.000000    
    121 O2    c    0.320456 *  0.368992 *  0.355158 *   0.87073    1.000000    
    122 O2    c    0.031812 *  0.663609 *  0.021969 *   0.87073    1.000000    
    123 O2    c    0.629726 *  0.965211 *  0.688387 *   0.87073    1.000000    
    124 O3    c    0.683323 *  0.637540 *  0.853993 *   1.33043    1.000000    
    125 O2    c    0.944072 *  0.326019 *  0.527061 *   0.87073    1.000000    
    126 O2    c    0.366373 *  0.039798 *  0.193155 *   0.87073    1.000000    
    127 O3    c    0.753986 *  0.284703 *  0.001167 *   1.33043    1.000000    
    128 O2    c    0.690710 *  0.463583 *  0.336942 *   0.87073    1.000000    
    129 O2    c    0.536661 *  0.238228 *  0.672966 *   0.87073    1.000000    
    130 O2    c    0.215294 *  0.691059 *  0.507607 *   0.87073    1.000000    
    131 O2    c    0.300752 *  0.531650 *  0.835421 *   0.87073    1.000000    
    132 O2    c    0.459071 *  0.770919 *  0.171272 *   0.87073    1.000000    
    133 O2    c    0.290744 *  0.761170 *  0.316329 *   0.87073    1.000000    
    134 O2    c    0.463422 *  0.694285 *  0.978755 *   0.87073    1.000000    
    135 O2    c    0.233442 *  0.536699 *  0.649816 *   0.87073    1.000000    
    136 O2    c    0.697941 *  0.233903 *  0.816479 *   0.87073    1.000000    
    137 O2    c    0.525388 *  0.306851 *  0.482052 *   0.87073    1.000000    
    138 O2    c    0.758671 *  0.467293 *  0.149490 *   0.87073    1.000000    
    139 O3    c    0.771495 *  0.545537 *  0.017721 *   1.33043    1.000000    
    140 O2    c    0.458094 *  0.247833 *  0.353764 *   0.87073    1.000000    
    141 O2    c    0.751818 *  0.223577 *  0.688537 *   0.87073    1.000000    
    142 O2    c    0.199191 *  0.465983 *  0.526712 *   0.87073    1.000000    
    143 O2    c    0.531078 *  0.741058 *  0.854810 *   0.87073    1.000000    
    144 O2    c    0.237878 *  0.780704 *  0.190124 *   0.87073    1.000000    
    145 O2    c    0.524249 *  0.777212 *  0.298759 *   0.87073    1.000000    
    146 O2    c    0.255248 *  0.465773 *  0.960123 *   0.87073    1.000000    
    147 O2    c    0.208545 *  0.743981 *  0.632371 *   0.87073    1.000000    
    148 O2    c    0.467022 *  0.216557 *  0.800812 *   0.87073    1.000000    
    149 O2    c    0.743059 *  0.535642 *  0.464705 *   0.87073    1.000000    
    150 O2    c    0.778828 *  0.254587 *  0.133317 *   0.87073    1.000000    
    151 O2    c    0.232070 *  0.323305 *  0.887952 *   0.87073    1.000000    
    152 O2    c    0.669256 *  0.904514 *  0.226338 *   0.87073    1.000000    
    153 O2    c    0.081499 *  0.763911 *  0.560785 *   0.87073    1.000000    
    154 O2    c    0.760880 *  0.674273 *  0.390773 *   0.87073    1.000000    
    155 O2    c    0.325009 *  0.097372 *  0.725936 *   0.87073    1.000000    
    156 O2    c    0.893581 *  0.230367 *  0.058164 *   0.87073    1.000000    
    157 O2    c    0.315069 *  0.230008 *  0.427654 *   0.87073    1.000000    
    158 O2    c    0.891980 *  0.668611 *  0.093390 *   0.87073    1.000000    
    159 O2    c    0.771618 *  0.099121 *  0.761604 *   0.87073    1.000000    
    160 O2    c    0.673837 *  0.761569 *  0.927801 *   0.87073    1.000000    
    161 O2    c    0.081966 *  0.325161 *  0.599437 *   0.87073    1.000000    
    162 O2    c    0.222584 *  0.904437 *  0.264817 *   0.87073    1.000000    
    163 O2    c    0.576994 *  0.554974 *  0.983299 *   0.87073    1.000000    
    164 O2    c    0.432774 *  0.018400 *  0.321465 *   0.87073    1.000000    
    165 O3    c    0.975995 *  0.407436 *  0.661961 *   1.33043    1.000000    
    166 O2    c    0.398598 *  0.439565 *  0.482019 *   0.87073    1.000000    
    167 O2    c    0.561428 *  0.973740 *  0.816826 *   0.87073    1.000000    
    168 O2    c    0.013993 *  0.581990 *  0.145716 *   0.87073    1.000000    
    169 O2    c    0.550685 *  0.583129 *  0.335089 *   0.87073    1.000000    
    170 O2    c    0.012916 *  0.435921 *  0.003526 *   0.87073    1.000000    
    171 O2    c    0.411913 *  0.977686 *  0.669051 *   0.87073    1.000000    
    172 O3    c    0.426631 *  0.398656 *  0.828208 *   1.33043    1.000000    
    173 O2    c    0.960093 *  0.554007 *  0.507386 *   0.87073    1.000000    
    174 O2    c    0.583515 *  0.029449 *  0.173035 *   0.87073    1.000000    
    175 O2    c    0.574074 *  0.158392 *  0.248957 *   0.87073    1.000000    
    176 O3    c    0.806955 *  0.403076 *  0.576177 *   1.33043    1.000000    
    177 O3    c    0.590940 *  0.406002 *  0.916146 *   1.33043    1.000000    
    178 O2    c    0.416807 *  0.836663 *  0.742364 *   0.87073    1.000000    
    179 O2    c    0.151811 *  0.578280 *  0.074630 *   0.87073    1.000000    
    180 O2    c    0.406667 *  0.580433 *  0.408448 *   0.87073    1.000000    
    181 F     c    0.442068 *  0.898557 *  0.244813 *   0.56000    1.000000    
    182 F     c    0.046647 *  0.528054 *  0.588520 *   0.56000    1.000000    
    183 F     c    0.472705 *  0.526573 *  0.900000 *   0.56000    1.000000    
    184 F     c    0.543424 *  0.088292 *  0.743237 *   0.56000    1.000000    
    185 F     c    0.851725 *  0.434993 *  0.068765 *   0.56000    1.000000    
    186 F     c    0.539349 *  0.451657 *  0.408643 *   0.56000    1.000000    
    187 O2    s    0.923046 *  0.002610 *  0.993863 *  -2.87073    1.000000    
    188 O2    s    0.992055 *  0.919525 *  0.327558 *  -2.87073    1.000000    
    189 O2    s    0.073213 *  0.077293 *  0.658346 *  -2.87073    1.000000    
    190 O2    s    0.065134 *  0.999273 *  0.494394 *  -2.87073    1.000000    
    191 O2    s    0.997118 *  0.070924 *  0.826612 *  -2.87073    1.000000    
    192 O2    s    0.920159 *  0.927237 *  0.160300 *  -2.87073    1.000000    
    193 O2    s    0.341720 *  0.579121 *  0.325191 *  -2.87073    1.000000    
    194 O2    s    0.416378 *  0.773950 *  0.659321 *  -2.87073    1.000000    
    195 O2    s    0.225174 *  0.641413 *  0.990835 *  -2.87073    1.000000    
    196 O3    s    0.648469 *  0.413845 *  0.828322 *  -3.33043    1.000000    
    197 O2    s    0.580926 *  0.233965 *  0.169050 *  -2.87073    1.000000    
    198 O2    s    0.756546 *  0.349830 *  0.491345 *  -2.87073    1.000000    
    199 O3    s    0.568658 *  0.346329 *  0.000596 *  -3.33043    1.000000    
    200 O3    s    0.767494 *  0.420750 *  0.664000 *  -3.33043    1.000000    
    201 O2    s    0.641548 *  0.228081 *  0.329976 *  -2.87073    1.000000    
    202 O2    s    0.400612 *  0.643874 *  0.492556 *  -2.87073    1.000000    
    203 O2    s    0.225986 *  0.587835 *  0.158884 *  -2.87073    1.000000    
    204 O2    s    0.353065 *  0.767814 *  0.825180 *  -2.87073    1.000000    
    205 O2    s    0.120693 *  0.215807 *  0.961206 *  -2.87073    1.000000    
    206 O2    s    0.774125 *  0.898127 *  0.298250 *  -2.87073    1.000000    
    207 O2    s    0.105112 *  0.889848 *  0.631623 *  -2.87073    1.000000    
    208 O2    s    0.867556 *  0.783281 *  0.463165 *  -2.87073    1.000000    
    209 O2    s    0.217192 *  0.097909 *  0.797586 *  -2.87073    1.000000    
    210 O2    s    0.897687 *  0.122422 *  0.130186 *  -2.87073    1.000000    
    211 O2    s    0.208425 *  0.116756 *  0.356680 *  -2.87073    1.000000    
    212 O2    s    0.907120 *  0.792487 *  0.023903 *  -2.87073    1.000000    
    213 O2    s    0.881574 *  0.105057 *  0.689091 *  -2.87073    1.000000    
    214 O2    s    0.780035 *  0.883967 *  0.855996 *  -2.87073    1.000000    
    215 O2    s    0.086140 *  0.215516 *  0.526726 *  -2.87073    1.000000    
    216 O2    s    0.114866 *  0.905169 *  0.192156 *  -2.87073    1.000000    
    217 O2    s    0.920056 *  0.856692 *  0.243572 *  -2.87073    1.000000    
    218 O2    s    0.144097 *  0.073090 *  0.576309 *  -2.87073    1.000000    
    219 O2    s    0.927619 *  0.068564 *  0.909878 *  -2.87073    1.000000    
    220 O2    s    0.062885 *  0.125968 *  0.742676 *  -2.87073    1.000000    
    221 O2    s    0.851567 *  0.931473 *  0.077141 *  -2.87073    1.000000    
    222 O2    s    0.063103 *  0.928502 *  0.411459 *  -2.87073    1.000000    
    223 O2    s    0.906253 *  0.201870 *  0.974634 *  -2.87073    1.000000    
    224 O2    s    0.788697 *  0.699198 *  0.308824 *  -2.87073    1.000000    
    225 O2    s    0.301239 *  0.104246 *  0.643501 *  -2.87073    1.000000    
    226 O2    s    0.077763 *  0.791670 *  0.477746 *  -2.87073    1.000000    
    227 O2    s    0.188935 *  0.291280 *  0.805845 *  -2.87073    1.000000    
    228 O2    s    0.697718 *  0.909366 *  0.143836 *  -2.87073    1.000000    
    229 O2    s    0.195484 *  0.902234 *  0.346605 *  -2.87073    1.000000    
    230 O2    s    0.701311 *  0.794701 *  0.010582 *  -2.87073    1.000000    
    231 O2    s    0.104932 *  0.297159 *  0.680980 *  -2.87073    1.000000    
    232 O2    s    0.798329 *  0.098351 *  0.843998 *  -2.87073    1.000000    
    233 O2    s    0.287860 *  0.206102 *  0.509687 *  -2.87073    1.000000    
    234 O2    s    0.901564 *  0.706030 *  0.176530 *  -2.87073    1.000000    
    235 O2    s    0.318055 *  0.651602 *  0.242794 *  -2.87073    1.000000    
    236 O2    s    0.334857 *  0.670498 *  0.577082 *  -2.87073    1.000000    
    237 O2    s    0.326037 *  0.666445 *  0.907715 *  -2.87073    1.000000    
    238 O2    s    0.673194 *  0.348444 *  0.745659 *  -2.87073    1.000000    
    239 O3    s    0.626282 *  0.308867 *  0.086776 *  -3.33043    1.000000    
    240 O2    s    0.664555 *  0.329012 *  0.409884 *  -2.87073    1.000000    
    241 O2    s    0.372684 *  0.334949 *  0.958757 *  -2.87073    1.000000    
    242 O2    s    0.651767 *  0.028794 *  0.298337 *  -2.87073    1.000000    
    243 O3    s    0.964501 *  0.643842 *  0.633092 *  -3.33043    1.000000    
    244 O2    s    0.612072 *  0.657647 *  0.460586 *  -2.87073    1.000000    
    245 O2    s    0.340669 *  0.965939 *  0.795369 *  -2.87073    1.000000    
    246 O2    s    0.027953 *  0.378274 *  0.125954 *  -2.87073    1.000000    
    247 O2    s    0.330518 *  0.372336 *  0.357358 *  -2.87073    1.000000    
    248 O2    s    0.026165 *  0.654194 *  0.023694 *  -2.87073    1.000000    
    249 O2    s    0.625898 *  0.971821 *  0.690761 *  -2.87073    1.000000    
    250 O3    s    0.673569 *  0.638746 *  0.856744 *  -3.33043    1.000000    
    251 O2    s    0.950789 *  0.335127 *  0.529127 *  -2.87073    1.000000    
    252 O2    s    0.369366 *  0.032869 *  0.195527 *  -2.87073    1.000000    
    253 O3    s    0.764770 *  0.291539 *  0.004317 *  -3.33043    1.000000    
    254 O2    s    0.682938 *  0.463008 *  0.340115 *  -2.87073    1.000000    
    255 O2    s    0.536441 *  0.230900 *  0.675855 *  -2.87073    1.000000    
    256 O2    s    0.209245 *  0.684077 *  0.510317 *  -2.87073    1.000000    
    257 O2    s    0.308025 *  0.532955 *  0.837997 *  -2.87073    1.000000    
    258 O2    s    0.458294 *  0.777423 *  0.174525 *  -2.87073    1.000000    
    259 O2    s    0.298769 *  0.768485 *  0.313362 *  -2.87073    1.000000    
    260 O2    s    0.462129 *  0.686594 *  0.976138 *  -2.87073    1.000000    
    261 O2    s    0.226817 *  0.537753 *  0.647513 *  -2.87073    1.000000    
    262 O2    s    0.690908 *  0.226713 *  0.813576 *  -2.87073    1.000000    
    263 O2    s    0.525775 *  0.313945 *  0.478860 *  -2.87073    1.000000    
    264 O2    s    0.765458 *  0.467009 *  0.146787 *  -2.87073    1.000000    
    265 O3    s    0.781375 *  0.548074 *  0.020894 *  -3.33043    1.000000    
    266 O2    s    0.460643 *  0.255561 *  0.356480 *  -2.87073    1.000000    
    267 O2    s    0.744717 *  0.218233 *  0.691171 *  -2.87073    1.000000    
    268 O2    s    0.195804 *  0.468736 *  0.528739 *  -2.87073    1.000000    
    269 O2    s    0.527734 *  0.734630 *  0.856786 *  -2.87073    1.000000    
    270 O2    s    0.246402 *  0.785988 *  0.192610 *  -2.87073    1.000000    
    271 O2    s    0.521622 *  0.782494 *  0.296268 *  -2.87073    1.000000    
    272 O2    s    0.261587 *  0.468821 *  0.958020 *  -2.87073    1.000000    
    273 O2    s    0.205405 *  0.737933 *  0.630336 *  -2.87073    1.000000    
    274 O2    s    0.468805 *  0.211630 *  0.798122 *  -2.87073    1.000000    
    275 O2    s    0.735093 *  0.532937 *  0.462129 *  -2.87073    1.000000    
    276 O2    s    0.782891 *  0.260253 *  0.130879 *  -2.87073    1.000000    
    277 O2    s    0.240153 *  0.331452 *  0.889130 *  -2.87073    1.000000    
    278 O2    s    0.659581 *  0.904299 *  0.227234 *  -2.87073    1.000000    
    279 O2    s    0.081819 *  0.755478 *  0.561137 *  -2.87073    1.000000    
    280 O2    s    0.751368 *  0.664649 *  0.391667 *  -2.87073    1.000000    
    281 O2    s    0.334924 *  0.097770 *  0.726767 *  -2.87073    1.000000    
    282 O2    s    0.893746 *  0.238433 *  0.059247 *  -2.87073    1.000000    
    283 O2    s    0.324592 *  0.239490 *  0.426691 *  -2.87073    1.000000    
    284 O2    s    0.892305 *  0.660355 *  0.093116 *  -2.87073    1.000000    
    285 O2    s    0.762051 *  0.099426 *  0.760738 *  -2.87073    1.000000    
    286 O2    s    0.665011 *  0.753321 *  0.927357 *  -2.87073    1.000000    
    287 O2    s    0.082932 *  0.333383 *  0.598225 *  -2.87073    1.000000    
    288 O2    s    0.231866 *  0.903935 *  0.263824 *  -2.87073    1.000000    
    289 O2    s    0.574989 *  0.556929 *  0.980432 *  -2.87073    1.000000    
    290 O2    s    0.432591 *  0.014143 *  0.317958 *  -2.87073    1.000000    
    291 O3    s    0.984747 *  0.411236 *  0.658170 *  -3.33043    1.000000    
    292 O2    s    0.404001 *  0.439713 *  0.478758 *  -2.87073    1.000000    
    293 O2    s    0.561162 *  0.978876 *  0.813465 *  -2.87073    1.000000    
    294 O2    s    0.010552 *  0.578404 *  0.143028 *  -2.87073    1.000000    
    295 O2    s    0.550812 *  0.578413 *  0.338498 *  -2.87073    1.000000    
    296 O2    s    0.009897 *  0.436931 *  0.006288 *  -2.87073    1.000000    
    297 O2    s    0.417318 *  0.982840 *  0.672548 *  -2.87073    1.000000    
    298 O3    s    0.421427 *  0.403009 *  0.831787 *  -3.33043    1.000000    
    299 O2    s    0.964818 *  0.555542 *  0.510154 *  -2.87073    1.000000    
    300 O2    s    0.578377 *  0.023877 *  0.176382 *  -2.87073    1.000000    
    301 O2    s    0.568625 *  0.147225 *  0.248859 *  -2.87073    1.000000    
    302 O3    s    0.819674 *  0.408383 *  0.574270 *  -3.33043    1.000000    
    303 O3    s    0.583285 *  0.410733 *  0.917582 *  -3.33043    1.000000    
    304 O2    s    0.422776 *  0.848507 *  0.742464 *  -2.87073    1.000000    
    305 O2    s    0.142043 *  0.573317 *  0.074815 *  -2.87073    1.000000    
    306 O2    s    0.412137 *  0.574743 *  0.408541 *  -2.87073    1.000000    
    307 F     s    0.441747 *  0.898150 *  0.244715 *  -1.56000    1.000000    
    308 F     s    0.036814 *  0.524294 *  0.590998 *  -1.56000    1.000000    
    309 F     s    0.478880 *  0.522749 *  0.897600 *  -1.56000    1.000000    
    310 F     s    0.542739 *  0.086840 *  0.743146 *  -1.56000    1.000000    
    311 F     s    0.841414 *  0.430993 *  0.066558 *  -1.56000    1.000000    
    312 F     s    0.539518 *  0.451606 *  0.408566 *  -1.56000    1.000000    
--------------------------------------------------------------------------------



********************************************************************************
*  General input information                                                   *
********************************************************************************

  Species output for all configurations : 

--------------------------------------------------------------------------------
  Species    Type    Atomic    Atomic    Charge       Radii (Angs)     Library
                     Number     Mass       (e)     Cova   Ionic  VDW   Symbol
--------------------------------------------------------------------------------
    Si       Core       14      28.09   4.000000   1.200  0.000  2.100          
    O1       Core        8      16.00   1.733957   0.730  0.000  1.360          
    O1       Shell       8       0.00  -3.733957   0.730  0.000  1.360          
    O2       Core        8      16.00   0.870733   0.730  0.000  1.360          
    O2       Shell       8       0.00  -2.870733   0.730  0.000  1.360          
    O3       Core        8      16.00   1.330431   0.730  0.000  1.360          
    O3       Shell       8       0.00  -3.330431   0.730  0.000  1.360          
    F        Core        9      19.00   0.560000   0.710  0.000  1.300          
    F        Shell       9       0.00  -1.560000   0.710  0.000  1.300          
    Ge       Core       32      72.61   4.000000   1.170  0.000  1.750          
--------------------------------------------------------------------------------


  Lattice summation method               =    Ewald          (3-D)
                                         =    Parry          (2-D)
                                         =    Saunders et al (1-D)
  Accuracy factor for lattice sums       =   12.000


  Time limit = Infinity

  Maximum range for interatomic potentials =        16.000000 Angstroms

  Taper potentials to zero over   1.0000 Angstroms using polynomial

  General interatomic potentials :

--------------------------------------------------------------------------------
Atom  Types   Potential         A         B         C         D     Cutoffs(Ang)
  1     2                                                            Min    Max 
--------------------------------------------------------------------------------
Si   c O1   s Buckingham    0.132E+04 0.318      10.1      0.00     0.000 16.000
Si   c O2   s Buckingham    0.132E+04 0.318      10.1      0.00     0.000 16.000
Si   c O3   s Buckingham    0.132E+04 0.318      10.1      0.00     0.000 16.000
Ge   c O1   s Buckingham    0.150E+04 0.326      16.8      0.00     0.000 16.000
Ge   c O2   s Buckingham    0.150E+04 0.326      16.8      0.00     0.000 16.000
Ge   c O3   s Buckingham    0.150E+04 0.326      16.8      0.00     0.000 16.000
O1   s O1   s Buckingham    0.228E+05 0.149      10.9      0.00     0.000 16.000
O1   s O2   s Buckingham    0.228E+05 0.149      10.9      0.00     0.000 16.000
O1   s O3   s Buckingham    0.228E+05 0.149      10.9      0.00     0.000 16.000
O2   s O2   s Buckingham    0.228E+05 0.149      10.9      0.00     0.000 16.000
O2   s O3   s Buckingham    0.228E+05 0.149      10.9      0.00     0.000 16.000
O3   s O3   s Buckingham    0.228E+05 0.149      10.9      0.00     0.000 16.000
Si   c F    s Buckingham     977.     0.282      0.00      0.00     0.000 16.000
Ge   c F    s Buckingham     681.     0.320      0.00      0.00     0.000 16.000
F    s F    s Buckingham     540.     0.262      0.00      0.00     0.000 16.000
O1   s F    s Buckingham    0.168E+04 0.268      0.00      0.00     0.000 16.000
O2   s F    s Buckingham    0.168E+04 0.268      0.00      0.00     0.000 16.000
O3   s F    s Buckingham    0.168E+04 0.268      0.00      0.00     0.000 16.000
O2   c O2   s Spring (c-s)   76.0      0.00      0.00      0.00     0.000  0.800
O3   c O3   s Spring (c-s)   128.      0.00      0.00      0.00     0.000  0.800
O1   c O1   s Spring (c-s)   180.      0.00      0.00      0.00     0.000  0.800
F    c F    s Spring (c-s)   33.5      0.00      0.00      0.00     0.000  0.800
--------------------------------------------------------------------------------

  General Three-body potentials :

  Harmonic form:

--------------------------------------------------------------------------------
Atom    Atom    Atom           Force Constants            Theta     Cutoffs  
  1       2       3     (eVrad**-2/eVrad**-3/eVrad**-4)   (deg)  1-2  1-3  2-3
--------------------------------------------------------------------------------
Si    c O1    s O1    s  1.261        0.0000    0.0000   109.470 0.00 0.00 0.00
                                                                 1.90 1.90 3.50
Si    c O1    s O2    s  1.261        0.0000    0.0000   109.470 0.00 0.00 0.00
                                                                 1.90 1.90 3.50
Si    c O2    s O2    s  1.261        0.0000    0.0000   109.470 0.00 0.00 0.00
                                                                 1.90 1.90 3.50
--------------------------------------------------------------------------------

********************************************************************************
*  Output for configuration   1                                                *
********************************************************************************


  Components of energy : 

--------------------------------------------------------------------------------
  Interatomic potentials     =        2067.32364453 eV
  Three-body potentials      =           0.45924797 eV
  Monopole - monopole (real) =       -6617.45608677 eV
  Monopole - monopole (recip)=       -3171.37820438 eV
  Monopole - monopole (total)=       -9788.83429115 eV
  Neutralising energy        =          -6.46011608 eV
--------------------------------------------------------------------------------
  Total lattice energy       =       -7727.51151473 eV
--------------------------------------------------------------------------------
  Total lattice energy       =         -745586.7353 kJ/(mole unit cells)
--------------------------------------------------------------------------------


  Number of variables =      939

  Maximum number of calculations  =          1000
  Maximum Hessian update interval =            10
  Maximum step size               =   1.000000000
  Maximum parameter tolerance     =   0.000010000
  Maximum function  tolerance     =   0.000010000
  Maximum gradient  tolerance     =   0.001000000
  Maximum gradient  component     =   0.010000000

  Symmetry not applied to optimisation

  Cell parameters to be optimised using strains

  Newton-Raphson optimiser to be used

  BFGS hessian update to be used

  Dumpfile to be written after every cycle

  Start of bulk optimisation :

  Cycle:      0 Energy:     -7727.511515  Gnorm:      0.007984  CPU:    1.063
  ** Hessian calculated **
  Cycle:      1 Energy:     -7727.511665  Gnorm:      0.001923  CPU:    2.635
  Cycle:      2 Energy:     -7727.511727  Gnorm:      0.002960  CPU:    4.014
  Cycle:      3 Energy:     -7727.512041  Gnorm:      0.006929  CPU:    6.053
  Cycle:      4 Energy:     -7727.512744  Gnorm:      0.006570  CPU:    8.092
  Cycle:      5 Energy:     -7727.513801  Gnorm:      0.005429  CPU:   10.130
  Cycle:      6 Energy:     -7727.515047  Gnorm:      0.005721  CPU:   12.261
  Cycle:      7 Energy:     -7727.516121  Gnorm:      0.006664  CPU:   13.969
  Cycle:      8 Energy:     -7727.516992  Gnorm:      0.008484  CPU:   15.677
  Cycle:      9 Energy:     -7727.517927  Gnorm:      0.009590  CPU:   17.056
  Cycle:     10 Energy:     -7727.518856  Gnorm:      0.008271  CPU:   18.434
  ** Hessian calculated **
  Cycle:     11 Energy:     -7727.519260  Gnorm:      0.004717  CPU:   20.665
  Cycle:     12 Energy:     -7727.519611  Gnorm:      0.006529  CPU:   22.044
  Cycle:     13 Energy:     -7727.520193  Gnorm:      0.006282  CPU:   23.422
  Cycle:     14 Energy:     -7727.520643  Gnorm:      0.005845  CPU:   24.800
  Cycle:     15 Energy:     -7727.521026  Gnorm:      0.005329  CPU:   26.178
  Cycle:     16 Energy:     -7727.521319  Gnorm:      0.004667  CPU:   27.557
  Cycle:     17 Energy:     -7727.521496  Gnorm:      0.003692  CPU:   28.935
  Cycle:     18 Energy:     -7727.521634  Gnorm:      0.003410  CPU:   30.313
  Cycle:     19 Energy:     -7727.521782  Gnorm:      0.004042  CPU:   31.692
  Cycle:     20 Energy:     -7727.521920  Gnorm:      0.003759  CPU:   33.070
  ** Hessian calculated **
  Cycle:     21 Energy:     -7727.522945  Gnorm:      0.003731  CPU:   36.793
  Cycle:     22 Energy:     -7727.524560  Gnorm:      0.003688  CPU:   39.161
  Cycle:     23 Energy:     -7727.526992  Gnorm:      0.003622  CPU:   41.529
  Cycle:     24 Energy:     -7727.529987  Gnorm:      0.003539  CPU:   43.567
  Cycle:     25 Energy:     -7727.534931  Gnorm:      0.003397  CPU:   45.936
  Cycle:     26 Energy:     -7727.542241  Gnorm:      0.003176  CPU:   48.304
  Cycle:     27 Energy:     -7727.550779  Gnorm:      0.002896  CPU:   50.342
  Cycle:     28 Energy:     -7727.563539  Gnorm:      0.002423  CPU:   52.710
  Cycle:     29 Energy:     -7727.576623  Gnorm:      0.001833  CPU:   54.748
  Cycle:     30 Energy:     -7727.588467  Gnorm:      0.001120  CPU:   56.787
  ** Hessian calculated **
  Cycle:     31 Energy:     -7727.592335  Gnorm:      0.000275  CPU:   59.678


  **** Optimisation achieved ****


  Final energy =   -7727.59233623 eV
  Final Gnorm  =       0.00000520

  Components of energy : 

--------------------------------------------------------------------------------
  Interatomic potentials     =        2067.21322338 eV
  Three-body potentials      =           0.46187596 eV
  Monopole - monopole (real) =       -6619.40895199 eV
  Monopole - monopole (recip)=       -3169.40239086 eV
  Monopole - monopole (total)=       -9788.81134286 eV
  Neutralising energy        =          -6.45609272 eV
--------------------------------------------------------------------------------
  Total lattice energy       =       -7727.59233623 eV
--------------------------------------------------------------------------------
  Total lattice energy       =         -745594.5334 kJ/(mole unit cells)
--------------------------------------------------------------------------------

  Final fractional coordinates of atoms :

--------------------------------------------------------------------------------
   No.  Atomic        x           y          z          Radius
        Label       (Frac)      (Frac)     (Frac)       (Angs) 
--------------------------------------------------------------------------------
     1  Ge    c     0.699600    0.375700    0.033890    0.000000
     2  Si    c     0.590861    0.307685    0.359631    0.000000
     3  Si    c     0.660771    0.292272    0.694201    0.000000
     4  Si    c     0.263589    0.602677    0.527368    0.000000
     5  Si    c     0.362386    0.663097    0.856656    0.000000
     6  Si    c     0.298775    0.691012    0.193923    0.000000
     7  Si    c     0.348089    0.682910    0.294246    0.000000
     8  Si    c     0.308580    0.607258    0.958933    0.000000
     9  Si    c     0.274994    0.664452    0.629580    0.000000
    10  Si    c     0.604562    0.290976    0.796904    0.000000
    11  Si    c     0.645091    0.364783    0.459903    0.000000
    12  Si    c     0.669832    0.307065    0.131766    0.000000
    13  Si    c     0.524069    0.400897    0.964278    0.000000
    14  Si    c     0.554638    0.092427    0.298646    0.000000
    15  Ge    c     0.878384    0.460513    0.627079    0.000000
    16  Si    c     0.433086    0.563408    0.459508    0.000000
    17  Si    c     0.400180    0.876547    0.793721    0.000000
    18  Si    c     0.091623    0.518812    0.127341    0.000000
    19  Si    c     0.383334    0.509142    0.358096    0.000000
    20  Si    c     0.094018    0.570259    0.024451    0.000000
    21  Si    c     0.451506    0.879465    0.692823    0.000000
    22  Ge    c     0.556668    0.461084    0.864536    0.000000
    23  Si    c     0.843724    0.393622    0.528172    0.000000
    24  Si    c     0.505266    0.097246    0.197529    0.000000
    25  Si    c     0.283683    0.381964    0.839269    0.000000
    26  Si    c     0.578579    0.891756    0.180317    0.000000
    27  Si    c     0.056922    0.679101    0.514232    0.000000
    28  Si    c     0.666269    0.582515    0.344258    0.000000
    29  Si    c     0.380846    0.086950    0.679770    0.000000
    30  Si    c     0.881061    0.284268    0.009816    0.000000
    31  Si    c     0.363818    0.285989    0.473732    0.000000
    32  Si    c     0.876055    0.590529    0.141355    0.000000
    33  Si    c     0.679829    0.086325    0.808639    0.000000
    34  Si    c     0.591784    0.686311    0.974326    0.000000
    35  Si    c     0.074640    0.382985    0.648762    0.000000
    36  Si    c     0.272145    0.883771    0.310974    0.000000
    37  Si    c     0.242424    0.325479    0.942243    0.000000
    38  Si    c     0.631121    0.892191    0.281092    0.000000
    39  Si    c     0.059408    0.738213    0.616363    0.000000
    40  Si    c     0.714899    0.643303    0.444932    0.000000
    41  Si    c     0.323177    0.076583    0.780466    0.000000
    42  Si    c     0.887015    0.238440    0.112915    0.000000
    43  Si    c     0.307048    0.232807    0.373181    0.000000
    44  Si    c     0.893406    0.656591    0.039093    0.000000
    45  Si    c     0.729579    0.080436    0.707843    0.000000
    46  Si    c     0.651660    0.738408    0.872127    0.000000
    47  Si    c     0.050868    0.319279    0.545761    0.000000
    48  Si    c     0.224906    0.896588    0.210492    0.000000
    49  Si    c     0.961067    0.111327    0.959586    0.000000
    50  Si    c     0.848540    0.829277    0.294996    0.000000
    51  Si    c     0.135556    0.022145    0.627886    0.000000
    52  Si    c     0.994527    0.861699    0.462375    0.000000
    53  Si    c     0.100560    0.134230    0.793269    0.000000
    54  Si    c     0.827749    0.961708    0.128209    0.000000
    55  Si    c     0.090991    0.951807    0.361204    0.000000
    56  Si    c     0.837510    0.874819    0.026470    0.000000
    57  Si    c     0.010309    0.136405    0.693636    0.000000
    58  Si    c     0.860689    0.021078    0.859296    0.000000
    59  Si    c     0.119029    0.105526    0.527211    0.000000
    60  Si    c     0.945629    0.837722    0.193547    0.000000
    61  O2    c     0.918686    0.995435    0.994450    0.000000
    62  O2    c     0.968749    0.905847    0.328443    0.000000
    63  O2    c     0.048622    0.059897    0.658260    0.000000
    64  O2    c     0.034321    0.982507    0.495221    0.000000
    65  O2    c     0.982123    0.058318    0.827215    0.000000
    66  O2    c     0.907450    0.919494    0.160771    0.000000
    67  O2    c     0.307542    0.558272    0.325485    0.000000
    68  O2    c     0.401646    0.753971    0.659511    0.000000
    69  O2    c     0.221265    0.641878    0.992328    0.000000
    70  O3    c     0.642306    0.408071    0.829079    0.000000
    71  O2    c     0.558061    0.227650    0.168986    0.000000
    72  O2    c     0.729136    0.323223    0.490721    0.000000
    73  O3    c     0.559322    0.331813    0.002087    0.000000
    74  O3    c     0.742562    0.411439    0.663034    0.000000
    75  O2    c     0.631593    0.219307    0.329903    0.000000
    76  O2    c     0.381924    0.637851    0.492456    0.000000
    77  O2    c     0.215925    0.569882    0.160068    0.000000
    78  O2    c     0.324717    0.749816    0.825928    0.000000
    79  O2    c     0.115842    0.201446    0.963252    0.000000
    80  O2    c     0.756847    0.891565    0.301440    0.000000
    81  O2    c     0.075423    0.871282    0.634535    0.000000
    82  O2    c     0.838829    0.771255    0.465240    0.000000
    83  O2    c     0.196100    0.077337    0.800762    0.000000
    84  O2    c     0.889347    0.115168    0.133673    0.000000
    85  O2    c     0.180885    0.104675    0.353925    0.000000
    86  O2    c     0.911624    0.793703    0.023544    0.000000
    87  O2    c     0.857495    0.082426    0.687021    0.000000
    88  O2    c     0.769584    0.869956    0.853124    0.000000
    89  O2    c     0.053926    0.195358    0.525043    0.000000
    90  O2    c     0.100751    0.900254    0.189979    0.000000
    91  O2    c     0.901465    0.846320    0.244086    0.000000
    92  O2    c     0.120588    0.055479    0.576624    0.000000
    93  O2    c     0.913922    0.054849    0.910172    0.000000
    94  O2    c     0.043872    0.109251    0.743039    0.000000
    95  O2    c     0.840012    0.924785    0.077193    0.000000
    96  O2    c     0.040542    0.916086    0.412228    0.000000
    97  O2    c     0.893536    0.193838    0.972290    0.000000
    98  O2    c     0.765588    0.677977    0.305806    0.000000
    99  O2    c     0.286521    0.093628    0.641083    0.000000
   100  O2    c     0.059342    0.776267    0.475674    0.000000
   101  O2    c     0.173438    0.286499    0.803443    0.000000
   102  O2    c     0.675924    0.891925    0.141441    0.000000
   103  O2    c     0.173648    0.882028    0.349677    0.000000
   104  O2    c     0.687040    0.786611    0.012729    0.000000
   105  O2    c     0.092234    0.288983    0.683795    0.000000
   106  O2    c     0.779980    0.091372    0.847358    0.000000
   107  O2    c     0.268241    0.188014    0.511692    0.000000
   108  O2    c     0.877956    0.688150    0.179910    0.000000
   109  O2    c     0.294957    0.629399    0.243273    0.000000
   110  O2    c     0.319249    0.659026    0.577319    0.000000
   111  O2    c     0.309165    0.658501    0.908349    0.000000
   112  O2    c     0.656455    0.339408    0.745599    0.000000
   113  O3    c     0.605857    0.298309    0.084369    0.000000
   114  O2    c     0.646397    0.309097    0.409718    0.000000
   115  O2    c     0.364030    0.317045    0.960827    0.000000
   116  O2    c     0.641759    0.023165    0.300723    0.000000
   117  O3    c     0.929059    0.626833    0.636275    0.000000
   118  O2    c     0.589790    0.651159    0.462810    0.000000
   119  O2    c     0.310110    0.942655    0.798188    0.000000
   120  O2    c     0.020016    0.364023    0.129257    0.000000
   121  O2    c     0.295504    0.353603    0.354774    0.000000
   122  O2    c     0.026464    0.658043    0.023376    0.000000
   123  O2    c     0.608475    0.946947    0.688755    0.000000
   124  O3    c     0.671568    0.626884    0.853363    0.000000
   125  O2    c     0.919079    0.310349    0.527159    0.000000
   126  O2    c     0.348533    0.027945    0.192767    0.000000
   127  O3    c     0.749088    0.280407    0.001319    0.000000
   128  O2    c     0.666391    0.449031    0.336630    0.000000
   129  O2    c     0.514543    0.218773    0.672884    0.000000
   130  O2    c     0.189209    0.673435    0.507673    0.000000
   131  O2    c     0.287507    0.519245    0.835912    0.000000
   132  O2    c     0.442875    0.760226    0.171460    0.000000
   133  O2    c     0.271122    0.749652    0.316773    0.000000
   134  O2    c     0.453912    0.683027    0.979276    0.000000
   135  O2    c     0.209116    0.520905    0.650045    0.000000
   136  O2    c     0.677528    0.216871    0.816713    0.000000
   137  O2    c     0.500490    0.291326    0.481841    0.000000
   138  O2    c     0.744335    0.456515    0.149898    0.000000
   139  O3    c     0.768588    0.543073    0.017494    0.000000
   140  O2    c     0.434173    0.233475    0.353387    0.000000
   141  O2    c     0.729576    0.204461    0.688591    0.000000
   142  O2    c     0.173712    0.448945    0.526928    0.000000
   143  O2    c     0.517666    0.728669    0.854625    0.000000
   144  O2    c     0.221204    0.769750    0.190035    0.000000
   145  O2    c     0.504548    0.765651    0.299583    0.000000
   146  O2    c     0.245852    0.454100    0.960870    0.000000
   147  O2    c     0.183806    0.727651    0.632900    0.000000
   148  O2    c     0.447278    0.199695    0.801070    0.000000
   149  O2    c     0.717817    0.520192    0.464576    0.000000
   150  O2    c     0.764677    0.244619    0.133118    0.000000
   151  O2    c     0.223896    0.312597    0.888212    0.000000
   152  O2    c     0.650839    0.892770    0.226745    0.000000
   153  O2    c     0.056479    0.747086    0.561170    0.000000
   154  O2    c     0.735490    0.658479    0.390597    0.000000
   155  O2    c     0.304058    0.079426    0.726233    0.000000
   156  O2    c     0.884667    0.222794    0.058720    0.000000
   157  O2    c     0.290425    0.214970    0.427354    0.000000
   158  O2    c     0.880805    0.659530    0.094372    0.000000
   159  O2    c     0.750521    0.081461    0.762057    0.000000
   160  O2    c     0.662522    0.751141    0.927354    0.000000
   161  O2    c     0.056328    0.309540    0.599791    0.000000
   162  O2    c     0.203871    0.892430    0.264786    0.000000
   163  O2    c     0.569918    0.546588    0.983260    0.000000
   164  O2    c     0.412546    0.006207    0.321362    0.000000
   165  O3    c     0.952295    0.392877    0.662392    0.000000
   166  O2    c     0.373307    0.423070    0.482242    0.000000
   167  O2    c     0.541634    0.957676    0.817513    0.000000
   168  O2    c     0.999262    0.570333    0.146956    0.000000
   169  O2    c     0.525781    0.567334    0.334944    0.000000
   170  O2    c     0.004826    0.428619    0.004010    0.000000
   171  O2    c     0.390341    0.959341    0.669353    0.000000
   172  O3    c     0.415998    0.389426    0.827750    0.000000
   173  O2    c     0.934632    0.538152    0.507484    0.000000
   174  O2    c     0.566214    0.017854    0.172889    0.000000
   175  O2    c     0.554694    0.145931    0.248546    0.000000
   176  O3    c     0.782509    0.387959    0.576204    0.000000
   177  O3    c     0.583097    0.398198    0.915873    0.000000
   178  O2    c     0.396387    0.819490    0.742953    0.000000
   179  O2    c     0.139488    0.566647    0.076049    0.000000
   180  O2    c     0.380604    0.563193    0.408688    0.000000
   181  F     c     0.423523    0.886540    0.244814    0.000000
   182  F     c     0.022188    0.512538    0.588636    0.000000
   183  F     c     0.462157    0.516169    0.900032    0.000000
   184  F     c     0.521719    0.069407    0.743592    0.000000
   185  F     c     0.846496    0.430632    0.069399    0.000000
   186  F     c     0.513519    0.435880    0.408457    0.000000
   187  O2    s     0.914120    0.994538    0.994241    0.000000
   188  O2    s     0.968911    0.902370    0.328346    0.000000
   189  O2    s     0.054301    0.064278    0.658781    0.000000
   190  O2    s     0.039035    0.982426    0.495038    0.000000
   191  O2    s     0.981688    0.062773    0.827030    0.000000
   192  O2    s     0.902901    0.915130    0.160807    0.000000
   193  O2    s     0.319445    0.566141    0.325567    0.000000
   194  O2    s     0.392930    0.756564    0.659522    0.000000
   195  O2    s     0.217004    0.630865    0.992232    0.000000
   196  O3    s     0.632258    0.398822    0.827972    0.000000
   197  O2    s     0.564139    0.222095    0.168126    0.000000
   198  O2    s     0.731789    0.334752    0.491210    0.000000
   199  O3    s     0.565927    0.342375    0.000423    0.000000
   200  O3    s     0.743428    0.402089    0.663829    0.000000
   201  O2    s     0.619357    0.215134    0.329695    0.000000
   202  O2    s     0.374724    0.626561    0.492764    0.000000
   203  O2    s     0.211046    0.576677    0.160010    0.000000
   204  O2    s     0.336103    0.753019    0.826053    0.000000
   205  O2    s     0.112050    0.204413    0.960718    0.000000
   206  O2    s     0.753481    0.884978    0.298645    0.000000
   207  O2    s     0.080432    0.873548    0.631809    0.000000
   208  O2    s     0.842528    0.767633    0.462864    0.000000
   209  O2    s     0.198818    0.083374    0.797913    0.000000
   210  O2    s     0.882699    0.111873    0.130988    0.000000
   211  O2    s     0.184379    0.101766    0.356638    0.000000
   212  O2    s     0.901875    0.788279    0.025443    0.000000
   213  O2    s     0.860932    0.088073    0.689835    0.000000
   214  O2    s     0.766911    0.872615    0.855889    0.000000
   215  O2    s     0.060481    0.198588    0.527373    0.000000
   216  O2    s     0.096994    0.893153    0.192475    0.000000
   217  O2    s     0.900527    0.843455    0.244091    0.000000
   218  O2    s     0.122047    0.057625    0.576542    0.000000
   219  O2    s     0.913524    0.057690    0.910291    0.000000
   220  O2    s     0.046458    0.115188    0.743084    0.000000
   221  O2    s     0.838347    0.923500    0.077431    0.000000
   222  O2    s     0.041090    0.914059    0.412056    0.000000
   223  O2    s     0.899702    0.194595    0.975002    0.000000
   224  O2    s     0.764332    0.684332    0.308549    0.000000
   225  O2    s     0.279376    0.085193    0.643442    0.000000
   226  O2    s     0.052276    0.775426    0.478171    0.000000
   227  O2    s     0.176867    0.280197    0.805976    0.000000
   228  O2    s     0.682061    0.899318    0.144032    0.000000
   229  O2    s     0.175022    0.889581    0.346917    0.000000
   230  O2    s     0.693398    0.785873    0.010325    0.000000
   231  O2    s     0.082086    0.282759    0.681282    0.000000
   232  O2    s     0.778828    0.083265    0.844838    0.000000
   233  O2    s     0.262222    0.189500    0.509320    0.000000
   234  O2    s     0.884980    0.693992    0.177364    0.000000
   235  O2    s     0.300742    0.641160    0.243376    0.000000
   236  O2    s     0.309058    0.653652    0.577240    0.000000
   237  O2    s     0.314321    0.653575    0.908573    0.000000
   238  O2    s     0.651612    0.329598    0.745507    0.000000
   239  O3    s     0.618844    0.304235    0.086247    0.000000
   240  O2    s     0.640351    0.314816    0.409651    0.000000
   241  O2    s     0.365486    0.325844    0.959060    0.000000
   242  O2    s     0.631637    0.016598    0.298446    0.000000
   243  O3    s     0.939797    0.627822    0.633474    0.000000
   244  O2    s     0.586581    0.641237    0.460587    0.000000
   245  O2    s     0.320651    0.949435    0.795924    0.000000
   246  O2    s     0.013778    0.367223    0.127369    0.000000
   247  O2    s     0.305628    0.356966    0.357018    0.000000
   248  O2    s     0.020472    0.648663    0.025054    0.000000
   249  O2    s     0.604611    0.953529    0.691118    0.000000
   250  O3    s     0.661802    0.627990    0.856162    0.000000
   251  O2    s     0.925727    0.319311    0.529227    0.000000
   252  O2    s     0.351634    0.021179    0.195138    0.000000
   253  O3    s     0.760206    0.287159    0.004460    0.000000
   254  O2    s     0.658640    0.448473    0.339804    0.000000
   255  O2    s     0.514280    0.211488    0.675788    0.000000
   256  O2    s     0.183222    0.666620    0.510426    0.000000
   257  O2    s     0.294959    0.520624    0.838446    0.000000
   258  O2    s     0.442180    0.766842    0.174739    0.000000
   259  O2    s     0.279125    0.756899    0.313814    0.000000
   260  O2    s     0.452683    0.675445    0.976640    0.000000
   261  O2    s     0.202494    0.522006    0.647753    0.000000
   262  O2    s     0.670580    0.209676    0.813835    0.000000
   263  O2    s     0.500864    0.298404    0.478664    0.000000
   264  O2    s     0.751266    0.456486    0.147214    0.000000
   265  O3    s     0.778177    0.545116    0.020843    0.000000
   266  O2    s     0.436663    0.241142    0.356111    0.000000
   267  O2    s     0.722535    0.199251    0.691248    0.000000
   268  O2    s     0.170259    0.451694    0.528967    0.000000
   269  O2    s     0.514455    0.722326    0.856649    0.000000
   270  O2    s     0.229706    0.775111    0.192593    0.000000
   271  O2    s     0.501861    0.770802    0.297040    0.000000
   272  O2    s     0.252280    0.457239    0.958741    0.000000
   273  O2    s     0.180735    0.721680    0.630835    0.000000
   274  O2    s     0.449151    0.194860    0.798376    0.000000
   275  O2    s     0.709928    0.517526    0.461995    0.000000
   276  O2    s     0.768880    0.250201    0.130766    0.000000
   277  O2    s     0.231724    0.320722    0.889365    0.000000
   278  O2    s     0.641164    0.892595    0.227587    0.000000
   279  O2    s     0.056791    0.738742    0.561521    0.000000
   280  O2    s     0.726101    0.648964    0.391489    0.000000
   281  O2    s     0.314028    0.079873    0.727025    0.000000
   282  O2    s     0.884554    0.230560    0.059786    0.000000
   283  O2    s     0.299956    0.224389    0.426406    0.000000
   284  O2    s     0.881485    0.651696    0.094020    0.000000
   285  O2    s     0.741007    0.081815    0.761215    0.000000
   286  O2    s     0.653789    0.742844    0.926968    0.000000
   287  O2    s     0.057434    0.317677    0.598545    0.000000
   288  O2    s     0.213196    0.891969    0.263848    0.000000
   289  O2    s     0.567820    0.548646    0.980409    0.000000
   290  O2    s     0.412329    0.001893    0.317869    0.000000
   291  O3    s     0.961075    0.396488    0.658577    0.000000
   292  O2    s     0.378693    0.423213    0.478936    0.000000
   293  O2    s     0.541471    0.962850    0.814129    0.000000
   294  O2    s     0.995856    0.566855    0.144240    0.000000
   295  O2    s     0.526044    0.562732    0.338359    0.000000
   296  O2    s     0.001961    0.429536    0.006837    0.000000
   297  O2    s     0.395725    0.964536    0.672840    0.000000
   298  O3    s     0.410497    0.393433    0.831380    0.000000
   299  O2    s     0.939407    0.539642    0.510258    0.000000
   300  O2    s     0.561098    0.012414    0.176220    0.000000
   301  O2    s     0.549327    0.134907    0.248418    0.000000
   302  O3    s     0.795199    0.393156    0.574233    0.000000
   303  O3    s     0.575342    0.402760    0.917322    0.000000
   304  O2    s     0.402361    0.831364    0.743011    0.000000
   305  O2    s     0.129832    0.562006    0.076157    0.000000
   306  O2    s     0.386313    0.557681    0.408761    0.000000
   307  F     s     0.423193    0.886075    0.244696    0.000000
   308  F     s     0.012116    0.508704    0.591183    0.000000
   309  F     s     0.468420    0.512324    0.897574    0.000000
   310  F     s     0.520920    0.067813    0.743515    0.000000
   311  F     s     0.835703    0.426740    0.066882    0.000000
   312  F     s     0.513581    0.435807    0.408376    0.000000
--------------------------------------------------------------------------------

  Final Cartesian lattice vectors (Angstroms) :

       11.901332    0.000499    0.007677
       -6.014322   10.436695   -0.000893
        0.181421   -0.163714   29.493652


  Final cell parameters and derivatives :

--------------------------------------------------------------------------------
       a           11.901334 Angstrom     dE/de1(xx)     0.000117 eV/strain
       b           12.045608 Angstrom     dE/de2(yy)     0.000287 eV/strain
       c           29.494664 Angstrom     dE/de3(zz)    -0.000046 eV/strain
       alpha       90.455767 Degrees      dE/de4(yz)     0.000081 eV/strain
       beta        89.610628 Degrees      dE/de5(xz)    -0.000052 eV/strain
       gamma      119.951015 Degrees      dE/de6(xy)     0.000040 eV/strain
--------------------------------------------------------------------------------

  Primitive cell volume =          3663.503052 Angs**3

  Density of cell =      1.746441 g/cm**3

  Non-primitive cell volume =          3663.503052 Angs**3


  Final internal derivatives :

--------------------------------------------------------------------------------
   No.  Atomic          a             b             c           Radius
        Label          (eV)          (eV)          (eV)        (eV/Angs)
--------------------------------------------------------------------------------
      1 Ge    c       0.000000      0.000000      0.000000      0.000000
      2 Si    c      -0.000025      0.000011      0.000054      0.000000
      3 Si    c      -0.000035      0.000007      0.000100      0.000000
      4 Si    c       0.000012      0.000007     -0.000003      0.000000
      5 Si    c       0.000019     -0.000062      0.000111      0.000000
      6 Si    c      -0.000001     -0.000006      0.000144      0.000000
      7 Si    c      -0.000034     -0.000016     -0.000059      0.000000
      8 Si    c       0.000006      0.000022      0.000059      0.000000
      9 Si    c       0.000022     -0.000003     -0.000008      0.000000
     10 Si    c       0.000154     -0.000117     -0.000350      0.000000
     11 Si    c      -0.000008     -0.000008      0.000027      0.000000
     12 Si    c       0.000161      0.000328     -0.002361      0.000000
     13 Si    c       0.000651     -0.000207      0.001373      0.000000
     14 Si    c      -0.000019     -0.000005     -0.000118      0.000000
     15 Ge    c      -0.000035     -0.000020      0.000056      0.000000
     16 Si    c      -0.000007      0.000003      0.000009      0.000000
     17 Si    c       0.000015     -0.000018     -0.000026      0.000000
     18 Si    c       0.000076     -0.000045      0.000132      0.000000
     19 Si    c       0.000000      0.000020      0.000042      0.000000
     20 Si    c       0.000110     -0.000063     -0.000073      0.000000
     21 Si    c      -0.000028     -0.000018     -0.000026      0.000000
     22 Ge    c      -0.000027     -0.000053     -0.000033      0.000000
     23 Si    c      -0.000008      0.000006      0.000084      0.000000
     24 Si    c       0.000005      0.000066      0.000047      0.000000
     25 Si    c       0.000038     -0.000050     -0.000029      0.000000
     26 Si    c       0.000045     -0.000015      0.000033      0.000000
     27 Si    c      -0.000009      0.000014     -0.000005      0.000000
     28 Si    c      -0.000006      0.000008     -0.000004      0.000000
     29 Si    c      -0.000011      0.000004      0.000034      0.000000
     30 Si    c      -0.000373      0.000214      0.000123      0.000000
     31 Si    c       0.000004     -0.000006      0.000005      0.000000
     32 Si    c      -0.000040      0.000137     -0.000060      0.000000
     33 Si    c       0.000059     -0.000031     -0.000004      0.000000
     34 Si    c       0.000064     -0.000041      0.000052      0.000000
     35 Si    c       0.000006     -0.000018      0.000052      0.000000
     36 Si    c      -0.000048      0.000007     -0.000037      0.000000
     37 Si    c       0.000005     -0.000051     -0.000080      0.000000
     38 Si    c       0.000021     -0.000009     -0.000068      0.000000
     39 Si    c      -0.000007      0.000029     -0.000021      0.000000
     40 Si    c      -0.000019      0.000001      0.000011      0.000000
     41 Si    c      -0.000015      0.000026     -0.000071      0.000000
     42 Si    c       0.000005     -0.000053      0.000000      0.000000
     43 Si    c       0.000008     -0.000001      0.000028      0.000000
     44 Si    c       0.000017      0.000207      0.000015      0.000000
     45 Si    c       0.000059     -0.000017     -0.000008      0.000000
     46 Si    c      -0.000010      0.000002      0.000068      0.000000
     47 Si    c      -0.000005     -0.000015      0.000003      0.000000
     48 Si    c      -0.000035      0.000009      0.000085      0.000000
     49 Si    c       0.000006     -0.000009      0.000350      0.000000
     50 Si    c       0.000002     -0.000031     -0.000131      0.000000
     51 Si    c      -0.000010     -0.000001     -0.000032      0.000000
     52 Si    c       0.000021     -0.000000     -0.000096      0.000000
     53 Si    c       0.000059      0.000106     -0.000668      0.000000
     54 Si    c      -0.000003      0.000037     -0.000026      0.000000
     55 Si    c       0.000015     -0.000050      0.000079      0.000000
     56 Si    c       0.000139     -0.000253      0.000067      0.000000
     57 Si    c       0.000006     -0.000025      0.000083      0.000000
     58 Si    c      -0.000186      0.000220      0.000408      0.000000
     59 Si    c       0.000003     -0.000017      0.000096      0.000000
     60 Si    c      -0.000004     -0.000014      0.000067      0.000000
     61 O2    c      -0.000025      0.000079     -0.000159      0.000000
     62 O2    c       0.000010      0.000065      0.000041      0.000000
     63 O2    c      -0.000000     -0.000009      0.000027      0.000000
     64 O2    c      -0.000003      0.000028      0.000048      0.000000
     65 O2    c       0.000106     -0.000406      0.000199      0.000000
     66 O2    c      -0.000010      0.000012      0.000021      0.000000
     67 O2    c      -0.000016      0.000010     -0.000051      0.000000
     68 O2    c       0.000005      0.000047      0.000099      0.000000
     69 O2    c      -0.000045     -0.000004     -0.000004      0.000000
     70 O3    c      -0.000053      0.000215      0.000346      0.000000
     71 O2    c       0.000018      0.000035     -0.000097      0.000000
     72 O2    c      -0.000013      0.000001     -0.000032      0.000000
     73 O3    c      -0.000257      0.000854     -0.000989      0.000000
     74 O3    c       0.000047      0.000056     -0.000168      0.000000
     75 O2    c       0.000019     -0.000001      0.000032      0.000000
     76 O2    c       0.000008     -0.000002     -0.000023      0.000000
     77 O2    c       0.000001      0.000016     -0.000013      0.000000
     78 O2    c      -0.000028      0.000059     -0.000163      0.000000
     79 O2    c      -0.000061      0.000033      0.000027      0.000000
     80 O2    c      -0.000053      0.000043      0.000033      0.000000
     81 O2    c       0.000004      0.000021     -0.000008      0.000000
     82 O2    c       0.000007      0.000009      0.000036      0.000000
     83 O2    c       0.000172     -0.000095      0.000102      0.000000
     84 O2    c      -0.000028      0.000040     -0.000054      0.000000
     85 O2    c       0.000006      0.000044     -0.000021      0.000000
     86 O2    c      -0.000503      0.000316     -0.000213      0.000000
     87 O2    c      -0.000011      0.000032      0.000035      0.000000
     88 O2    c      -0.000046     -0.000195     -0.000054      0.000000
     89 O2    c      -0.000000      0.000003      0.000001      0.000000
     90 O2    c       0.000029     -0.000025      0.000043      0.000000
     91 O2    c       0.000001     -0.000010     -0.000047      0.000000
     92 O2    c      -0.000017      0.000004     -0.000041      0.000000
     93 O2    c       0.000147     -0.000096     -0.000561      0.000000
     94 O2    c      -0.000020     -0.000014      0.000186      0.000000
     95 O2    c       0.000088     -0.000016      0.000042      0.000000
     96 O2    c      -0.000030     -0.000013      0.000126      0.000000
     97 O2    c      -0.000088      0.000019     -0.000079      0.000000
     98 O2    c       0.000020     -0.000020      0.000047      0.000000
     99 O2    c      -0.000024      0.000018      0.000002      0.000000
    100 O2    c      -0.000009     -0.000004      0.000032      0.000000
    101 O2    c      -0.000059      0.000179      0.000162      0.000000
    102 O2    c      -0.000030      0.000005      0.000037      0.000000
    103 O2    c       0.000027     -0.000026     -0.000038      0.000000
    104 O2    c       0.000079      0.000052      0.000206      0.000000
    105 O2    c       0.000007      0.000037      0.000015      0.000000
    106 O2    c      -0.000085      0.000097     -0.000150      0.000000
    107 O2    c       0.000002      0.000003     -0.000008      0.000000
    108 O2    c      -0.000002      0.000025      0.000038      0.000000
    109 O2    c      -0.000002      0.000015     -0.000051      0.000000
    110 O2    c       0.000000     -0.000001      0.000014      0.000000
    111 O2    c       0.000000      0.000007     -0.000021      0.000000
    112 O2    c      -0.000004      0.000007      0.000036      0.000000
    113 O3    c       0.000544     -0.000170      0.002221      0.000000
    114 O2    c      -0.000001     -0.000008     -0.000006      0.000000
    115 O2    c      -0.000010     -0.000001     -0.000021      0.000000
    116 O2    c       0.000003      0.000005      0.000017      0.000000
    117 O3    c      -0.000021     -0.000002      0.000009      0.000000
    118 O2    c       0.000017      0.000002     -0.000001      0.000000
    119 O2    c       0.000005     -0.000018      0.000015      0.000000
    120 O2    c       0.000036      0.000029      0.000045      0.000000
    121 O2    c      -0.000001      0.000010      0.000015      0.000000
    122 O2    c      -0.000079      0.000030      0.000021      0.000000
    123 O2    c       0.000003     -0.000012      0.000011      0.000000
    124 O3    c       0.000013      0.000006      0.000031      0.000000
    125 O2    c      -0.000012      0.000004      0.000001      0.000000
    126 O2    c      -0.000007      0.000013     -0.000015      0.000000
    127 O3    c       0.000298      0.000056      0.000263      0.000000
    128 O2    c      -0.000003      0.000019     -0.000011      0.000000
    129 O2    c      -0.000000      0.000007      0.000011      0.000000
    130 O2    c       0.000000     -0.000004     -0.000004      0.000000
    131 O2    c      -0.000030      0.000082     -0.000065      0.000000
    132 O2    c       0.000001     -0.000012     -0.000012      0.000000
    133 O2    c       0.000001     -0.000004     -0.000007      0.000000
    134 O2    c      -0.000014      0.000014     -0.000012      0.000000
    135 O2    c       0.000004     -0.000002      0.000007      0.000000
    136 O2    c      -0.000011      0.000002      0.000008      0.000000
    137 O2    c       0.000003     -0.000003     -0.000003      0.000000
    138 O2    c      -0.000028      0.000093      0.000067      0.000000
    139 O3    c      -0.000362     -0.000254     -0.000407      0.000000
    140 O2    c      -0.000004     -0.000007      0.000001      0.000000
    141 O2    c       0.000010     -0.000014     -0.000003      0.000000
    142 O2    c       0.000004      0.000005     -0.000006      0.000000
    143 O2    c       0.000019     -0.000006     -0.000002      0.000000
    144 O2    c       0.000013     -0.000010      0.000034      0.000000
    145 O2    c      -0.000010     -0.000003      0.000031      0.000000
    146 O2    c      -0.000011      0.000012      0.000052      0.000000
    147 O2    c       0.000004     -0.000017      0.000003      0.000000
    148 O2    c       0.000013      0.000003     -0.000033      0.000000
    149 O2    c      -0.000004      0.000005      0.000010      0.000000
    150 O2    c      -0.000030      0.000026      0.000037      0.000000
    151 O2    c      -0.000006     -0.000014      0.000091      0.000000
    152 O2    c      -0.000010      0.000003     -0.000003      0.000000
    153 O2    c      -0.000002     -0.000002      0.000004      0.000000
    154 O2    c      -0.000001      0.000001     -0.000019      0.000000
    155 O2    c       0.000002      0.000002      0.000036      0.000000
    156 O2    c      -0.000059      0.000066     -0.000654      0.000000
    157 O2    c      -0.000003      0.000003     -0.000023      0.000000
    158 O2    c       0.000129     -0.000010      0.000544      0.000000
    159 O2    c      -0.000011      0.000000      0.000037      0.000000
    160 O2    c       0.000019     -0.000009     -0.000039      0.000000
    161 O2    c       0.000003      0.000017      0.000083      0.000000
    162 O2    c       0.000009      0.000002      0.000022      0.000000
    163 O2    c       0.000061     -0.000079      0.000054      0.000000
    164 O2    c       0.000010      0.000016      0.000040      0.000000
    165 O3    c      -0.000015      0.000003      0.000050      0.000000
    166 O2    c      -0.000005      0.000014      0.000000      0.000000
    167 O2    c       0.000025     -0.000020      0.000049      0.000000
    168 O2    c      -0.000014      0.000018      0.000071      0.000000
    169 O2    c       0.000010      0.000007     -0.000019      0.000000
    170 O2    c      -0.000018      0.000018     -0.000171      0.000000
    171 O2    c       0.000011     -0.000023      0.000021      0.000000
    172 O3    c       0.000062     -0.000063     -0.000129      0.000000
    173 O2    c      -0.000007      0.000002     -0.000015      0.000000
    174 O2    c       0.000016      0.000002     -0.000065      0.000000
    175 O2    c      -0.000001     -0.000006     -0.000026      0.000000
    176 O3    c       0.000020      0.000006     -0.000021      0.000000
    177 O3    c       0.000051      0.000018      0.000155      0.000000
    178 O2    c       0.000004      0.000002     -0.000122      0.000000
    179 O2    c       0.000015      0.000022     -0.000080      0.000000
    180 O2    c      -0.000004      0.000008     -0.000036      0.000000
    181 F     c       0.000006      0.000017      0.000001      0.000000
    182 F     c      -0.000003      0.000002     -0.000032      0.000000
    183 F     c       0.000002      0.000003     -0.000020      0.000000
    184 F     c      -0.000022     -0.000006     -0.000007      0.000000
    185 F     c       0.000127     -0.000079      0.000103      0.000000
    186 F     c      -0.000004     -0.000005      0.000008      0.000000
    187 O2    s       0.000025     -0.000118      0.000137      0.000000
    188 O2    s      -0.000014     -0.000004     -0.000070      0.000000
    189 O2    s       0.000019     -0.000007     -0.000084      0.000000
    190 O2    s       0.000008     -0.000015     -0.000054      0.000000
    191 O2    s       0.000059     -0.000125     -0.000105      0.000000
    192 O2    s       0.000026     -0.000018     -0.000061      0.000000
    193 O2    s       0.000004     -0.000002     -0.000017      0.000000
    194 O2    s      -0.000004     -0.000028     -0.000030      0.000000
    195 O2    s      -0.000009      0.000071      0.000009      0.000000
    196 O3    s       0.000017     -0.000098     -0.000065      0.000000
    197 O2    s       0.000007     -0.000013      0.000089      0.000000
    198 O2    s      -0.000004     -0.000004      0.000007      0.000000
    199 O3    s      -0.000106     -0.000691      0.000009      0.000000
    200 O3    s      -0.000014     -0.000037      0.000079      0.000000
    201 O2    s      -0.000010      0.000008     -0.000005      0.000000
    202 O2    s      -0.000016      0.000009      0.000021      0.000000
    203 O2    s       0.000022     -0.000022     -0.000040      0.000000
    204 O2    s      -0.000023      0.000013      0.000041      0.000000
    205 O2    s       0.000011      0.000053      0.000149      0.000000
    206 O2    s      -0.000014      0.000003     -0.000038      0.000000
    207 O2    s       0.000010     -0.000006      0.000035      0.000000
    208 O2    s      -0.000001     -0.000009     -0.000011      0.000000
    209 O2    s       0.000096     -0.000068     -0.000161      0.000000
    210 O2    s       0.000062     -0.000081      0.000084      0.000000
    211 O2    s       0.000000     -0.000001     -0.000018      0.000000
    212 O2    s       0.000113     -0.000042     -0.000062      0.000000
    213 O2    s      -0.000032      0.000024     -0.000063      0.000000
    214 O2    s      -0.000017     -0.000017      0.000086      0.000000
    215 O2    s       0.000004     -0.000009     -0.000018      0.000000
    216 O2    s      -0.000040      0.000020     -0.000056      0.000000
    217 O2    s      -0.000002     -0.000001     -0.000074      0.000000
    218 O2    s       0.000017     -0.000003      0.000035      0.000000
    219 O2    s      -0.000023      0.000047      0.000283      0.000000
    220 O2    s       0.000022     -0.000030     -0.000311      0.000000
    221 O2    s       0.000099     -0.000110     -0.000169      0.000000
    222 O2    s       0.000008     -0.000003      0.000001      0.000000
    223 O2    s      -0.000011     -0.000076      0.000096      0.000000
    224 O2    s       0.000004     -0.000044      0.000007      0.000000
    225 O2    s      -0.000021      0.000005     -0.000021      0.000000
    226 O2    s      -0.000011      0.000015     -0.000042      0.000000
    227 O2    s      -0.000040      0.000147     -0.000105      0.000000
    228 O2    s       0.000005     -0.000010      0.000008      0.000000
    229 O2    s       0.000003     -0.000021      0.000024      0.000000
    230 O2    s      -0.000023      0.000132      0.000184      0.000000
    231 O2    s       0.000016     -0.000026     -0.000095      0.000000
    232 O2    s      -0.000095      0.000159      0.000058      0.000000
    233 O2    s      -0.000015     -0.000004      0.000004      0.000000
    234 O2    s       0.000001     -0.000002     -0.000110      0.000000
    235 O2    s       0.000001     -0.000011      0.000081      0.000000
    236 O2    s      -0.000027      0.000008     -0.000010      0.000000
    237 O2    s      -0.000016     -0.000003      0.000011      0.000000
    238 O2    s       0.000017     -0.000008     -0.000023      0.000000
    239 O3    s      -0.000589     -0.000120     -0.000828      0.000000
    240 O2    s      -0.000010      0.000018     -0.000003      0.000000
    241 O2    s       0.000056     -0.000009      0.000042      0.000000
    242 O2    s      -0.000003     -0.000003      0.000006      0.000000
    243 O3    s       0.000029     -0.000017     -0.000021      0.000000
    244 O2    s      -0.000014      0.000004     -0.000006      0.000000
    245 O2    s       0.000024      0.000000     -0.000013      0.000000
    246 O2    s       0.000019      0.000033     -0.000047      0.000000
    247 O2    s       0.000010     -0.000022     -0.000017      0.000000
    248 O2    s       0.000066     -0.000022     -0.000090      0.000000
    249 O2    s      -0.000015      0.000017     -0.000007      0.000000
    250 O3    s      -0.000011      0.000004     -0.000089      0.000000
    251 O2    s       0.000002     -0.000010      0.000009      0.000000
    252 O2    s       0.000001     -0.000029     -0.000010      0.000000
    253 O3    s      -0.000102     -0.000151     -0.000110      0.000000
    254 O2    s      -0.000008     -0.000011      0.000002      0.000000
    255 O2    s      -0.000004     -0.000015     -0.000029      0.000000
    256 O2    s       0.000001      0.000003      0.000045      0.000000
    257 O2    s       0.000002     -0.000024      0.000069      0.000000
    258 O2    s       0.000002      0.000005     -0.000033      0.000000
    259 O2    s      -0.000007     -0.000011      0.000017      0.000000
    260 O2    s      -0.000028      0.000017      0.000021      0.000000
    261 O2    s      -0.000016      0.000011     -0.000052      0.000000
    262 O2    s       0.000038     -0.000015      0.000052      0.000000
    263 O2    s       0.000001     -0.000010     -0.000007      0.000000
    264 O2    s       0.000083      0.000053      0.000307      0.000000
    265 O3    s       0.000191      0.000311      0.000158      0.000000
    266 O2    s       0.000008      0.000008     -0.000013      0.000000
    267 O2    s      -0.000020      0.000008      0.000034      0.000000
    268 O2    s      -0.000009      0.000005      0.000029      0.000000
    269 O2    s       0.000000      0.000004      0.000031      0.000000
    270 O2    s      -0.000024      0.000013     -0.000054      0.000000
    271 O2    s      -0.000000     -0.000020     -0.000022      0.000000
    272 O2    s       0.000010     -0.000026     -0.000084      0.000000
    273 O2    s      -0.000003      0.000022     -0.000008      0.000000
    274 O2    s      -0.000028     -0.000005      0.000118      0.000000
    275 O2    s       0.000005     -0.000006     -0.000039      0.000000
    276 O2    s       0.000042     -0.000157      0.000529      0.000000
    277 O2    s      -0.000044      0.000037      0.000002      0.000000
    278 O2    s       0.000000     -0.000008     -0.000002      0.000000
    279 O2    s       0.000015     -0.000016      0.000004      0.000000
    280 O2    s       0.000004     -0.000003     -0.000003      0.000000
    281 O2    s      -0.000006     -0.000009     -0.000045      0.000000
    282 O2    s       0.000035     -0.000049      0.000127      0.000000
    283 O2    s      -0.000004     -0.000005      0.000005      0.000000
    284 O2    s      -0.000048     -0.000019     -0.000054      0.000000
    285 O2    s      -0.000004      0.000006      0.000005      0.000000
    286 O2    s      -0.000016      0.000027     -0.000039      0.000000
    287 O2    s      -0.000012      0.000006     -0.000022      0.000000
    288 O2    s      -0.000007     -0.000014     -0.000018      0.000000
    289 O2    s      -0.000150      0.000136     -0.000154      0.000000
    290 O2    s       0.000005     -0.000011     -0.000008      0.000000
    291 O3    s       0.000012      0.000007     -0.000098      0.000000
    292 O2    s      -0.000005     -0.000014     -0.000022      0.000000
    293 O2    s      -0.000062      0.000032     -0.000115      0.000000
    294 O2    s      -0.000040     -0.000013     -0.000219      0.000000
    295 O2    s       0.000002     -0.000022      0.000015      0.000000
    296 O2    s       0.000087     -0.000068      0.000346      0.000000
    297 O2    s      -0.000002      0.000013     -0.000038      0.000000
    298 O3    s      -0.000065      0.000052      0.000145      0.000000
    299 O2    s       0.000004     -0.000001      0.000021      0.000000
    300 O2    s      -0.000010     -0.000039      0.000042      0.000000
    301 O2    s       0.000007      0.000004      0.000001      0.000000
    302 O3    s      -0.000037     -0.000007     -0.000007      0.000000
    303 O3    s      -0.000096     -0.000074     -0.000028      0.000000
    304 O2    s       0.000003     -0.000019      0.000079      0.000000
    305 O2    s      -0.000071      0.000018     -0.000022      0.000000
    306 O2    s      -0.000005     -0.000012     -0.000004      0.000000
    307 F     s      -0.000005     -0.000028     -0.000016      0.000000
    308 F     s       0.000029     -0.000003      0.000016      0.000000
    309 F     s      -0.000027      0.000001      0.000087      0.000000
    310 F     s       0.000037      0.000009      0.000011      0.000000
    311 F     s       0.000340      0.000035      0.000686      0.000000
    312 F     s       0.000006      0.000003     -0.000031      0.000000
--------------------------------------------------------------------------------
  Maximum abs         0.000651      0.000854      0.002361      0.000000
--------------------------------------------------------------------------------


  Time to end of optimisation =      61.0576 seconds


  Peak dynamic memory used =      19.13 MB 


  Timing analysis for GULP :

--------------------------------------------------------------------------------
  Task / Subroutine                                          Time (Seconds)
--------------------------------------------------------------------------------
  Calculation of reciprocal space energy and derivatives          1.8756
  Calculation of real space energy and derivatives               52.2411
  Calculation of three-body energy and derivatives                5.9444
  Calculation of matrix inversion                                 0.7795
--------------------------------------------------------------------------------
  Total CPU time                                                 61.0577
--------------------------------------------------------------------------------


  Dump file written as out.res                                                 
  CIF file written as out.cif                                                 


  Job Finished at 05:39.33  3rd December   2016                               

