********************************************************************************
*                       GENERAL UTILITY LATTICE PROGRAM                        *
*                                 Julian Gale                                  *
*                      Nanochemistry Research Institute                        *
*                           Department of Chemistry                            *
*                    Curtin University, Western Australia                      *
********************************************************************************
* Version = 4.2.0 * Last modified =  20th January 2014                         *
********************************************************************************
*  optimise     - perform optimisation run                                     *
*  conp         - constant pressure calculation                                *
*  qok          - running with non charge neutral cell is OK                   *
********************************************************************************

  Job Started  at 21:28.17  2nd December   2016                               

  Number of CPUs =     1


  Total number of configurations input =   1

********************************************************************************
*  Input for Configuration =   1                                               *
********************************************************************************

  Formula = Ge3Si57O120F6                                               

  Number of irreducible atoms/shells =     312


  Total number atoms/shells =     312

  Dimensionality = 3               :  Bulk   


  Charge on solid   =  -6.000000 =>neutralising background added


  Cartesian lattice vectors (Angstroms) :

       11.977673    0.000000    0.000000
       -6.039601   10.354373    0.000000
       -0.237617    0.134121   29.529408

  Cell parameters (Angstroms/Degrees):

  a =      11.9777    alpha =  89.5429
  b =      11.9871    beta  =  90.4610
  c =      29.5307    gamma = 120.2546

  Initial cell volume =        3662.275535 Angs**3

  Temperature of configuration =  0.000     K 

  Pressure of configuration =         0.000 GPa 

  Fractional coordinates of asymmetric unit :

--------------------------------------------------------------------------------
   No.  Atomic       x           y          z         Charge      Occupancy
        Label      (Frac)      (Frac)     (Frac)        (e)         (Frac)  
--------------------------------------------------------------------------------
      1 Ge    c    0.699600    0.375700    0.033890     4.00000    1.000000    
      2 Si    c    0.620266 *  0.326036 *  0.369380 *   4.00000    1.000000    
      3 Si    c    0.676451 *  0.297865 *  0.698534 *   4.00000    1.000000    
      4 Si    c    0.294908 *  0.622334 *  0.532041 *   4.00000    1.000000    
      5 Si    c    0.382306 *  0.675565 *  0.862585 *   4.00000    1.000000    
      6 Si    c    0.312651 *  0.693008 *  0.196931 *   4.00000    1.000000    
      7 Si    c    0.373752 *  0.702268 *  0.299575 *   4.00000    1.000000    
      8 Si    c    0.327042 *  0.619814 *  0.963035 *   4.00000    1.000000    
      9 Si    c    0.297808 *  0.677017 *  0.632301 *   4.00000    1.000000    
     10 Si    c    0.621954 *  0.295879 *  0.798675 *   4.00000    1.000000    
     11 Si    c    0.673608 *  0.383079 *  0.469615 *   4.00000    1.000000    
     12 Si    c    0.692144 *  0.311901 *  0.137702 *   4.00000    1.000000    
     13 Si    c    0.530072 *  0.413200 *  0.963700 *   4.00000    1.000000    
     14 Si    c    0.588605 *  0.124184 *  0.302802 *   4.00000    1.000000    
     15 Si    c    0.888310 *  0.470920 *  0.634690 *   4.00000    1.000000    
     16 Si    c    0.466718 *  0.586089 *  0.467156 *   4.00000    1.000000    
     17 Si    c    0.417837 *  0.886286 *  0.798096 *   4.00000    1.000000    
     18 Ge    c    0.091600 *  0.522125 *  0.129911 *   4.00000    1.000000    
     19 Si    c    0.415765 *  0.532479 *  0.365818 *   4.00000    1.000000    
     20 Si    c    0.126521 *  0.588166 *  0.031000 *   4.00000    1.000000    
     21 Si    c    0.469618 *  0.888044 *  0.696782 *   4.00000    1.000000    
     22 Si    c    0.584942 *  0.468315 *  0.862742 *   4.00000    1.000000    
     23 Si    c    0.885310 *  0.418807 *  0.533468 *   4.00000    1.000000    
     24 Ge    c    0.522132 *  0.090071 *  0.204170 *   4.00000    1.000000    
     25 Si    c    0.304088 *  0.397215 *  0.847991 *   4.00000    1.000000    
     26 Si    c    0.599516 *  0.896852 *  0.180976 *   4.00000    1.000000    
     27 Si    c    0.093789 *  0.699813 *  0.518126 *   4.00000    1.000000    
     28 Si    c    0.696350 *  0.603688 *  0.352740 *   4.00000    1.000000    
     29 Si    c    0.397922 *  0.097142 *  0.683201 *   4.00000    1.000000    
     30 Si    c    0.908975 *  0.299691 *  0.018220 *   4.00000    1.000000    
     31 Si    c    0.394879 *  0.305620 *  0.482432 *   4.00000    1.000000    
     32 Si    c    0.897926 *  0.599858 *  0.152156 *   4.00000    1.000000    
     33 Si    c    0.699347 *  0.095105 *  0.812905 *   4.00000    1.000000    
     34 Si    c    0.605784 *  0.693984 *  0.978711 *   4.00000    1.000000    
     35 Si    c    0.097094 *  0.398683 *  0.648008 *   4.00000    1.000000    
     36 Si    c    0.300228 *  0.908169 *  0.314540 *   4.00000    1.000000    
     37 Si    c    0.252126 *  0.338381 *  0.948254 *   4.00000    1.000000    
     38 Si    c    0.660343 *  0.917323 *  0.283776 *   4.00000    1.000000    
     39 Si    c    0.089323 *  0.750052 *  0.618600 *   4.00000    1.000000    
     40 Si    c    0.745764 *  0.663439 *  0.453095 *   4.00000    1.000000    
     41 Si    c    0.339856 *  0.087082 *  0.783648 *   4.00000    1.000000    
     42 Si    c    0.909458 *  0.242287 *  0.120718 *   4.00000    1.000000    
     43 Si    c    0.338414 *  0.253773 *  0.381928 *   4.00000    1.000000    
     44 Si    c    0.922245 *  0.665282 *  0.049346 *   4.00000    1.000000    
     45 Si    c    0.749188 *  0.089523 *  0.712465 *   4.00000    1.000000    
     46 Si    c    0.663215 *  0.746744 *  0.878236 *   4.00000    1.000000    
     47 Si    c    0.085920 *  0.340592 *  0.547538 *   4.00000    1.000000    
     48 Si    c    0.242003 *  0.908959 *  0.212233 *   4.00000    1.000000    
     49 Si    c    0.973648 *  0.119860 *  0.965573 *   4.00000    1.000000    
     50 Si    c    0.874513 *  0.851000 *  0.301018 *   4.00000    1.000000    
     51 Si    c    0.149000 *  0.028971 *  0.633000 *   4.00000    1.000000    
     52 Si    c    0.026805 *  0.880798 *  0.466883 *   4.00000    1.000000    
     53 Si    c    0.122207 *  0.148468 *  0.798734 *   4.00000    1.000000    
     54 Si    c    0.841660 *  0.958227 *  0.132086 *   4.00000    1.000000    
     55 Si    c    0.119822 *  0.973535 *  0.365762 *   4.00000    1.000000    
     56 Si    c    0.853515 *  0.876411 *  0.031009 *   4.00000    1.000000    
     57 Si    c    0.028284 *  0.149415 *  0.698006 *   4.00000    1.000000    
     58 Si    c    0.880049 *  0.028073 *  0.864355 *   4.00000    1.000000    
     59 Si    c    0.146867 *  0.123040 *  0.532311 *   4.00000    1.000000    
     60 Si    c    0.957558 *  0.842168 *  0.200060 *   4.00000    1.000000    
     61 O2    c    0.933339 *  0.998424 *  0.998302 *   0.87073    1.000000    
     62 O2    c    0.998573 *  0.933339 *  0.332787 *   0.87073    1.000000    
     63 O2    c    0.069282 *  0.069837 *  0.665504 *   0.87073    1.000000    
     64 O2    c    0.069939 *  0.003816 *  0.498584 *   0.87073    1.000000    
     65 O2    c    0.003591 *  0.071726 *  0.832778 *   0.87073    1.000000    
     66 O2    c    0.927671 *  0.926139 *  0.165192 *   0.87073    1.000000    
     67 O2    c    0.339573 *  0.581485 *  0.332875 *   0.87073    1.000000    
     68 O2    c    0.422132 *  0.763182 *  0.664505 *   0.87073    1.000000    
     69 O2    c    0.242050 *  0.659863 *  0.994018 *   0.87073    1.000000    
     70 O2    c    0.661357 *  0.419332 *  0.830925 *   0.87073    1.000000    
     71 O3    c    0.575919 *  0.230567 *  0.169633 *   1.33043    1.000000    
     72 O2    c    0.756994 *  0.342780 *  0.502205 *   0.87073    1.000000    
     73 O3    c    0.573844 *  0.335067 *  0.996301 *   1.33043    1.000000    
     74 O2    c    0.762913 *  0.422833 *  0.666736 *   0.87073    1.000000    
     75 O2    c    0.660627 *  0.238669 *  0.339986 *   0.87073    1.000000    
     76 O2    c    0.417041 *  0.661901 *  0.498978 *   0.87073    1.000000    
     77 O3    c    0.229325 *  0.573760 *  0.166465 *   1.33043    1.000000    
     78 O2    c    0.342243 *  0.759529 *  0.830141 *   0.87073    1.000000    
     79 O2    c    0.128382 *  0.210670 *  0.968884 *   0.87073    1.000000    
     80 O2    c    0.781942 *  0.911884 *  0.305939 *   0.87073    1.000000    
     81 O2    c    0.088325 *  0.875056 *  0.638802 *   0.87073    1.000000    
     82 O2    c    0.872368 *  0.790933 *  0.472694 *   0.87073    1.000000    
     83 O2    c    0.213205 *  0.085292 *  0.803803 *   0.87073    1.000000    
     84 O2    c    0.894654 *  0.108868 *  0.139197 *   0.87073    1.000000    
     85 O2    c    0.211813 *  0.128096 *  0.361404 *   0.87073    1.000000    
     86 O2    c    0.923398 *  0.791833 *  0.028497 *   0.87073    1.000000    
     87 O2    c    0.874241 *  0.088634 *  0.692141 *   0.87073    1.000000    
     88 O2    c    0.790171 *  0.873702 *  0.858545 *   0.87073    1.000000    
     89 O2    c    0.083018 *  0.213416 *  0.527453 *   0.87073    1.000000    
     90 O2    c    0.108619 *  0.895072 *  0.194218 *   0.87073    1.000000    
     91 O2    c    0.923466 *  0.863522 *  0.250243 *   0.87073    1.000000    
     92 O2    c    0.132536 *  0.066540 *  0.582405 *   0.87073    1.000000    
     93 O2    c    0.928331 *  0.066988 *  0.915353 *   0.87073    1.000000    
     94 O2    c    0.065133 *  0.132307 *  0.748646 *   0.87073    1.000000    
     95 O2    c    0.859809 *  0.927838 *  0.081066 *   0.87073    1.000000    
     96 O2    c    0.066517 *  0.930813 *  0.416036 *   0.87073    1.000000    
     97 O2    c    0.908943 *  0.203806 *  0.979594 *   0.87073    1.000000    
     98 O2    c    0.795211 *  0.699895 *  0.314425 *   0.87073    1.000000    
     99 O2    c    0.301289 *  0.100246 *  0.644860 *   0.87073    1.000000    
    100 O2    c    0.095239 *  0.798267 *  0.479719 *   0.87073    1.000000    
    101 O2    c    0.206365 *  0.300952 *  0.809375 *   0.87073    1.000000    
    102 O2    c    0.690520 *  0.876167 *  0.145053 *   0.87073    1.000000    
    103 O2    c    0.202417 *  0.905622 *  0.352896 *   0.87073    1.000000    
    104 O2    c    0.702944 *  0.790899 *  0.017166 *   0.87073    1.000000    
    105 O2    c    0.100001 *  0.301734 *  0.686250 *   0.87073    1.000000    
    106 O2    c    0.797757 *  0.096644 *  0.851350 *   0.87073    1.000000    
    107 O2    c    0.298799 *  0.207861 *  0.520999 *   0.87073    1.000000    
    108 O2    c    0.876829 *  0.690421 *  0.188162 *   0.87073    1.000000    
    109 O2    c    0.316924 *  0.650521 *  0.249747 *   0.87073    1.000000    
    110 O2    c    0.354329 *  0.678566 *  0.582090 *   0.87073    1.000000    
    111 O2    c    0.328048 *  0.677114 *  0.912759 *   0.87073    1.000000    
    112 O2    c    0.678139 *  0.354537 *  0.748642 *   0.87073    1.000000    
    113 O3    c    0.641823 *  0.313255 *  0.086258 *   1.33043    1.000000    
    114 O2    c    0.676493 *  0.328127 *  0.419806 *   0.87073    1.000000    
    115 O2    c    0.373692 *  0.327698 *  0.966692 *   0.87073    1.000000    
    116 O2    c    0.671123 *  0.048450 *  0.302967 *   0.87073    1.000000    
    117 O2    c    0.957626 *  0.627236 *  0.637349 *   0.87073    1.000000    
    118 O2    c    0.623348 *  0.674384 *  0.470280 *   0.87073    1.000000    
    119 O2    c    0.330019 *  0.954172 *  0.801584 *   0.87073    1.000000    
    120 O3    c    0.041396 *  0.356065 *  0.139972 *   1.33043    1.000000    
    121 O2    c    0.329116 *  0.376080 *  0.362658 *   0.87073    1.000000    
    122 O2    c    0.052865 *  0.672521 *  0.030922 *   0.87073    1.000000    
    123 O2    c    0.626078 *  0.957403 *  0.694141 *   0.87073    1.000000    
    124 O2    c    0.673226 *  0.624899 *  0.859893 *   0.87073    1.000000    
    125 O2    c    0.952987 *  0.330918 *  0.529659 *   0.87073    1.000000    
    126 O3    c    0.355996 *  0.041146 *  0.193456 *   1.33043    1.000000    
    127 O3    c    0.777472 *  0.299787 *  0.011365 *   1.33043    1.000000    
    128 O2    c    0.693855 *  0.468570 *  0.345846 *   0.87073    1.000000    
    129 O2    c    0.532974 *  0.231030 *  0.675895 *   0.87073    1.000000    
    130 O2    c    0.226534 *  0.698059 *  0.510158 *   0.87073    1.000000    
    131 O2    c    0.306296 *  0.532164 *  0.840449 *   0.87073    1.000000    
    132 O2    c    0.461439 *  0.764599 *  0.178937 *   0.87073    1.000000    
    133 O2    c    0.303817 *  0.775713 *  0.320731 *   0.87073    1.000000    
    134 O2    c    0.470557 *  0.691620 *  0.985984 *   0.87073    1.000000    
    135 O2    c    0.231294 *  0.533677 *  0.654978 *   0.87073    1.000000    
    136 O2    c    0.697754 *  0.227904 *  0.820872 *   0.87073    1.000000    
    137 O2    c    0.529220 *  0.307081 *  0.490947 *   0.87073    1.000000    
    138 O2    c    0.765206 *  0.462476 *  0.153729 *   0.87073    1.000000    
    139 O3    c    0.796790 *  0.540956 *  0.030443 *   1.33043    1.000000    
    140 O2    c    0.463761 *  0.251237 *  0.363750 *   0.87073    1.000000    
    141 O2    c    0.750385 *  0.216303 *  0.693173 *   0.87073    1.000000    
    142 O2    c    0.212197 *  0.465980 *  0.527546 *   0.87073    1.000000    
    143 O2    c    0.538481 *  0.748435 *  0.858105 *   0.87073    1.000000    
    144 O2    c    0.253337 *  0.788450 *  0.193785 *   0.87073    1.000000    
    145 O2    c    0.528689 *  0.793452 *  0.300956 *   0.87073    1.000000    
    146 O2    c    0.250361 *  0.463197 *  0.967476 *   0.87073    1.000000    
    147 O2    c    0.216508 *  0.751260 *  0.637558 *   0.87073    1.000000    
    148 O2    c    0.465575 *  0.213151 *  0.803534 *   0.87073    1.000000    
    149 O2    c    0.746298 *  0.539205 *  0.474239 *   0.87073    1.000000    
    150 O2    c    0.788286 *  0.253375 *  0.138653 *   0.87073    1.000000    
    151 O2    c    0.232218 *  0.321661 *  0.894018 *   0.87073    1.000000    
    152 O2    c    0.674698 *  0.915486 *  0.229717 *   0.87073    1.000000    
    153 O2    c    0.090397 *  0.769637 *  0.564367 *   0.87073    1.000000    
    154 O2    c    0.766738 *  0.678786 *  0.398950 *   0.87073    1.000000    
    155 O2    c    0.322872 *  0.090857 *  0.729407 *   0.87073    1.000000    
    156 O2    c    0.911241 *  0.233325 *  0.065697 *   0.87073    1.000000    
    157 O2    c    0.319868 *  0.234933 *  0.436142 *   0.87073    1.000000    
    158 O2    c    0.916895 *  0.675119 *  0.103606 *   0.87073    1.000000    
    159 O2    c    0.769389 *  0.091685 *  0.766700 *   0.87073    1.000000    
    160 O2    c    0.680100 *  0.765130 *  0.932458 *   0.87073    1.000000    
    161 O2    c    0.090034 *  0.323547 *  0.601761 *   0.87073    1.000000    
    162 O2    c    0.232935 *  0.909572 *  0.267404 *   0.87073    1.000000    
    163 O2    c    0.593009 *  0.554698 *  0.987532 *   0.87073    1.000000    
    164 O2    c    0.442019 *  0.030625 *  0.322231 *   0.87073    1.000000    
    165 O2    c    0.972697 *  0.413400 *  0.657546 *   0.87073    1.000000    
    166 O2    c    0.409021 *  0.444973 *  0.490616 *   0.87073    1.000000    
    167 O2    c    0.559515 *  0.969221 *  0.821393 *   0.87073    1.000000    
    168 O3    c    0.022895 *  0.593912 *  0.165263 *   1.33043    1.000000    
    169 O2    c    0.557777 *  0.592132 *  0.343284 *   0.87073    1.000000    
    170 O2    c    0.031303 *  0.442964 *  0.011253 *   0.87073    1.000000    
    171 O2    c    0.411929 *  0.972282 *  0.673969 *   0.87073    1.000000    
    172 O2    c    0.443460 *  0.411314 *  0.839494 *   0.87073    1.000000    
    173 O2    c    0.967821 *  0.559962 *  0.509780 *   0.87073    1.000000    
    174 O3    c    0.594258 *  0.022241 *  0.168182 *   1.33043    1.000000    
    175 O3    c    0.594834 *  0.185620 *  0.254736 *   1.33043    1.000000    
    176 O2    c    0.833729 *  0.417678 *  0.584212 *   0.87073    1.000000    
    177 O2    c    0.584892 *  0.413997 *  0.913366 *   0.87073    1.000000    
    178 O2    c    0.416410 *  0.833911 *  0.747386 *   0.87073    1.000000    
    179 O3    c    0.186969 *  0.593237 *  0.079425 *   1.33043    1.000000    
    180 O2    c    0.413699 *  0.585427 *  0.416163 *   0.87073    1.000000    
    181 F     c    0.468997 *  0.946231 *  0.241058 *   0.56000    1.000000    
    182 F     c    0.095149 *  0.548527 *  0.583062 *   0.56000    1.000000    
    183 F     c    0.455772 *  0.544347 *  0.913705 *   0.56000    1.000000    
    184 F     c    0.548108 *  0.095947 *  0.748076 *   0.56000    1.000000    
    185 F     c    0.946466 *  0.469313 *  0.092179 *   0.56000    1.000000    
    186 F     c    0.544873 *  0.455941 *  0.417407 *   0.56000    1.000000    
    187 O2    s    0.928963 *  0.998444 *  0.998274 *  -2.87073    1.000000    
    188 O2    s    0.998358 *  0.928722 *  0.332950 *  -2.87073    1.000000    
    189 O2    s    0.073598 *  0.074153 *  0.665504 *  -2.87073    1.000000    
    190 O2    s    0.073719 *  0.003398 *  0.498811 *  -2.87073    1.000000    
    191 O2    s    0.003055 *  0.075423 *  0.832500 *  -2.87073    1.000000    
    192 O2    s    0.921226 *  0.920188 *  0.165392 *  -2.87073    1.000000    
    193 O2    s    0.350923 *  0.589128 *  0.332749 *  -2.87073    1.000000    
    194 O2    s    0.414225 *  0.767205 *  0.664513 *  -2.87073    1.000000    
    195 O2    s    0.239315 *  0.648519 *  0.994487 *  -2.87073    1.000000    
    196 O2    s    0.649410 *  0.411667 *  0.830879 *  -2.87073    1.000000    
    197 O3    s    0.585449 *  0.230224 *  0.168353 *  -3.33043    1.000000    
    198 O2    s    0.761628 *  0.354872 *  0.502049 *  -2.87073    1.000000    
    199 O3    s    0.579580 *  0.346060 *  0.996093 *  -3.33043    1.000000    
    200 O2    s    0.766968 *  0.414895 *  0.666711 *  -2.87073    1.000000    
    201 O2    s    0.649142 *  0.236212 *  0.339310 *  -2.87073    1.000000    
    202 O2    s    0.409624 *  0.650015 *  0.499099 *  -2.87073    1.000000    
    203 O3    s    0.229696 *  0.583866 *  0.167511 *  -3.33043    1.000000    
    204 O2    s    0.354209 *  0.763926 *  0.830202 *  -2.87073    1.000000    
    205 O2    s    0.124644 *  0.214221 *  0.966398 *  -2.87073    1.000000    
    206 O2    s    0.779238 *  0.905945 *  0.303145 *  -2.87073    1.000000    
    207 O2    s    0.094879 *  0.878477 *  0.636121 *  -2.87073    1.000000    
    208 O2    s    0.875697 *  0.787311 *  0.470075 *  -2.87073    1.000000    
    209 O2    s    0.216631 *  0.092154 *  0.801213 *  -2.87073    1.000000    
    210 O2    s    0.890267 *  0.106434 *  0.136416 *  -2.87073    1.000000    
    211 O2    s    0.215110 *  0.124635 *  0.363968 *  -2.87073    1.000000    
    212 O2    s    0.915773 *  0.788028 *  0.030881 *  -2.87073    1.000000    
    213 O2    s    0.877677 *  0.095188 *  0.694840 *  -2.87073    1.000000    
    214 O2    s    0.786596 *  0.876967 *  0.861173 *  -2.87073    1.000000    
    215 O2    s    0.090076 *  0.216941 *  0.530014 *  -2.87073    1.000000    
    216 O2    s    0.106149 *  0.890579 *  0.196827 *  -2.87073    1.000000    
    217 O2    s    0.921711 *  0.859681 *  0.250386 *  -2.87073    1.000000    
    218 O2    s    0.135995 *  0.068675 *  0.582458 *  -2.87073    1.000000    
    219 O2    s    0.927977 *  0.068524 *  0.915231 *  -2.87073    1.000000    
    220 O2    s    0.067417 *  0.136047 *  0.748592 *  -2.87073    1.000000    
    221 O2    s    0.857021 *  0.925392 *  0.081137 *  -2.87073    1.000000    
    222 O2    s    0.068057 *  0.930014 *  0.416087 *  -2.87073    1.000000    
    223 O2    s    0.915966 *  0.204480 *  0.982004 *  -2.87073    1.000000    
    224 O2    s    0.793516 *  0.706107 *  0.316934 *  -2.87073    1.000000    
    225 O2    s    0.294968 *  0.092372 *  0.647504 *  -2.87073    1.000000    
    226 O2    s    0.087803 *  0.796963 *  0.482295 *  -2.87073    1.000000    
    227 O2    s    0.207429 *  0.294619 *  0.812192 *  -2.87073    1.000000    
    228 O2    s    0.697521 *  0.886838 *  0.147225 *  -2.87073    1.000000    
    229 O2    s    0.203691 *  0.913052 *  0.350337 *  -2.87073    1.000000    
    230 O2    s    0.708907 *  0.789976 *  0.014660 *  -2.87073    1.000000    
    231 O2    s    0.092124 *  0.295471 *  0.683608 *  -2.87073    1.000000    
    232 O2    s    0.796415 *  0.089184 *  0.848781 *  -2.87073    1.000000    
    233 O2    s    0.292428 *  0.208844 *  0.518246 *  -2.87073    1.000000    
    234 O2    s    0.887426 *  0.697595 *  0.185883 *  -2.87073    1.000000    
    235 O2    s    0.322631 *  0.660170 *  0.250072 *  -2.87073    1.000000    
    236 O2    s    0.342488 *  0.672660 *  0.582110 *  -2.87073    1.000000    
    237 O2    s    0.333587 *  0.671065 *  0.912739 *  -2.87073    1.000000    
    238 O2    s    0.672172 *  0.342656 *  0.748637 *  -2.87073    1.000000    
    239 O3    s    0.651200 *  0.318447 *  0.086373 *  -3.33043    1.000000    
    240 O2    s    0.670326 *  0.333684 *  0.419750 *  -2.87073    1.000000    
    241 O2    s    0.376948 *  0.337763 *  0.964386 *  -2.87073    1.000000    
    242 O2    s    0.662004 *  0.041977 *  0.300920 *  -2.87073    1.000000    
    243 O2    s    0.964344 *  0.624018 *  0.635090 *  -2.87073    1.000000    
    244 O2    s    0.620040 *  0.664172 *  0.468151 *  -2.87073    1.000000    
    245 O2    s    0.340082 *  0.961080 *  0.799341 *  -2.87073    1.000000    
    246 O3    s    0.031044 *  0.355512 *  0.137249 *  -3.33043    1.000000    
    247 O2    s    0.339042 *  0.379526 *  0.365000 *  -2.87073    1.000000    
    248 O2    s    0.046434 *  0.663589 *  0.032866 *  -2.87073    1.000000    
    249 O2    s    0.622886 *  0.964167 *  0.696357 *  -2.87073    1.000000    
    250 O2    s    0.663121 *  0.621557 *  0.862112 *  -2.87073    1.000000    
    251 O2    s    0.959947 *  0.340994 *  0.531933 *  -2.87073    1.000000    
    252 O3    s    0.355176 *  0.030550 *  0.196169 *  -3.33043    1.000000    
    253 O3    s    0.784921 *  0.305705 *  0.013840 *  -3.33043    1.000000    
    254 O2    s    0.686585 *  0.468269 *  0.349004 *  -2.87073    1.000000    
    255 O2    s    0.533497 *  0.223793 *  0.679026 *  -2.87073    1.000000    
    256 O2    s    0.219591 *  0.690448 *  0.513281 *  -2.87073    1.000000    
    257 O2    s    0.313894 *  0.532651 *  0.843557 *  -2.87073    1.000000    
    258 O2    s    0.461171 *  0.771463 *  0.180995 *  -2.87073    1.000000    
    259 O2    s    0.310672 *  0.781944 *  0.317891 *  -2.87073    1.000000    
    260 O2    s    0.470097 *  0.684541 *  0.982856 *  -2.87073    1.000000    
    261 O2    s    0.223986 *  0.534170 *  0.651882 *  -2.87073    1.000000    
    262 O2    s    0.690130 *  0.220949 *  0.817726 *  -2.87073    1.000000    
    263 O2    s    0.529937 *  0.314794 *  0.487807 *  -2.87073    1.000000    
    264 O2    s    0.772084 *  0.462056 *  0.151929 *  -2.87073    1.000000    
    265 O3    s    0.801704 *  0.540048 *  0.032675 *  -3.33043    1.000000    
    266 O2    s    0.466360 *  0.259320 *  0.366266 *  -2.87073    1.000000    
    267 O2    s    0.742475 *  0.210926 *  0.695793 *  -2.87073    1.000000    
    268 O2    s    0.207063 *  0.468702 *  0.530147 *  -2.87073    1.000000    
    269 O2    s    0.535627 *  0.740526 *  0.860724 *  -2.87073    1.000000    
    270 O2    s    0.258490 *  0.791585 *  0.196051 *  -2.87073    1.000000    
    271 O2    s    0.526267 *  0.797118 *  0.298959 *  -2.87073    1.000000    
    272 O2    s    0.258563 *  0.465965 *  0.964973 *  -2.87073    1.000000    
    273 O2    s    0.211052 *  0.743317 *  0.634981 *  -2.87073    1.000000    
    274 O2    s    0.468239 *  0.208021 *  0.800909 *  -2.87073    1.000000    
    275 O2    s    0.738557 *  0.536363 *  0.471504 *  -2.87073    1.000000    
    276 O2    s    0.791363 *  0.258526 *  0.136660 *  -2.87073    1.000000    
    277 O2    s    0.241834 *  0.331326 *  0.894934 *  -2.87073    1.000000    
    278 O2    s    0.665995 *  0.913971 *  0.230904 *  -2.87073    1.000000    
    279 O2    s    0.090640 *  0.760246 *  0.565258 *  -2.87073    1.000000    
    280 O2    s    0.757107 *  0.669261 *  0.399849 *  -2.87073    1.000000    
    281 O2    s    0.332496 *  0.091109 *  0.730325 *  -2.87073    1.000000    
    282 O2    s    0.910868 *  0.241300 *  0.066190 *  -2.87073    1.000000    
    283 O2    s    0.329650 *  0.244313 *  0.435242 *  -2.87073    1.000000    
    284 O2    s    0.915712 *  0.666818 *  0.102509 *  -2.87073    1.000000    
    285 O2    s    0.759919 *  0.091819 *  0.765804 *  -2.87073    1.000000    
    286 O2    s    0.670498 *  0.755700 *  0.931547 *  -2.87073    1.000000    
    287 O2    s    0.090333 *  0.333197 *  0.600854 *  -2.87073    1.000000    
    288 O2    s    0.241143 *  0.909385 *  0.267025 *  -2.87073    1.000000    
    289 O2    s    0.587910 *  0.555123 *  0.984203 *  -2.87073    1.000000    
    290 O2    s    0.440883 *  0.026269 *  0.319457 *  -2.87073    1.000000    
    291 O2    s    0.977460 *  0.417980 *  0.654141 *  -2.87073    1.000000    
    292 O2    s    0.413708 *  0.444703 *  0.487269 *  -2.87073    1.000000    
    293 O2    s    0.559822 *  0.974320 *  0.818044 *  -2.87073    1.000000    
    294 O3    s    0.014045 *  0.589622 *  0.161547 *  -3.33043    1.000000    
    295 O2    s    0.557678 *  0.587015 *  0.346646 *  -2.87073    1.000000    
    296 O2    s    0.027610 *  0.442129 *  0.013994 *  -2.87073    1.000000    
    297 O2    s    0.416606 *  0.977108 *  0.677343 *  -2.87073    1.000000    
    298 O2    s    0.443236 *  0.415930 *  0.842845 *  -2.87073    1.000000    
    299 O2    s    0.972988 *  0.560357 *  0.513143 *  -2.87073    1.000000    
    300 O3    s    0.589962 *  0.013233 *  0.171854 *  -3.33043    1.000000    
    301 O3    s    0.589521 *  0.172939 *  0.256616 *  -3.33043    1.000000    
    302 O2    s    0.844874 *  0.423373 *  0.584175 *  -2.87073    1.000000    
    303 O2    s    0.579266 *  0.419558 *  0.913305 *  -2.87073    1.000000    
    304 O2    s    0.422079 *  0.844994 *  0.747409 *  -2.87073    1.000000    
    305 O3    s    0.174462 *  0.588095 *  0.077662 *  -3.33043    1.000000    
    306 O2    s    0.419375 *  0.580007 *  0.416203 *  -2.87073    1.000000    
    307 F     s    0.473268 *  0.957079 *  0.238429 *  -1.56000    1.000000    
    308 F     s    0.095556 *  0.548692 *  0.583063 *  -1.56000    1.000000    
    309 F     s    0.455711 *  0.544344 *  0.913752 *  -1.56000    1.000000    
    310 F     s    0.548315 *  0.096406 *  0.748077 *  -1.56000    1.000000    
    311 F     s    0.956309 *  0.473180 *  0.094608 *  -1.56000    1.000000    
    312 F     s    0.544985 *  0.455839 *  0.417377 *  -1.56000    1.000000    
--------------------------------------------------------------------------------



********************************************************************************
*  General input information                                                   *
********************************************************************************

  Species output for all configurations : 

--------------------------------------------------------------------------------
  Species    Type    Atomic    Atomic    Charge       Radii (Angs)     Library
                     Number     Mass       (e)     Cova   Ionic  VDW   Symbol
--------------------------------------------------------------------------------
    Si       Core       14      28.09   4.000000   1.200  0.000  2.100          
    O1       Core        8      16.00   1.733957   0.730  0.000  1.360          
    O1       Shell       8       0.00  -3.733957   0.730  0.000  1.360          
    O2       Core        8      16.00   0.870733   0.730  0.000  1.360          
    O2       Shell       8       0.00  -2.870733   0.730  0.000  1.360          
    O3       Core        8      16.00   1.330431   0.730  0.000  1.360          
    O3       Shell       8       0.00  -3.330431   0.730  0.000  1.360          
    F        Core        9      19.00   0.560000   0.710  0.000  1.300          
    F        Shell       9       0.00  -1.560000   0.710  0.000  1.300          
    Ge       Core       32      72.61   4.000000   1.170  0.000  1.750          
--------------------------------------------------------------------------------


  Lattice summation method               =    Ewald          (3-D)
                                         =    Parry          (2-D)
                                         =    Saunders et al (1-D)
  Accuracy factor for lattice sums       =   12.000


  Time limit = Infinity

  Maximum range for interatomic potentials =        16.000000 Angstroms

  Taper potentials to zero over   1.0000 Angstroms using polynomial

  General interatomic potentials :

--------------------------------------------------------------------------------
Atom  Types   Potential         A         B         C         D     Cutoffs(Ang)
  1     2                                                            Min    Max 
--------------------------------------------------------------------------------
Si   c O1   s Buckingham    0.132E+04 0.318      10.1      0.00     0.000 16.000
Si   c O2   s Buckingham    0.132E+04 0.318      10.1      0.00     0.000 16.000
Si   c O3   s Buckingham    0.132E+04 0.318      10.1      0.00     0.000 16.000
Ge   c O1   s Buckingham    0.150E+04 0.326      16.8      0.00     0.000 16.000
Ge   c O2   s Buckingham    0.150E+04 0.326      16.8      0.00     0.000 16.000
Ge   c O3   s Buckingham    0.150E+04 0.326      16.8      0.00     0.000 16.000
O1   s O1   s Buckingham    0.228E+05 0.149      10.9      0.00     0.000 16.000
O1   s O2   s Buckingham    0.228E+05 0.149      10.9      0.00     0.000 16.000
O1   s O3   s Buckingham    0.228E+05 0.149      10.9      0.00     0.000 16.000
O2   s O2   s Buckingham    0.228E+05 0.149      10.9      0.00     0.000 16.000
O2   s O3   s Buckingham    0.228E+05 0.149      10.9      0.00     0.000 16.000
O3   s O3   s Buckingham    0.228E+05 0.149      10.9      0.00     0.000 16.000
Si   c F    s Buckingham     977.     0.282      0.00      0.00     0.000 16.000
Ge   c F    s Buckingham     681.     0.320      0.00      0.00     0.000 16.000
F    s F    s Buckingham     540.     0.262      0.00      0.00     0.000 16.000
O1   s F    s Buckingham    0.168E+04 0.268      0.00      0.00     0.000 16.000
O2   s F    s Buckingham    0.168E+04 0.268      0.00      0.00     0.000 16.000
O3   s F    s Buckingham    0.168E+04 0.268      0.00      0.00     0.000 16.000
O2   c O2   s Spring (c-s)   76.0      0.00      0.00      0.00     0.000  0.800
O3   c O3   s Spring (c-s)   128.      0.00      0.00      0.00     0.000  0.800
O1   c O1   s Spring (c-s)   180.      0.00      0.00      0.00     0.000  0.800
F    c F    s Spring (c-s)   33.5      0.00      0.00      0.00     0.000  0.800
--------------------------------------------------------------------------------

  General Three-body potentials :

  Harmonic form:

--------------------------------------------------------------------------------
Atom    Atom    Atom           Force Constants            Theta     Cutoffs  
  1       2       3     (eVrad**-2/eVrad**-3/eVrad**-4)   (deg)  1-2  1-3  2-3
--------------------------------------------------------------------------------
Si    c O1    s O1    s  1.261        0.0000    0.0000   109.470 0.00 0.00 0.00
                                                                 1.90 1.90 3.50
Si    c O1    s O2    s  1.261        0.0000    0.0000   109.470 0.00 0.00 0.00
                                                                 1.90 1.90 3.50
Si    c O2    s O2    s  1.261        0.0000    0.0000   109.470 0.00 0.00 0.00
                                                                 1.90 1.90 3.50
--------------------------------------------------------------------------------

********************************************************************************
*  Output for configuration   1                                                *
********************************************************************************


  Components of energy : 

--------------------------------------------------------------------------------
  Interatomic potentials     =        2064.26087366 eV
  Three-body potentials      =           0.42595818 eV
  Monopole - monopole (real) =       -6615.48058355 eV
  Monopole - monopole (recip)=       -3169.77373024 eV
  Monopole - monopole (total)=       -9785.25431379 eV
  Neutralising energy        =          -6.45681396 eV
--------------------------------------------------------------------------------
  Total lattice energy       =       -7727.02429591 eV
--------------------------------------------------------------------------------
  Total lattice energy       =         -745539.7262 kJ/(mole unit cells)
--------------------------------------------------------------------------------


  Number of variables =      939

  Maximum number of calculations  =          1000
  Maximum Hessian update interval =            10
  Maximum step size               =   1.000000000
  Maximum parameter tolerance     =   0.000010000
  Maximum function  tolerance     =   0.000010000
  Maximum gradient  tolerance     =   0.001000000
  Maximum gradient  component     =   0.010000000

  Symmetry not applied to optimisation

  Cell parameters to be optimised using strains

  Newton-Raphson optimiser to be used

  BFGS hessian update to be used

  Dumpfile to be written after every cycle

  Start of bulk optimisation :

  Cycle:      0 Energy:     -7727.024296  Gnorm:      0.000510  CPU:    1.063
  ** Hessian calculated **
  Cycle:      1 Energy:     -7727.042603  Gnorm:      0.002227  CPU:    2.968
  Cycle:      2 Energy:     -7727.042720  Gnorm:      0.000072  CPU:    4.349
  Cycle:      3 Energy:     -7727.042725  Gnorm:      0.000062  CPU:    5.730


  **** Optimisation achieved ****


  Final energy =   -7727.04272460 eV
  Final Gnorm  =       0.00000337

  Components of energy : 

--------------------------------------------------------------------------------
  Interatomic potentials     =        2064.17395163 eV
  Three-body potentials      =           0.42474788 eV
  Monopole - monopole (real) =       -6615.86191309 eV
  Monopole - monopole (recip)=       -3169.32361354 eV
  Monopole - monopole (total)=       -9785.18552663 eV
  Neutralising energy        =          -6.45589747 eV
--------------------------------------------------------------------------------
  Total lattice energy       =       -7727.04272460 eV
--------------------------------------------------------------------------------
  Total lattice energy       =         -745541.5043 kJ/(mole unit cells)
--------------------------------------------------------------------------------

  Final fractional coordinates of atoms :

--------------------------------------------------------------------------------
   No.  Atomic        x           y          z          Radius
        Label       (Frac)      (Frac)     (Frac)       (Angs) 
--------------------------------------------------------------------------------
     1  Ge    c     0.699600    0.375700    0.033890    0.000000
     2  Si    c     0.609943    0.327395    0.370115    0.000000
     3  Si    c     0.668401    0.295683    0.699206    0.000000
     4  Si    c     0.286459    0.622905    0.533762    0.000000
     5  Si    c     0.376768    0.674717    0.864371    0.000000
     6  Si    c     0.303211    0.692150    0.198910    0.000000
     7  Si    c     0.365532    0.705219    0.301561    0.000000
     8  Si    c     0.323270    0.616985    0.964896    0.000000
     9  Si    c     0.288543    0.676270    0.634086    0.000000
    10  Si    c     0.615753    0.294888    0.799414    0.000000
    11  Si    c     0.664851    0.383386    0.470440    0.000000
    12  Si    c     0.684783    0.309415    0.137828    0.000000
    13  Si    c     0.527362    0.410981    0.964054    0.000000
    14  Si    c     0.579255    0.126794    0.302955    0.000000
    15  Si    c     0.879375    0.469918    0.635339    0.000000
    16  Si    c     0.458610    0.587036    0.469220    0.000000
    17  Si    c     0.411417    0.885761    0.800069    0.000000
    18  Ge    c     0.083953    0.518640    0.132125    0.000000
    19  Si    c     0.406362    0.534670    0.367919    0.000000
    20  Si    c     0.124480    0.587266    0.033432    0.000000
    21  Si    c     0.461443    0.886352    0.698674    0.000000
    22  Si    c     0.579876    0.468107    0.863051    0.000000
    23  Si    c     0.877192    0.419103    0.534066    0.000000
    24  Ge    c     0.511692    0.089242    0.204346    0.000000
    25  Si    c     0.299051    0.396931    0.848964    0.000000
    26  Si    c     0.589123    0.895726    0.181740    0.000000
    27  Si    c     0.085630    0.700354    0.519260    0.000000
    28  Si    c     0.686314    0.605573    0.354341    0.000000
    29  Si    c     0.389545    0.095113    0.684489    0.000000
    30  Si    c     0.907878    0.298892    0.019648    0.000000
    31  Si    c     0.386662    0.306437    0.483931    0.000000
    32  Si    c     0.890095    0.596346    0.153878    0.000000
    33  Si    c     0.693157    0.094427    0.814364    0.000000
    34  Si    c     0.602321    0.691179    0.979555    0.000000
    35  Si    c     0.087811    0.397573    0.649231    0.000000
    36  Si    c     0.291368    0.910932    0.315503    0.000000
    37  Si    c     0.249117    0.336087    0.949261    0.000000
    38  Si    c     0.651497    0.919818    0.284564    0.000000
    39  Si    c     0.080148    0.749121    0.619807    0.000000
    40  Si    c     0.737245    0.664219    0.454696    0.000000
    41  Si    c     0.333422    0.086427    0.785085    0.000000
    42  Si    c     0.902139    0.239263    0.122352    0.000000
    43  Si    c     0.328529    0.255659    0.383430    0.000000
    44  Si    c     0.920095    0.664816    0.051140    0.000000
    45  Si    c     0.741087    0.087522    0.713804    0.000000
    46  Si    c     0.658024    0.746032    0.879098    0.000000
    47  Si    c     0.077697    0.340881    0.548655    0.000000
    48  Si    c     0.231977    0.907980    0.213075    0.000000
    49  Si    c     0.970818    0.117901    0.966800    0.000000
    50  Si    c     0.864949    0.852374    0.302136    0.000000
    51  Si    c     0.140608    0.028021    0.634230    0.000000
    52  Si    c     0.018422    0.881430    0.468102    0.000000
    53  Si    c     0.116238    0.148526    0.799948    0.000000
    54  Si    c     0.830722    0.954232    0.133164    0.000000
    55  Si    c     0.110329    0.975545    0.366910    0.000000
    56  Si    c     0.849272    0.874452    0.032389    0.000000
    57  Si    c     0.020232    0.148375    0.699353    0.000000
    58  Si    c     0.874381    0.027583    0.865637    0.000000
    59  Si    c     0.138865    0.123387    0.533598    0.000000
    60  Si    c     0.946690    0.838010    0.201418    0.000000
    61  O2    c     0.929837    0.996717    0.999788    0.000000
    62  O2    c     0.989300    0.935280    0.333763    0.000000
    63  O2    c     0.061763    0.069529    0.666802    0.000000
    64  O2    c     0.062079    0.004619    0.499709    0.000000
    65  O2    c     0.998074    0.072249    0.834147    0.000000
    66  O2    c     0.914328    0.919462    0.166333    0.000000
    67  O2    c     0.330807    0.585102    0.335278    0.000000
    68  O2    c     0.412576    0.761142    0.666528    0.000000
    69  O2    c     0.240235    0.657895    0.996530    0.000000
    70  O2    c     0.656049    0.419501    0.831050    0.000000
    71  O3    c     0.566489    0.228325    0.169015    0.000000
    72  O2    c     0.749211    0.343143    0.502615    0.000000
    73  O3    c     0.573862    0.334047    0.996012    0.000000
    74  O2    c     0.753566    0.420459    0.667191    0.000000
    75  O2    c     0.650617    0.241460    0.340093    0.000000
    76  O2    c     0.409407    0.662879    0.501142    0.000000
    77  O3    c     0.220315    0.571037    0.169228    0.000000
    78  O2    c     0.336312    0.759445    0.832405    0.000000
    79  O2    c     0.125751    0.207243    0.969563    0.000000
    80  O2    c     0.773871    0.915097    0.306445    0.000000
    81  O2    c     0.078927    0.873987    0.639969    0.000000
    82  O2    c     0.864199    0.791277    0.474286    0.000000
    83  O2    c     0.207092    0.085234    0.805161    0.000000
    84  O2    c     0.885279    0.104960    0.140739    0.000000
    85  O2    c     0.201367    0.130319    0.363034    0.000000
    86  O2    c     0.921545    0.792030    0.030738    0.000000
    87  O2    c     0.866073    0.086422    0.693597    0.000000
    88  O2    c     0.784435    0.873437    0.859391    0.000000
    89  O2    c     0.075203    0.213917    0.528642    0.000000
    90  O2    c     0.097855    0.892493    0.195184    0.000000
    91  O2    c     0.913239    0.860983    0.251459    0.000000
    92  O2    c     0.124333    0.066386    0.583672    0.000000
    93  O2    c     0.922520    0.064791    0.916772    0.000000
    94  O2    c     0.058374    0.131957    0.749931    0.000000
    95  O2    c     0.850574    0.925054    0.082195    0.000000
    96  O2    c     0.056703    0.930936    0.417090    0.000000
    97  O2    c     0.908750    0.203799    0.981094    0.000000
    98  O2    c     0.784757    0.701880    0.316056    0.000000
    99  O2    c     0.292745    0.098064    0.646152    0.000000
   100  O2    c     0.087335    0.799246    0.480887    0.000000
   101  O2    c     0.200632    0.301081    0.810398    0.000000
   102  O2    c     0.679293    0.873909    0.145773    0.000000
   103  O2    c     0.193993    0.909133    0.353803    0.000000
   104  O2    c     0.699672    0.787559    0.017953    0.000000
   105  O2    c     0.090618    0.300544    0.687495    0.000000
   106  O2    c     0.792070    0.096352    0.852776    0.000000
   107  O2    c     0.290845    0.208184    0.522468    0.000000
   108  O2    c     0.867670    0.685948    0.189912    0.000000
   109  O2    c     0.307806    0.651959    0.251974    0.000000
   110  O2    c     0.345294    0.678572    0.583892    0.000000
   111  O2    c     0.323260    0.675034    0.914785    0.000000
   112  O2    c     0.671077    0.352740    0.749261    0.000000
   113  O3    c     0.638593    0.311431    0.085881    0.000000
   114  O2    c     0.666540    0.328718    0.420466    0.000000
   115  O2    c     0.371024    0.325525    0.967455    0.000000
   116  O2    c     0.661949    0.051128    0.303391    0.000000
   117  O2    c     0.948237    0.626129    0.638310    0.000000
   118  O2    c     0.615216    0.675157    0.472229    0.000000
   119  O2    c     0.323693    0.953774    0.803381    0.000000
   120  O3    c     0.033746    0.352391    0.142004    0.000000
   121  O2    c     0.319333    0.378363    0.364453    0.000000
   122  O2    c     0.050852    0.671801    0.033010    0.000000
   123  O2    c     0.617778    0.955191    0.695745    0.000000
   124  O2    c     0.668095    0.624692    0.860341    0.000000
   125  O2    c     0.945091    0.331397    0.530454    0.000000
   126  O3    c     0.345305    0.039949    0.193850    0.000000
   127  O3    c     0.777542    0.300477    0.011448    0.000000
   128  O2    c     0.683248    0.470415    0.346990    0.000000
   129  O2    c     0.524610    0.228560    0.676864    0.000000
   130  O2    c     0.218542    0.698842    0.511591    0.000000
   131  O2    c     0.300525    0.531719    0.841987    0.000000
   132  O2    c     0.451526    0.763014    0.180629    0.000000
   133  O2    c     0.296221    0.779402    0.322482    0.000000
   134  O2    c     0.467123    0.688168    0.987461    0.000000
   135  O2    c     0.221623    0.532558    0.656467    0.000000
   136  O2    c     0.691757    0.227413    0.821931    0.000000
   137  O2    c     0.520877    0.307338    0.492043    0.000000
   138  O2    c     0.756697    0.459663    0.154156    0.000000
   139  O3    c     0.795614    0.541075    0.031380    0.000000
   140  O2    c     0.453425    0.253005    0.364877    0.000000
   141  O2    c     0.742087    0.213864    0.694041    0.000000
   142  O2    c     0.204035    0.466641    0.528947    0.000000
   143  O2    c     0.532781    0.747746    0.859503    0.000000
   144  O2    c     0.243682    0.787357    0.194981    0.000000
   145  O2    c     0.520477    0.796314    0.302371    0.000000
   146  O2    c     0.246844    0.460246    0.968928    0.000000
   147  O2    c     0.207015    0.750282    0.639146    0.000000
   148  O2    c     0.459500    0.212543    0.804685    0.000000
   149  O2    c     0.737660    0.539396    0.475353    0.000000
   150  O2    c     0.781119    0.251106    0.139886    0.000000
   151  O2    c     0.228515    0.320355    0.895027    0.000000
   152  O2    c     0.665136    0.916811    0.230499    0.000000
   153  O2    c     0.081777    0.769522    0.565574    0.000000
   154  O2    c     0.757364    0.680146    0.400528    0.000000
   155  O2    c     0.315588    0.089548    0.730843    0.000000
   156  O2    c     0.905898    0.231230    0.067322    0.000000
   157  O2    c     0.310831    0.236414    0.437664    0.000000
   158  O2    c     0.913145    0.673369    0.105387    0.000000
   159  O2    c     0.762222    0.090390    0.768030    0.000000
   160  O2    c     0.675793    0.763434    0.933323    0.000000
   161  O2    c     0.081250    0.323232    0.602886    0.000000
   162  O2    c     0.223352    0.909952    0.268234    0.000000
   163  O2    c     0.590506    0.552239    0.988027    0.000000
   164  O2    c     0.432860    0.034090    0.322576    0.000000
   165  O2    c     0.963283    0.412113    0.658429    0.000000
   166  O2    c     0.401224    0.445746    0.492576    0.000000
   167  O2    c     0.553348    0.968903    0.823159    0.000000
   168  O3    c     0.013388    0.588331    0.167628    0.000000
   169  O2    c     0.547982    0.594614    0.345151    0.000000
   170  O2    c     0.030555    0.442043    0.013553    0.000000
   171  O2    c     0.403417    0.970101    0.675642    0.000000
   172  O2    c     0.438382    0.411768    0.839865    0.000000
   173  O2    c     0.959943    0.560566    0.510583    0.000000
   174  O3    c     0.582568    0.020006    0.168411    0.000000
   175  O3    c     0.584884    0.186701    0.254626    0.000000
   176  O2    c     0.825188    0.417484    0.584762    0.000000
   177  O2    c     0.580472    0.412580    0.913405    0.000000
   178  O2    c     0.409185    0.832711    0.749413    0.000000
   179  O3    c     0.182370    0.591381    0.082210    0.000000
   180  O2    c     0.404788    0.586919    0.418383    0.000000
   181  F     c     0.459449    0.947014    0.241847    0.000000
   182  F     c     0.086223    0.548552    0.584195    0.000000
   183  F     c     0.451585    0.542744    0.914664    0.000000
   184  F     c     0.540924    0.094298    0.749474    0.000000
   185  F     c     0.941313    0.467242    0.093653    0.000000
   186  F     c     0.535308    0.457329    0.418939    0.000000
   187  O2    s     0.925477    0.996708    0.999711    0.000000
   188  O2    s     0.989044    0.930626    0.333963    0.000000
   189  O2    s     0.065936    0.073702    0.666798    0.000000
   190  O2    s     0.065777    0.004116    0.499962    0.000000
   191  O2    s     0.997446    0.075777    0.833846    0.000000
   192  O2    s     0.908383    0.914060    0.166551    0.000000
   193  O2    s     0.342182    0.592536    0.335079    0.000000
   194  O2    s     0.404829    0.765332    0.666495    0.000000
   195  O2    s     0.237227    0.646558    0.996937    0.000000
   196  O2    s     0.644012    0.411661    0.831086    0.000000
   197  O3    s     0.576090    0.227964    0.167899    0.000000
   198  O2    s     0.753697    0.355198    0.502520    0.000000
   199  O3    s     0.579187    0.345036    0.995835    0.000000
   200  O2    s     0.757807    0.412667    0.667208    0.000000
   201  O2    s     0.639172    0.238839    0.339489    0.000000
   202  O2    s     0.401856    0.650933    0.501205    0.000000
   203  O3    s     0.220632    0.581252    0.170126    0.000000
   204  O2    s     0.348242    0.763708    0.832387    0.000000
   205  O2    s     0.121913    0.211019    0.967180    0.000000
   206  O2    s     0.770953    0.908893    0.303751    0.000000
   207  O2    s     0.085612    0.877450    0.637299    0.000000
   208  O2    s     0.867453    0.787720    0.471630    0.000000
   209  O2    s     0.210504    0.092047    0.802564    0.000000
   210  O2    s     0.880964    0.102688    0.137912    0.000000
   211  O2    s     0.204809    0.126790    0.365529    0.000000
   212  O2    s     0.913644    0.787924    0.032983    0.000000
   213  O2    s     0.869539    0.093119    0.696270    0.000000
   214  O2    s     0.780924    0.876636    0.862066    0.000000
   215  O2    s     0.082197    0.217411    0.531206    0.000000
   216  O2    s     0.095498    0.888010    0.197824    0.000000
   217  O2    s     0.911503    0.857415    0.251603    0.000000
   218  O2    s     0.127793    0.068489    0.583721    0.000000
   219  O2    s     0.922536    0.066559    0.916621    0.000000
   220  O2    s     0.060604    0.135667    0.749875    0.000000
   221  O2    s     0.848180    0.922583    0.082292    0.000000
   222  O2    s     0.058443    0.930412    0.417172    0.000000
   223  O2    s     0.915440    0.204234    0.983503    0.000000
   224  O2    s     0.783184    0.708050    0.318527    0.000000
   225  O2    s     0.286462    0.090332    0.648792    0.000000
   226  O2    s     0.079836    0.797871    0.483455    0.000000
   227  O2    s     0.201733    0.294702    0.813223    0.000000
   228  O2    s     0.686431    0.884498    0.147972    0.000000
   229  O2    s     0.195110    0.916345    0.351269    0.000000
   230  O2    s     0.705583    0.786843    0.015496    0.000000
   231  O2    s     0.082881    0.294306    0.684855    0.000000
   232  O2    s     0.790691    0.088856    0.850208    0.000000
   233  O2    s     0.284449    0.209216    0.519702    0.000000
   234  O2    s     0.878198    0.693245    0.187599    0.000000
   235  O2    s     0.313607    0.661600    0.252233    0.000000
   236  O2    s     0.333459    0.672635    0.583900    0.000000
   237  O2    s     0.328814    0.669044    0.914715    0.000000
   238  O2    s     0.665073    0.340844    0.749272    0.000000
   239  O3    s     0.647893    0.316688    0.086148    0.000000
   240  O2    s     0.660472    0.334310    0.420440    0.000000
   241  O2    s     0.374205    0.335536    0.965143    0.000000
   242  O2    s     0.652893    0.044628    0.301362    0.000000
   243  O2    s     0.955016    0.622939    0.636047    0.000000
   244  O2    s     0.611886    0.664970    0.470076    0.000000
   245  O2    s     0.333719    0.960626    0.801123    0.000000
   246  O3    s     0.023432    0.351880    0.139254    0.000000
   247  O2    s     0.329274    0.381741    0.366793    0.000000
   248  O2    s     0.044409    0.662937    0.034947    0.000000
   249  O2    s     0.614624    0.962019    0.697959    0.000000
   250  O2    s     0.657994    0.621315    0.862589    0.000000
   251  O2    s     0.951983    0.341422    0.532737    0.000000
   252  O3    s     0.344566    0.029435    0.196588    0.000000
   253  O3    s     0.784745    0.306291    0.014084    0.000000
   254  O2    s     0.676048    0.470047    0.350162    0.000000
   255  O2    s     0.525155    0.221381    0.680001    0.000000
   256  O2    s     0.211528    0.691192    0.514709    0.000000
   257  O2    s     0.308216    0.532184    0.845058    0.000000
   258  O2    s     0.451260    0.770015    0.182622    0.000000
   259  O2    s     0.302889    0.785471    0.319579    0.000000
   260  O2    s     0.466592    0.681193    0.984297    0.000000
   261  O2    s     0.214383    0.533088    0.653370    0.000000
   262  O2    s     0.684102    0.220365    0.818798    0.000000
   263  O2    s     0.521578    0.315108    0.488921    0.000000
   264  O2    s     0.763795    0.459258    0.152466    0.000000
   265  O3    s     0.800460    0.540013    0.033616    0.000000
   266  O2    s     0.456103    0.261060    0.367392    0.000000
   267  O2    s     0.734223    0.208575    0.696689    0.000000
   268  O2    s     0.198846    0.469281    0.531548    0.000000
   269  O2    s     0.530007    0.739825    0.862102    0.000000
   270  O2    s     0.248805    0.790508    0.197276    0.000000
   271  O2    s     0.517982    0.799932    0.300371    0.000000
   272  O2    s     0.255054    0.463112    0.966426    0.000000
   273  O2    s     0.201636    0.742362    0.636550    0.000000
   274  O2    s     0.462073    0.207348    0.802052    0.000000
   275  O2    s     0.729927    0.536642    0.472641    0.000000
   276  O2    s     0.784175    0.256134    0.137830    0.000000
   277  O2    s     0.238066    0.330024    0.895946    0.000000
   278  O2    s     0.656450    0.915191    0.231691    0.000000
   279  O2    s     0.082011    0.760112    0.566453    0.000000
   280  O2    s     0.747742    0.670598    0.401436    0.000000
   281  O2    s     0.325202    0.089795    0.731734    0.000000
   282  O2    s     0.905776    0.239277    0.067768    0.000000
   283  O2    s     0.320605    0.245760    0.436750    0.000000
   284  O2    s     0.911744    0.665062    0.104259    0.000000
   285  O2    s     0.752752    0.090514    0.767156    0.000000
   286  O2    s     0.666170    0.753980    0.932403    0.000000
   287  O2    s     0.081558    0.332874    0.601994    0.000000
   288  O2    s     0.231613    0.909887    0.267874    0.000000
   289  O2    s     0.585298    0.552705    0.984722    0.000000
   290  O2    s     0.431715    0.029550    0.319849    0.000000
   291  O2    s     0.968134    0.416737    0.655035    0.000000
   292  O2    s     0.405832    0.445489    0.489192    0.000000
   293  O2    s     0.553628    0.973941    0.819801    0.000000
   294  O3    s     0.004752    0.584436    0.163844    0.000000
   295  O2    s     0.547918    0.589398    0.348512    0.000000
   296  O2    s     0.026613    0.441126    0.016218    0.000000
   297  O2    s     0.408138    0.975016    0.678998    0.000000
   298  O2    s     0.438134    0.416230    0.843271    0.000000
   299  O2    s     0.965038    0.560906    0.513957    0.000000
   300  O3    s     0.578525    0.011132    0.172129    0.000000
   301  O3    s     0.579653    0.174113    0.256595    0.000000
   302  O2    s     0.836344    0.423151    0.584741    0.000000
   303  O2    s     0.574924    0.418207    0.913404    0.000000
   304  O2    s     0.414843    0.843809    0.749410    0.000000
   305  O3    s     0.169964    0.586292    0.080296    0.000000
   306  O2    s     0.410502    0.581490    0.418382    0.000000
   307  F     s     0.463687    0.957864    0.239144    0.000000
   308  F     s     0.086602    0.548733    0.584190    0.000000
   309  F     s     0.451538    0.542745    0.914704    0.000000
   310  F     s     0.541134    0.094729    0.749480    0.000000
   311  F     s     0.951196    0.471072    0.096178    0.000000
   312  F     s     0.535383    0.457249    0.418913    0.000000
--------------------------------------------------------------------------------

  Final Cartesian lattice vectors (Angstroms) :

       11.982533    0.002171   -0.006935
       -6.040175   10.356136    0.008420
       -0.254787    0.148154   29.522076


  Final cell parameters and derivatives :

--------------------------------------------------------------------------------
       a           11.982536 Angstrom     dE/de1(xx)     0.000124 eV/strain
       b           11.988884 Angstrom     dE/de2(yy)     0.000106 eV/strain
       c           29.523547 Angstrom     dE/de3(zz)     0.000202 eV/strain
       alpha       89.462276 Degrees      dE/de4(yz)     0.000050 eV/strain
       beta        90.527575 Degrees      dE/de5(xz)    -0.000123 eV/strain
       gamma      120.242334 Degrees      dE/de6(xy)     0.000022 eV/strain
--------------------------------------------------------------------------------

  Primitive cell volume =          3663.835461 Angs**3

  Density of cell =      1.746283 g/cm**3

  Non-primitive cell volume =          3663.835461 Angs**3


  Final internal derivatives :

--------------------------------------------------------------------------------
   No.  Atomic          a             b             c           Radius
        Label          (eV)          (eV)          (eV)        (eV/Angs)
--------------------------------------------------------------------------------
      1 Ge    c       0.000000      0.000000      0.000000      0.000000
      2 Si    c      -0.000006      0.000010      0.000082      0.000000
      3 Si    c       0.000028      0.000019     -0.000063      0.000000
      4 Si    c      -0.000016      0.000011      0.000037      0.000000
      5 Si    c      -0.000024      0.000007      0.000089      0.000000
      6 Si    c      -0.000085      0.000019     -0.000317      0.000000
      7 Si    c      -0.000001      0.000013      0.000014      0.000000
      8 Si    c      -0.000029      0.000002     -0.000165      0.000000
      9 Si    c       0.000018      0.000016      0.000046      0.000000
     10 Si    c       0.000012      0.000013     -0.000015      0.000000
     11 Si    c      -0.000024      0.000015     -0.000097      0.000000
     12 Si    c       0.000126     -0.000022      0.000133      0.000000
     13 Si    c      -0.000019     -0.000001      0.000094      0.000000
     14 Si    c       0.000026     -0.000005      0.000041      0.000000
     15 Si    c      -0.000035      0.000016      0.000098      0.000000
     16 Si    c      -0.000000      0.000002     -0.000009      0.000000
     17 Si    c      -0.000004     -0.000002      0.000019      0.000000
     18 Ge    c      -0.000083     -0.000031      0.000087      0.000000
     19 Si    c      -0.000009      0.000000     -0.000021      0.000000
     20 Si    c       0.000031      0.000051     -0.000195      0.000000
     21 Si    c       0.000009     -0.000033     -0.000075      0.000000
     22 Si    c       0.000007     -0.000001      0.000083      0.000000
     23 Si    c       0.000015     -0.000006     -0.000032      0.000000
     24 Ge    c      -0.000010     -0.000018      0.000092      0.000000
     25 Si    c      -0.000028     -0.000025      0.000015      0.000000
     26 Si    c       0.000018     -0.000013     -0.000027      0.000000
     27 Si    c       0.000000      0.000000     -0.000024      0.000000
     28 Si    c       0.000015      0.000009      0.000030      0.000000
     29 Si    c      -0.000018     -0.000001      0.000000      0.000000
     30 Si    c       0.000090     -0.000106     -0.000237      0.000000
     31 Si    c      -0.000022     -0.000003      0.000017      0.000000
     32 Si    c       0.000047     -0.000141     -0.000064      0.000000
     33 Si    c       0.000015     -0.000003      0.000005      0.000000
     34 Si    c       0.000047     -0.000002     -0.000030      0.000000
     35 Si    c       0.000003     -0.000011      0.000018      0.000000
     36 Si    c      -0.000030      0.000010      0.000091      0.000000
     37 Si    c      -0.000022     -0.000008     -0.000059      0.000000
     38 Si    c       0.000006     -0.000013     -0.000036      0.000000
     39 Si    c      -0.000003      0.000001      0.000011      0.000000
     40 Si    c      -0.000004      0.000010     -0.000009      0.000000
     41 Si    c      -0.000030      0.000005     -0.000006      0.000000
     42 Si    c      -0.000129      0.000058     -0.000138      0.000000
     43 Si    c      -0.000009      0.000007      0.000007      0.000000
     44 Si    c       0.000016     -0.000052      0.000130      0.000000
     45 Si    c       0.000012     -0.000003      0.000009      0.000000
     46 Si    c       0.000023      0.000008      0.000023      0.000000
     47 Si    c       0.000004     -0.000009     -0.000026      0.000000
     48 Si    c      -0.000024      0.000025     -0.000066      0.000000
     49 Si    c      -0.000108      0.000022      0.000162      0.000000
     50 Si    c      -0.000084      0.000166      0.000013      0.000000
     51 Si    c       0.000003     -0.000005      0.000062      0.000000
     52 Si    c       0.000032     -0.000012      0.000112      0.000000
     53 Si    c       0.000016     -0.000007      0.000016      0.000000
     54 Si    c      -0.000032      0.000013      0.000029      0.000000
     55 Si    c       0.000032     -0.000056     -0.000107      0.000000
     56 Si    c       0.000177     -0.000114     -0.000797      0.000000
     57 Si    c      -0.000018      0.000014     -0.000030      0.000000
     58 Si    c      -0.000011      0.000038     -0.000037      0.000000
     59 Si    c      -0.000005      0.000004      0.000000      0.000000
     60 Si    c       0.000073     -0.000002     -0.000069      0.000000
     61 O2    c      -0.000037      0.000050     -0.000025      0.000000
     62 O2    c       0.000031     -0.000010      0.000022      0.000000
     63 O2    c       0.000028     -0.000002     -0.000029      0.000000
     64 O2    c      -0.000002     -0.000002     -0.000012      0.000000
     65 O2    c      -0.000029      0.000007      0.000054      0.000000
     66 O2    c      -0.000078     -0.000066      0.000121      0.000000
     67 O2    c       0.000005      0.000008      0.000025      0.000000
     68 O2    c      -0.000020      0.000014      0.000017      0.000000
     69 O2    c      -0.000009      0.000030      0.000120      0.000000
     70 O2    c      -0.000006      0.000015     -0.000031      0.000000
     71 O3    c      -0.000122      0.000011     -0.000324      0.000000
     72 O2    c       0.000069     -0.000051      0.000100      0.000000
     73 O3    c       0.000112     -0.000009     -0.000360      0.000000
     74 O2    c       0.000017     -0.000034     -0.000008      0.000000
     75 O2    c       0.000053     -0.000050     -0.000139      0.000000
     76 O2    c       0.000037     -0.000016     -0.000041      0.000000
     77 O3    c       0.000024      0.000052      0.000417      0.000000
     78 O2    c      -0.000034      0.000046     -0.000048      0.000000
     79 O2    c       0.000079      0.000022     -0.000028      0.000000
     80 O2    c       0.000024      0.000005     -0.000038      0.000000
     81 O2    c      -0.000009      0.000032     -0.000018      0.000000
     82 O2    c      -0.000035     -0.000006      0.000040      0.000000
     83 O2    c      -0.000007      0.000009     -0.000010      0.000000
     84 O2    c      -0.000020     -0.000040     -0.000043      0.000000
     85 O2    c      -0.000000      0.000045      0.000001      0.000000
     86 O2    c       0.000119     -0.000083     -0.000000      0.000000
     87 O2    c       0.000039     -0.000015      0.000025      0.000000
     88 O2    c      -0.000011     -0.000033     -0.000020      0.000000
     89 O2    c       0.000007     -0.000008      0.000000      0.000000
     90 O2    c      -0.000120      0.000017      0.000050      0.000000
     91 O2    c       0.000134     -0.000283     -0.000192      0.000000
     92 O2    c       0.000000      0.000001      0.000000      0.000000
     93 O2    c      -0.000054     -0.000002      0.000050      0.000000
     94 O2    c      -0.000000      0.000002     -0.000051      0.000000
     95 O2    c      -0.000418      0.000376      0.001585      0.000000
     96 O2    c      -0.000014     -0.000003     -0.000082      0.000000
     97 O2    c       0.000113     -0.000029      0.000053      0.000000
     98 O2    c       0.000006     -0.000016      0.000026      0.000000
     99 O2    c      -0.000027      0.000001     -0.000021      0.000000
    100 O2    c       0.000007     -0.000008     -0.000009      0.000000
    101 O2    c      -0.000001      0.000011      0.000018      0.000000
    102 O2    c       0.000052      0.000032     -0.000120      0.000000
    103 O2    c       0.000004      0.000004     -0.000016      0.000000
    104 O2    c      -0.000027     -0.000004      0.000003      0.000000
    105 O2    c      -0.000001     -0.000031      0.000013      0.000000
    106 O2    c       0.000011     -0.000005      0.000030      0.000000
    107 O2    c       0.000021      0.000002     -0.000021      0.000000
    108 O2    c      -0.000021      0.000083      0.000155      0.000000
    109 O2    c      -0.000005      0.000014      0.000106      0.000000
    110 O2    c       0.000004     -0.000000      0.000016      0.000000
    111 O2    c       0.000011     -0.000007     -0.000040      0.000000
    112 O2    c       0.000003     -0.000003     -0.000002      0.000000
    113 O3    c       0.000107     -0.000043     -0.001310      0.000000
    114 O2    c       0.000003     -0.000000      0.000020      0.000000
    115 O2    c      -0.000034      0.000006     -0.000014      0.000000
    116 O2    c      -0.000000      0.000005      0.000007      0.000000
    117 O2    c      -0.000001     -0.000007      0.000006      0.000000
    118 O2    c       0.000000     -0.000000      0.000010      0.000000
    119 O2    c       0.000003     -0.000005     -0.000002      0.000000
    120 O3    c       0.000015      0.000018      0.000067      0.000000
    121 O2    c       0.000002      0.000000     -0.000003      0.000000
    122 O2    c      -0.000025      0.000005      0.000017      0.000000
    123 O2    c       0.000004     -0.000008     -0.000013      0.000000
    124 O2    c      -0.000001      0.000008     -0.000004      0.000000
    125 O2    c      -0.000001      0.000002     -0.000000      0.000000
    126 O3    c      -0.000017      0.000004     -0.000052      0.000000
    127 O3    c      -0.000225      0.000029      0.000284      0.000000
    128 O2    c       0.000016     -0.000021     -0.000011      0.000000
    129 O2    c       0.000006      0.000014     -0.000009      0.000000
    130 O2    c       0.000004     -0.000002      0.000001      0.000000
    131 O2    c      -0.000032      0.000049     -0.000006      0.000000
    132 O2    c       0.000037     -0.000010      0.000088      0.000000
    133 O2    c       0.000042     -0.000053      0.000015      0.000000
    134 O2    c      -0.000023      0.000021      0.000068      0.000000
    135 O2    c       0.000010      0.000003     -0.000005      0.000000
    136 O2    c       0.000006     -0.000002      0.000004      0.000000
    137 O2    c       0.000024     -0.000021      0.000012      0.000000
    138 O2    c       0.000050     -0.000020      0.000095      0.000000
    139 O3    c       0.000053     -0.000145     -0.000571      0.000000
    140 O2    c       0.000014     -0.000020     -0.000040      0.000000
    141 O2    c      -0.000011      0.000009      0.000011      0.000000
    142 O2    c       0.000009     -0.000014     -0.000013      0.000000
    143 O2    c      -0.000012      0.000022     -0.000023      0.000000
    144 O2    c       0.000005      0.000011     -0.000022      0.000000
    145 O2    c       0.000008     -0.000006      0.000004      0.000000
    146 O2    c      -0.000031     -0.000004      0.000035      0.000000
    147 O2    c       0.000002     -0.000004     -0.000009      0.000000
    148 O2    c      -0.000023      0.000017      0.000041      0.000000
    149 O2    c       0.000020     -0.000019      0.000013      0.000000
    150 O2    c      -0.000039      0.000040     -0.000276      0.000000
    151 O2    c       0.000010     -0.000007      0.000114      0.000000
    152 O2    c      -0.000003      0.000009     -0.000092      0.000000
    153 O2    c      -0.000001      0.000001      0.000010      0.000000
    154 O2    c       0.000001      0.000001      0.000006      0.000000
    155 O2    c       0.000001      0.000002     -0.000001      0.000000
    156 O2    c       0.000194     -0.000112      0.000676      0.000000
    157 O2    c      -0.000001      0.000000     -0.000002      0.000000
    158 O2    c      -0.000120     -0.000018      0.000498      0.000000
    159 O2    c      -0.000002      0.000000     -0.000008      0.000000
    160 O2    c       0.000005      0.000005     -0.000030      0.000000
    161 O2    c       0.000005     -0.000007      0.000010      0.000000
    162 O2    c      -0.000023      0.000000     -0.000214      0.000000
    163 O2    c       0.000013     -0.000016     -0.000003      0.000000
    164 O2    c       0.000031      0.000020      0.000011      0.000000
    165 O2    c       0.000003      0.000005     -0.000024      0.000000
    166 O2    c      -0.000000      0.000004      0.000023      0.000000
    167 O2    c      -0.000009     -0.000010      0.000019      0.000000
    168 O3    c      -0.000145      0.000083     -0.000225      0.000000
    169 O2    c      -0.000008     -0.000001      0.000004      0.000000
    170 O2    c       0.000056      0.000081     -0.000115      0.000000
    171 O2    c       0.000003      0.000003      0.000011      0.000000
    172 O2    c       0.000027     -0.000009     -0.000064      0.000000
    173 O2    c      -0.000003     -0.000009     -0.000004      0.000000
    174 O3    c      -0.000055      0.000060      0.000112      0.000000
    175 O3    c       0.000024      0.000010     -0.000127      0.000000
    176 O2    c      -0.000006     -0.000004      0.000012      0.000000
    177 O2    c      -0.000024      0.000022     -0.000018      0.000000
    178 O2    c      -0.000003     -0.000005      0.000011      0.000000
    179 O3    c       0.000101      0.000001      0.000414      0.000000
    180 O2    c       0.000000      0.000002      0.000024      0.000000
    181 F     c       0.000004     -0.000018      0.000020      0.000000
    182 F     c       0.000007     -0.000005     -0.000020      0.000000
    183 F     c      -0.000002      0.000001      0.000007      0.000000
    184 F     c      -0.000004      0.000005      0.000014      0.000000
    185 F     c      -0.000025      0.000002      0.000001      0.000000
    186 F     c       0.000005     -0.000004     -0.000004      0.000000
    187 O2    s       0.000078      0.000003     -0.000061      0.000000
    188 O2    s      -0.000031      0.000051     -0.000098      0.000000
    189 O2    s      -0.000003      0.000009      0.000002      0.000000
    190 O2    s       0.000004      0.000012      0.000046      0.000000
    191 O2    s       0.000011      0.000003     -0.000038      0.000000
    192 O2    s      -0.000039     -0.000041     -0.000063      0.000000
    193 O2    s      -0.000005     -0.000000      0.000003      0.000000
    194 O2    s       0.000011     -0.000008      0.000013      0.000000
    195 O2    s      -0.000001     -0.000008      0.000022      0.000000
    196 O2    s       0.000002     -0.000001      0.000049      0.000000
    197 O3    s      -0.000037      0.000026      0.000202      0.000000
    198 O2    s      -0.000000     -0.000006     -0.000007      0.000000
    199 O3    s      -0.000050     -0.000009      0.000236      0.000000
    200 O2    s      -0.000009      0.000026     -0.000021      0.000000
    201 O2    s      -0.000012      0.000008      0.000032      0.000000
    202 O2    s      -0.000003      0.000002     -0.000028      0.000000
    203 O3    s       0.000062     -0.000082     -0.000059      0.000000
    204 O2    s      -0.000014     -0.000005      0.000010      0.000000
    205 O2    s       0.000039     -0.000067     -0.000108      0.000000
    206 O2    s       0.000045      0.000005      0.000017      0.000000
    207 O2    s       0.000001      0.000003      0.000034      0.000000
    208 O2    s      -0.000015      0.000007      0.000019      0.000000
    209 O2    s       0.000008     -0.000010      0.000035      0.000000
    210 O2    s       0.000009     -0.000050      0.000028      0.000000
    211 O2    s      -0.000017      0.000017      0.000016      0.000000
    212 O2    s       0.000105      0.000024     -0.000053      0.000000
    213 O2    s       0.000005      0.000004     -0.000031      0.000000
    214 O2    s       0.000011     -0.000012     -0.000040      0.000000
    215 O2    s      -0.000006      0.000002     -0.000026      0.000000
    216 O2    s      -0.000024      0.000006     -0.000031      0.000000
    217 O2    s      -0.000003      0.000100     -0.000037      0.000000
    218 O2    s       0.000001     -0.000008      0.000043      0.000000
    219 O2    s       0.000001      0.000008     -0.000022      0.000000
    220 O2    s      -0.000007      0.000011     -0.000037      0.000000
    221 O2    s       0.000098     -0.000049     -0.000233      0.000000
    222 O2    s       0.000003     -0.000002      0.000017      0.000000
    223 O2    s      -0.000010     -0.000007     -0.000107      0.000000
    224 O2    s      -0.000070      0.000002      0.000055      0.000000
    225 O2    s      -0.000007     -0.000011     -0.000017      0.000000
    226 O2    s       0.000031     -0.000017      0.000035      0.000000
    227 O2    s      -0.000009      0.000002     -0.000029      0.000000
    228 O2    s       0.000092      0.000012      0.000043      0.000000
    229 O2    s       0.000005     -0.000007     -0.000005      0.000000
    230 O2    s      -0.000099     -0.000043     -0.000227      0.000000
    231 O2    s      -0.000012     -0.000005      0.000029      0.000000
    232 O2    s      -0.000008      0.000022     -0.000033      0.000000
    233 O2    s       0.000002     -0.000001     -0.000009      0.000000
    234 O2    s       0.000070      0.000033     -0.000126      0.000000
    235 O2    s      -0.000002     -0.000003      0.000016      0.000000
    236 O2    s       0.000001      0.000005      0.000013      0.000000
    237 O2    s      -0.000024      0.000018      0.000007      0.000000
    238 O2    s       0.000001      0.000005     -0.000007      0.000000
    239 O3    s      -0.000187      0.000105      0.000770      0.000000
    240 O2    s       0.000016     -0.000018     -0.000016      0.000000
    241 O2    s      -0.000001      0.000004      0.000049      0.000000
    242 O2    s       0.000004      0.000002      0.000003      0.000000
    243 O2    s      -0.000004      0.000000      0.000011      0.000000
    244 O2    s      -0.000007      0.000004      0.000011      0.000000
    245 O2    s       0.000001      0.000001      0.000007      0.000000
    246 O3    s       0.000015     -0.000043     -0.000005      0.000000
    247 O2    s      -0.000005      0.000004     -0.000009      0.000000
    248 O2    s       0.000053     -0.000003      0.000023      0.000000
    249 O2    s      -0.000000     -0.000001     -0.000017      0.000000
    250 O2    s      -0.000001      0.000003     -0.000033      0.000000
    251 O2    s      -0.000003     -0.000003     -0.000002      0.000000
    252 O3    s       0.000001     -0.000020      0.000121      0.000000
    253 O3    s      -0.000095      0.000017     -0.000211      0.000000
    254 O2    s      -0.000012      0.000022     -0.000036      0.000000
    255 O2    s       0.000004     -0.000003     -0.000031      0.000000
    256 O2    s      -0.000002     -0.000001     -0.000024      0.000000
    257 O2    s      -0.000010     -0.000005     -0.000025      0.000000
    258 O2    s      -0.000023      0.000010     -0.000042      0.000000
    259 O2    s       0.000001     -0.000031      0.000032      0.000000
    260 O2    s       0.000013     -0.000007      0.000032      0.000000
    261 O2    s      -0.000007      0.000005      0.000027      0.000000
    262 O2    s      -0.000010      0.000011      0.000031      0.000000
    263 O2    s      -0.000022      0.000011      0.000019      0.000000
    264 O2    s       0.000097      0.000061      0.000167      0.000000
    265 O3    s      -0.000049      0.000062      0.000008      0.000000
    266 O2    s      -0.000011      0.000013      0.000034      0.000000
    267 O2    s       0.000021     -0.000015     -0.000044      0.000000
    268 O2    s      -0.000011      0.000005     -0.000008      0.000000
    269 O2    s       0.000015     -0.000024      0.000035      0.000000
    270 O2    s      -0.000013     -0.000003      0.000031      0.000000
    271 O2    s      -0.000007     -0.000012      0.000041      0.000000
    272 O2    s       0.000069     -0.000045     -0.000055      0.000000
    273 O2    s      -0.000007      0.000008      0.000024      0.000000
    274 O2    s       0.000020     -0.000023     -0.000018      0.000000
    275 O2    s      -0.000013      0.000016     -0.000009      0.000000
    276 O2    s       0.000110     -0.000078      0.000107      0.000000
    277 O2    s      -0.000007     -0.000008      0.000033      0.000000
    278 O2    s      -0.000019      0.000033     -0.000023      0.000000
    279 O2    s      -0.000004      0.000004     -0.000018      0.000000
    280 O2    s       0.000001      0.000005     -0.000012      0.000000
    281 O2    s      -0.000005     -0.000005      0.000017      0.000000
    282 O2    s       0.000081     -0.000077      0.000002      0.000000
    283 O2    s      -0.000001     -0.000003      0.000016      0.000000
    284 O2    s       0.000037     -0.000077      0.000003      0.000000
    285 O2    s       0.000007     -0.000007      0.000007      0.000000
    286 O2    s       0.000007     -0.000005     -0.000048      0.000000
    287 O2    s      -0.000007     -0.000001     -0.000009      0.000000
    288 O2    s      -0.000007      0.000007     -0.000044      0.000000
    289 O2    s       0.000004     -0.000006      0.000051      0.000000
    290 O2    s       0.000003      0.000018      0.000009      0.000000
    291 O2    s      -0.000005     -0.000009      0.000045      0.000000
    292 O2    s       0.000003      0.000000     -0.000006      0.000000
    293 O2    s      -0.000011      0.000008     -0.000017      0.000000
    294 O3    s       0.000001      0.000077     -0.000003      0.000000
    295 O2    s      -0.000001      0.000008     -0.000036      0.000000
    296 O2    s      -0.000034      0.000081     -0.000269      0.000000
    297 O2    s      -0.000007     -0.000010     -0.000038      0.000000
    298 O2    s       0.000012     -0.000006     -0.000030      0.000000
    299 O2    s       0.000002     -0.000008      0.000007      0.000000
    300 O3    s       0.000038     -0.000073     -0.000143      0.000000
    301 O3    s      -0.000041      0.000021      0.000090      0.000000
    302 O2    s       0.000005      0.000001     -0.000023      0.000000
    303 O2    s       0.000009     -0.000015     -0.000087      0.000000
    304 O2    s      -0.000001     -0.000000      0.000016      0.000000
    305 O3    s      -0.000051     -0.000021     -0.000183      0.000000
    306 O2    s      -0.000002     -0.000001      0.000005      0.000000
    307 F     s      -0.000000      0.000014     -0.000031      0.000000
    308 F     s      -0.000015      0.000003      0.000033      0.000000
    309 F     s      -0.000005      0.000004     -0.000013      0.000000
    310 F     s       0.000004     -0.000011     -0.000015      0.000000
    311 F     s       0.000047      0.000001      0.000014      0.000000
    312 F     s      -0.000005      0.000005      0.000009      0.000000
--------------------------------------------------------------------------------
  Maximum abs         0.000418      0.000376      0.001585      0.000000
--------------------------------------------------------------------------------


  Time to end of optimisation =       7.1121 seconds


  Peak dynamic memory used =      19.13 MB 


  Timing analysis for GULP :

--------------------------------------------------------------------------------
  Task / Subroutine                                          Time (Seconds)
--------------------------------------------------------------------------------
  Calculation of reciprocal space energy and derivatives          0.2829
  Calculation of real space energy and derivatives                5.9428
  Calculation of three-body energy and derivatives                0.6566
  Calculation of matrix inversion                                 0.1920
--------------------------------------------------------------------------------
  Total CPU time                                                  7.1121
--------------------------------------------------------------------------------


  Dump file written as out.res                                                 
  CIF file written as out.cif                                                 


  Job Finished at 21:28.25  2nd December   2016                               

