********************************************************************************
*                       GENERAL UTILITY LATTICE PROGRAM                        *
*                                 Julian Gale                                  *
*                      Nanochemistry Research Institute                        *
*                           Department of Chemistry                            *
*                    Curtin University, Western Australia                      *
********************************************************************************
* Version = 4.2.0 * Last modified =  20th January 2014                         *
********************************************************************************
*  optimise     - perform optimisation run                                     *
*  conp         - constant pressure calculation                                *
*  qok          - running with non charge neutral cell is OK                   *
********************************************************************************

  Job Started  at 21:21.55  2nd December   2016                               

  Number of CPUs =     1


  Total number of configurations input =   1

********************************************************************************
*  Input for Configuration =   1                                               *
********************************************************************************

  Formula = Ge3Si57O120F6                                               

  Number of irreducible atoms/shells =     312


  Total number atoms/shells =     312

  Dimensionality = 3               :  Bulk   


  Charge on solid   =  -6.000000 =>neutralising background added


  Cartesian lattice vectors (Angstroms) :

       11.939089    0.000000    0.000000
       -6.019578   10.395599    0.000000
        0.070248   -0.096455   29.452291

  Cell parameters (Angstroms/Degrees):

  a =      11.9391    alpha =  90.2309
  b =      12.0127    beta  =  89.8633
  c =      29.4525    gamma = 120.0730

  Initial cell volume =        3655.441277 Angs**3

  Temperature of configuration =  0.000     K 

  Pressure of configuration =         0.000 GPa 

  Fractional coordinates of asymmetric unit :

--------------------------------------------------------------------------------
   No.  Atomic       x           y          z         Charge      Occupancy
        Label      (Frac)      (Frac)     (Frac)        (e)         (Frac)  
--------------------------------------------------------------------------------
      1 Ge    c    0.699600    0.375700    0.033890     4.00000    1.000000    
      2 Si    c    0.623832 *  0.322756 *  0.367339 *   4.00000    1.000000    
      3 Si    c    0.677763 *  0.295625 *  0.699565 *   4.00000    1.000000    
      4 Si    c    0.298077 *  0.618887 *  0.533677 *   4.00000    1.000000    
      5 Si    c    0.380968 *  0.675464 *  0.864547 *   4.00000    1.000000    
      6 Si    c    0.308149 *  0.682659 *  0.198064 *   4.00000    1.000000    
      7 Si    c    0.379069 *  0.696512 *  0.300796 *   4.00000    1.000000    
      8 Si    c    0.325411 *  0.618531 *  0.965052 *   4.00000    1.000000    
      9 Si    c    0.297826 *  0.674197 *  0.634278 *   4.00000    1.000000    
     10 Si    c    0.622693 *  0.295090 *  0.800165 *   4.00000    1.000000    
     11 Si    c    0.677914 *  0.378608 *  0.467999 *   4.00000    1.000000    
     12 Si    c    0.694186 *  0.326241 *  0.137844 *   4.00000    1.000000    
     13 Si    c    0.530109 *  0.415605 *  0.964996 *   4.00000    1.000000    
     14 Si    c    0.587998 *  0.112563 *  0.302039 *   4.00000    1.000000    
     15 Si    c    0.888358 *  0.469006 *  0.634991 *   4.00000    1.000000    
     16 Si    c    0.470426 *  0.580954 *  0.468311 *   4.00000    1.000000    
     17 Si    c    0.417782 *  0.886201 *  0.800602 *   4.00000    1.000000    
     18 Ge    c    0.084342 *  0.519977 *  0.131850 *   4.00000    1.000000    
     19 Si    c    0.418941 *  0.527730 *  0.366526 *   4.00000    1.000000    
     20 Si    c    0.123630 *  0.588196 *  0.033179 *   4.00000    1.000000    
     21 Si    c    0.470178 *  0.885430 *  0.698903 *   4.00000    1.000000    
     22 Si    c    0.585266 *  0.469525 *  0.863895 *   4.00000    1.000000    
     23 Si    c    0.887624 *  0.416052 *  0.533288 *   4.00000    1.000000    
     24 Si    c    0.527639 *  0.112907 *  0.199622 *   4.00000    1.000000    
     25 Si    c    0.303825 *  0.398008 *  0.849711 *   4.00000    1.000000    
     26 Ge    c    0.581586 *  0.896131 *  0.192325 *   4.00000    1.000000    
     27 Si    c    0.096912 *  0.696071 *  0.519419 *   4.00000    1.000000    
     28 Si    c    0.700923 *  0.599909 *  0.352231 *   4.00000    1.000000    
     29 Si    c    0.399089 *  0.094088 *  0.685052 *   4.00000    1.000000    
     30 Si    c    0.908296 *  0.298752 *  0.020228 *   4.00000    1.000000    
     31 Si    c    0.398758 *  0.301402 *  0.482885 *   4.00000    1.000000    
     32 Si    c    0.898420 *  0.609680 *  0.153894 *   4.00000    1.000000    
     33 Si    c    0.699455 *  0.094700 *  0.815275 *   4.00000    1.000000    
     34 Si    c    0.605384 *  0.695640 *  0.980944 *   4.00000    1.000000    
     35 Si    c    0.097104 *  0.396603 *  0.649425 *   4.00000    1.000000    
     36 Si    c    0.302118 *  0.899437 *  0.316522 *   4.00000    1.000000    
     37 Si    c    0.250754 *  0.337851 *  0.950094 *   4.00000    1.000000    
     38 Si    c    0.667631 *  0.910256 *  0.287929 *   4.00000    1.000000    
     39 Si    c    0.089206 *  0.747366 *  0.620092 *   4.00000    1.000000    
     40 Si    c    0.750246 *  0.658576 *  0.453097 *   4.00000    1.000000    
     41 Si    c    0.340476 *  0.086896 *  0.785762 *   4.00000    1.000000    
     42 Si    c    0.902360 *  0.241269 *  0.123020 *   4.00000    1.000000    
     43 Si    c    0.342358 *  0.250597 *  0.382199 *   4.00000    1.000000    
     44 Si    c    0.919133 *  0.666806 *  0.050489 *   4.00000    1.000000    
     45 Si    c    0.749234 *  0.087286 *  0.714394 *   4.00000    1.000000    
     46 Si    c    0.662627 *  0.746946 *  0.879965 *   4.00000    1.000000    
     47 Si    c    0.088909 *  0.338398 *  0.548539 *   4.00000    1.000000    
     48 Si    c    0.245510 *  0.904291 *  0.214684 *   4.00000    1.000000    
     49 Si    c    0.973170 *  0.117710 *  0.968112 *   4.00000    1.000000    
     50 Si    c    0.881039 *  0.849351 *  0.304189 *   4.00000    1.000000    
     51 Si    c    0.150965 *  0.026925 *  0.634613 *   4.00000    1.000000    
     52 Si    c    0.030552 *  0.876917 *  0.469207 *   4.00000    1.000000    
     53 Si    c    0.122238 *  0.149225 *  0.800657 *   4.00000    1.000000    
     54 Si    c    0.829174 *  0.956782 *  0.137302 *   4.00000    1.000000    
     55 Si    c    0.126032 *  0.970540 *  0.368571 *   4.00000    1.000000    
     56 Si    c    0.850211 *  0.878434 *  0.035047 *   4.00000    1.000000    
     57 Si    c    0.029285 *  0.149064 *  0.699740 *   4.00000    1.000000    
     58 Si    c    0.879018 *  0.026999 *  0.866613 *   4.00000    1.000000    
     59 Si    c    0.150678 *  0.120745 *  0.533907 *   4.00000    1.000000    
     60 Si    c    0.965620 *  0.855279 *  0.202061 *   4.00000    1.000000    
     61 O2    c    0.931975 *  0.000552 *  0.002456 *   0.87073    1.000000    
     62 O2    c    0.003298 *  0.925695 *  0.336757 *   0.87073    1.000000    
     63 O2    c    0.071717 *  0.069274 *  0.667397 *   0.87073    1.000000    
     64 O2    c    0.070229 *  0.997837 *  0.501905 *   0.87073    1.000000    
     65 O2    c    0.003265 *  0.072415 *  0.834782 *   0.87073    1.000000    
     66 O2    c    0.929150 *  0.936071 *  0.168580 *   0.87073    1.000000    
     67 O2    c    0.341740 *  0.575462 *  0.334095 *   0.87073    1.000000    
     68 O2    c    0.421851 *  0.759869 *  0.666667 *   0.87073    1.000000    
     69 O2    c    0.239693 *  0.658788 *  0.996288 *   0.87073    1.000000    
     70 O2    c    0.662342 *  0.419970 *  0.831951 *   0.87073    1.000000    
     71 O2    c    0.572608 *  0.245323 *  0.171372 *   0.87073    1.000000    
     72 O2    c    0.761943 *  0.339884 *  0.500789 *   0.87073    1.000000    
     73 O3    c    0.573856 *  0.336373 *  0.996814 *   1.33043    1.000000    
     74 O2    c    0.762011 *  0.419065 *  0.667257 *   0.87073    1.000000    
     75 O2    c    0.661828 *  0.237156 *  0.334887 *   0.87073    1.000000    
     76 O2    c    0.421240 *  0.657400 *  0.500736 *   0.87073    1.000000    
     77 O3    c    0.213933 *  0.560705 *  0.170478 *   1.33043    1.000000    
     78 O2    c    0.341738 *  0.760165 *  0.832571 *   0.87073    1.000000    
     79 O2    c    0.128341 *  0.208978 *  0.970531 *   0.87073    1.000000    
     80 O2    c    0.787394 *  0.907732 *  0.313584 *   0.87073    1.000000    
     81 O2    c    0.087994 *  0.873125 *  0.639916 *   0.87073    1.000000    
     82 O2    c    0.875720 *  0.785578 *  0.473374 *   0.87073    1.000000    
     83 O2    c    0.213451 *  0.086253 *  0.805843 *   0.87073    1.000000    
     84 O2    c    0.882025 *  0.109092 *  0.142738 *   0.87073    1.000000    
     85 O2    c    0.216211 *  0.123799 *  0.362204 *   0.87073    1.000000    
     86 O2    c    0.919251 *  0.792547 *  0.030409 *   0.87073    1.000000    
     87 O2    c    0.875006 *  0.086549 *  0.693822 *   0.87073    1.000000    
     88 O2    c    0.789076 *  0.873369 *  0.859979 *   0.87073    1.000000    
     89 O2    c    0.087376 *  0.211431 *  0.528556 *   0.87073    1.000000    
     90 O2    c    0.119010 *  0.905949 *  0.196016 *   0.87073    1.000000    
     91 O2    c    0.935725 *  0.873788 *  0.253590 *   0.87073    1.000000    
     92 O2    c    0.137833 *  0.067877 *  0.584352 *   0.87073    1.000000    
     93 O2    c    0.926369 *  0.061909 *  0.918049 *   0.87073    1.000000    
     94 O2    c    0.065972 *  0.133484 *  0.750482 *   0.87073    1.000000    
     95 O2    c    0.853075 *  0.926345 *  0.085547 *   0.87073    1.000000    
     96 O2    c    0.075628 *  0.932328 *  0.419315 *   0.87073    1.000000    
     97 O2    c    0.910184 *  0.204614 *  0.981113 *   0.87073    1.000000    
     98 O2    c    0.800646 *  0.696125 *  0.314038 *   0.87073    1.000000    
     99 O2    c    0.302980 *  0.096034 *  0.646534 *   0.87073    1.000000    
    100 O2    c    0.099395 *  0.794647 *  0.481332 *   0.87073    1.000000    
    101 O2    c    0.205828 *  0.301395 *  0.811170 *   0.87073    1.000000    
    102 O3    c    0.683782 *  0.880876 *  0.150127 *   1.33043    1.000000    
    103 O2    c    0.208411 *  0.901255 *  0.355863 *   0.87073    1.000000    
    104 O2    c    0.700468 *  0.793260 *  0.019565 *   0.87073    1.000000    
    105 O2    c    0.099246 *  0.300437 *  0.687713 *   0.87073    1.000000    
    106 O2    c    0.796845 *  0.096048 *  0.854044 *   0.87073    1.000000    
    107 O2    c    0.302478 *  0.203494 *  0.521408 *   0.87073    1.000000    
    108 O2    c    0.882928 *  0.703779 *  0.190007 *   0.87073    1.000000    
    109 O2    c    0.322030 *  0.643489 *  0.250927 *   0.87073    1.000000    
    110 O2    c    0.355907 *  0.675332 *  0.583988 *   0.87073    1.000000    
    111 O2    c    0.325811 *  0.675962 *  0.915007 *   0.87073    1.000000    
    112 O2    c    0.679212 *  0.352407 *  0.749979 *   0.87073    1.000000    
    113 O3    c    0.640012 *  0.321438 *  0.087450 *   1.33043    1.000000    
    114 O2    c    0.680565 *  0.322783 *  0.417654 *   0.87073    1.000000    
    115 O2    c    0.373727 *  0.329465 *  0.968346 *   0.87073    1.000000    
    116 O2    c    0.673882 *  0.042883 *  0.305109 *   0.87073    1.000000    
    117 O2    c    0.956552 *  0.624787 *  0.638375 *   0.87073    1.000000    
    118 O2    c    0.627131 *  0.668427 *  0.471160 *   0.87073    1.000000    
    119 O2    c    0.330132 *  0.954755 *  0.804042 *   0.87073    1.000000    
    120 O3    c    0.034083 *  0.355016 *  0.141682 *   1.33043    1.000000    
    121 O2    c    0.332053 *  0.371699 *  0.363340 *   0.87073    1.000000    
    122 O2    c    0.050921 *  0.673422 *  0.032592 *   0.87073    1.000000    
    123 O2    c    0.626944 *  0.954749 *  0.696081 *   0.87073    1.000000    
    124 O2    c    0.673261 *  0.625443 *  0.861190 *   0.87073    1.000000    
    125 O2    c    0.956357 *  0.328690 *  0.530207 *   0.87073    1.000000    
    126 O2    c    0.369846 *  0.038518 *  0.198617 *   0.87073    1.000000    
    127 O3    c    0.774637 *  0.296100 *  0.012808 *   1.33043    1.000000    
    128 O2    c    0.698777 *  0.465082 *  0.344686 *   0.87073    1.000000    
    129 O2    c    0.533772 *  0.227318 *  0.677422 *   0.87073    1.000000    
    130 O2    c    0.230374 *  0.694464 *  0.511589 *   0.87073    1.000000    
    131 O2    c    0.305350 *  0.532242 *  0.842220 *   0.87073    1.000000    
    132 O3    c    0.449028 *  0.748627 *  0.175402 *   1.33043    1.000000    
    133 O2    c    0.306386 *  0.768441 *  0.322336 *   0.87073    1.000000    
    134 O2    c    0.468455 *  0.691050 *  0.988131 *   0.87073    1.000000    
    135 O2    c    0.230726 *  0.531530 *  0.656735 *   0.87073    1.000000    
    136 O2    c    0.698085 *  0.227741 *  0.822857 *   0.87073    1.000000    
    137 O2    c    0.533899 *  0.302952 *  0.490184 *   0.87073    1.000000    
    138 O2    c    0.763554 *  0.472850 *  0.156353 *   0.87073    1.000000    
    139 O3    c    0.796688 *  0.540696 *  0.031083 *   1.33043    1.000000    
    140 O2    c    0.467162 *  0.247217 *  0.362762 *   0.87073    1.000000    
    141 O2    c    0.751304 *  0.213329 *  0.694631 *   0.87073    1.000000    
    142 O2    c    0.215683 *  0.463128 *  0.528842 *   0.87073    1.000000    
    143 O2    c    0.537379 *  0.747898 *  0.860054 *   0.87073    1.000000    
    144 O2    c    0.251222 *  0.782799 *  0.195520 *   0.87073    1.000000    
    145 O2    c    0.534572 *  0.784687 *  0.304934 *   0.87073    1.000000    
    146 O2    c    0.247985 *  0.462357 *  0.969577 *   0.87073    1.000000    
    147 O2    c    0.215865 *  0.748317 *  0.639561 *   0.87073    1.000000    
    148 O2    c    0.466102 *  0.213156 *  0.805444 *   0.87073    1.000000    
    149 O2    c    0.751442 *  0.534205 *  0.472964 *   0.87073    1.000000    
    150 O2    c    0.783547 *  0.261211 *  0.139939 *   0.87073    1.000000    
    151 O2    c    0.231630 *  0.322027 *  0.895688 *   0.87073    1.000000    
    152 O3    c    0.693732 *  0.907408 *  0.235459 *   1.33043    1.000000    
    153 O2    c    0.091741 *  0.766174 *  0.565773 *   0.87073    1.000000    
    154 O2    c    0.770719 *  0.674313 *  0.398814 *   0.87073    1.000000    
    155 O2    c    0.323475 *  0.089026 *  0.731410 *   0.87073    1.000000    
    156 O2    c    0.906802 *  0.232290 *  0.067731 *   0.87073    1.000000    
    157 O2    c    0.323586 *  0.231444 *  0.436504 *   0.87073    1.000000    
    158 O2    c    0.913349 *  0.679001 *  0.104835 *   0.87073    1.000000    
    159 O2    c    0.769788 *  0.090493 *  0.768750 *   0.87073    1.000000    
    160 O2    c    0.678967 *  0.765413 *  0.934338 *   0.87073    1.000000    
    161 O2    c    0.091788 *  0.322039 *  0.602870 *   0.87073    1.000000    
    162 O2    c    0.235234 *  0.901681 *  0.269508 *   0.87073    1.000000    
    163 O2    c    0.593112 *  0.556667 *  0.989188 *   0.87073    1.000000    
    164 O2    c    0.444664 *  0.021284 *  0.322483 *   0.87073    1.000000    
    165 O2    c    0.971955 *  0.411620 *  0.658218 *   0.87073    1.000000    
    166 O2    c    0.413159 *  0.440577 *  0.491629 *   0.87073    1.000000    
    167 O2    c    0.559363 *  0.969633 *  0.823857 *   0.87073    1.000000    
    168 O3    c    0.020660 *  0.599370 *  0.166621 *   1.33043    1.000000    
    169 O2    c    0.560987 *  0.585881 *  0.343517 *   0.87073    1.000000    
    170 O2    c    0.028230 *  0.442491 *  0.013710 *   0.87073    1.000000    
    171 O2    c    0.412945 *  0.969093 *  0.675892 *   0.87073    1.000000    
    172 O2    c    0.443734 *  0.412350 *  0.840678 *   0.87073    1.000000    
    173 O2    c    0.971343 *  0.556972 *  0.510297 *   0.87073    1.000000    
    174 O3    c    0.588197 *  0.040009 *  0.172933 *   1.33043    1.000000    
    175 O2    c    0.583312 *  0.160270 *  0.251191 *   0.87073    1.000000    
    176 O2    c    0.834565 *  0.416021 *  0.584177 *   0.87073    1.000000    
    177 O2    c    0.585478 *  0.416045 *  0.914468 *   0.87073    1.000000    
    178 O2    c    0.416913 *  0.833004 *  0.749716 *   0.87073    1.000000    
    179 O3    c    0.182162 *  0.592398 *  0.081825 *   1.33043    1.000000    
    180 O2    c    0.417332 *  0.580098 *  0.417424 *   0.87073    1.000000    
    181 F     c    0.480269 *  0.903819 *  0.241100 *   0.56000    1.000000    
    182 F     c    0.096571 *  0.546789 *  0.584210 *   0.56000    1.000000    
    183 F     c    0.454172 *  0.544130 *  0.915411 *   0.56000    1.000000    
    184 F     c    0.548652 *  0.094118 *  0.750098 *   0.56000    1.000000    
    185 F     c    0.940507 *  0.470252 *  0.094051 *   0.56000    1.000000    
    186 F     c    0.548813 *  0.449896 *  0.417274 *   0.56000    1.000000    
    187 O2    s    0.927760 *  0.000488 *  0.002123 *  -2.87073    1.000000    
    188 O2    s    0.003685 *  0.922218 *  0.336756 *  -2.87073    1.000000    
    189 O2    s    0.075850 *  0.073480 *  0.667348 *  -2.87073    1.000000    
    190 O2    s    0.074788 *  0.998062 *  0.501828 *  -2.87073    1.000000    
    191 O2    s    0.002637 *  0.075908 *  0.834534 *  -2.87073    1.000000    
    192 O2    s    0.923051 *  0.928962 *  0.169179 *  -2.87073    1.000000    
    193 O2    s    0.353547 *  0.582974 *  0.334022 *  -2.87073    1.000000    
    194 O2    s    0.414088 *  0.764032 *  0.666667 *  -2.87073    1.000000    
    195 O2    s    0.236834 *  0.647403 *  0.996768 *  -2.87073    1.000000    
    196 O2    s    0.650284 *  0.412224 *  0.831972 *  -2.87073    1.000000    
    197 O2    s    0.580742 *  0.240593 *  0.170674 *  -2.87073    1.000000    
    198 O2    s    0.766280 *  0.351744 *  0.500759 *  -2.87073    1.000000    
    199 O3    s    0.579816 *  0.347313 *  0.996734 *  -3.33043    1.000000    
    200 O2    s    0.766348 *  0.411457 *  0.667274 *  -2.87073    1.000000    
    201 O2    s    0.650246 *  0.233009 *  0.334815 *  -2.87073    1.000000    
    202 O2    s    0.413638 *  0.645547 *  0.500793 *  -2.87073    1.000000    
    203 O3    s    0.215824 *  0.571848 *  0.170971 *  -3.33043    1.000000    
    204 O2    s    0.353613 *  0.764386 *  0.832593 *  -2.87073    1.000000    
    205 O2    s    0.124475 *  0.212596 *  0.968174 *  -2.87073    1.000000    
    206 O2    s    0.785344 *  0.901768 *  0.310078 *  -2.87073    1.000000    
    207 O2    s    0.094767 *  0.876407 *  0.637339 *  -2.87073    1.000000    
    208 O2    s    0.879265 *  0.782184 *  0.470859 *  -2.87073    1.000000    
    209 O2    s    0.216924 *  0.092994 *  0.803239 *  -2.87073    1.000000    
    210 O2    s    0.878754 *  0.108056 *  0.139939 *  -2.87073    1.000000    
    211 O2    s    0.219631 *  0.120524 *  0.364933 *  -2.87073    1.000000    
    212 O2    s    0.911987 *  0.788651 *  0.032941 *  -2.87073    1.000000    
    213 O2    s    0.878442 *  0.093305 *  0.696562 *  -2.87073    1.000000    
    214 O2    s    0.785581 *  0.876614 *  0.862717 *  -2.87073    1.000000    
    215 O2    s    0.094243 *  0.214908 *  0.531156 *  -2.87073    1.000000    
    216 O2    s    0.116492 *  0.900527 *  0.198583 *  -2.87073    1.000000    
    217 O2    s    0.932896 *  0.868943 *  0.253568 *  -2.87073    1.000000    
    218 O2    s    0.140773 *  0.069218 *  0.584337 *  -2.87073    1.000000    
    219 O2    s    0.926307 *  0.064229 *  0.917869 *  -2.87073    1.000000    
    220 O2    s    0.068197 *  0.137016 *  0.750429 *  -2.87073    1.000000    
    221 O2    s    0.850292 *  0.923923 *  0.085021 *  -2.87073    1.000000    
    222 O2    s    0.076274 *  0.930392 *  0.419181 *  -2.87073    1.000000    
    223 O2    s    0.916813 *  0.205015 *  0.983770 *  -2.87073    1.000000    
    224 O2    s    0.798843 *  0.702214 *  0.316902 *  -2.87073    1.000000    
    225 O2    s    0.296595 *  0.088439 *  0.649212 *  -2.87073    1.000000    
    226 O2    s    0.091790 *  0.793300 *  0.483949 *  -2.87073    1.000000    
    227 O2    s    0.206983 *  0.295124 *  0.813998 *  -2.87073    1.000000    
    228 O3    s    0.694109 *  0.890593 *  0.151289 *  -3.33043    1.000000    
    229 O2    s    0.209641 *  0.908328 *  0.353056 *  -2.87073    1.000000    
    230 O2    s    0.706212 *  0.791973 *  0.017135 *  -2.87073    1.000000    
    231 O2    s    0.091664 *  0.294260 *  0.685091 *  -2.87073    1.000000    
    232 O2    s    0.795611 *  0.088618 *  0.851422 *  -2.87073    1.000000    
    233 O2    s    0.296183 *  0.204704 *  0.518801 *  -2.87073    1.000000    
    234 O2    s    0.893124 *  0.710101 *  0.187607 *  -2.87073    1.000000    
    235 O2    s    0.326936 *  0.652870 *  0.251468 *  -2.87073    1.000000    
    236 O2    s    0.344060 *  0.669437 *  0.583980 *  -2.87073    1.000000    
    237 O2    s    0.331529 *  0.670010 *  0.914899 *  -2.87073    1.000000    
    238 O2    s    0.673242 *  0.340629 *  0.749945 *  -2.87073    1.000000    
    239 O3    s    0.650056 *  0.326332 *  0.087885 *  -3.33043    1.000000    
    240 O2    s    0.674503 *  0.328475 *  0.417639 *  -2.87073    1.000000    
    241 O2    s    0.376885 *  0.339392 *  0.966024 *  -2.87073    1.000000    
    242 O2    s    0.664248 *  0.036953 *  0.303058 *  -2.87073    1.000000    
    243 O2    s    0.963410 *  0.621595 *  0.636109 *  -2.87073    1.000000    
    244 O2    s    0.623861 *  0.658357 *  0.468962 *  -2.87073    1.000000    
    245 O2    s    0.340217 *  0.961461 *  0.801779 *  -2.87073    1.000000    
    246 O3    s    0.023456 *  0.354242 *  0.138967 *  -3.33043    1.000000    
    247 O2    s    0.342057 *  0.374976 *  0.365661 *  -2.87073    1.000000    
    248 O2    s    0.044363 *  0.664435 *  0.034523 *  -2.87073    1.000000    
    249 O2    s    0.623609 *  0.961527 *  0.698311 *  -2.87073    1.000000    
    250 O2    s    0.663123 *  0.622131 *  0.863438 *  -2.87073    1.000000    
    251 O2    s    0.963183 *  0.338695 *  0.532456 *  -2.87073    1.000000    
    252 O2    s    0.372839 *  0.032066 *  0.200394 *  -2.87073    1.000000    
    253 O3    s    0.781857 *  0.302914 *  0.015301 *  -3.33043    1.000000    
    254 O2    s    0.691268 *  0.464524 *  0.347844 *  -2.87073    1.000000    
    255 O2    s    0.534390 *  0.220275 *  0.680546 *  -2.87073    1.000000    
    256 O2    s    0.223258 *  0.686850 *  0.514722 *  -2.87073    1.000000    
    257 O2    s    0.312964 *  0.532826 *  0.845332 *  -2.87073    1.000000    
    258 O3    s    0.445106 *  0.753241 *  0.178953 *  -3.33043    1.000000    
    259 O2    s    0.313301 *  0.775232 *  0.319511 *  -2.87073    1.000000    
    260 O2    s    0.468132 *  0.684067 *  0.984975 *  -2.87073    1.000000    
    261 O2    s    0.223564 *  0.531978 *  0.653633 *  -2.87073    1.000000    
    262 O2    s    0.690507 *  0.220684 *  0.819710 *  -2.87073    1.000000    
    263 O2    s    0.534470 *  0.310579 *  0.487094 *  -2.87073    1.000000    
    264 O2    s    0.770071 *  0.471454 *  0.154129 *  -2.87073    1.000000    
    265 O3    s    0.801371 *  0.540108 *  0.033302 *  -3.33043    1.000000    
    266 O2    s    0.470038 *  0.255509 *  0.365309 *  -2.87073    1.000000    
    267 O2    s    0.743290 *  0.208179 *  0.697261 *  -2.87073    1.000000    
    268 O2    s    0.210433 *  0.465820 *  0.531449 *  -2.87073    1.000000    
    269 O2    s    0.534527 *  0.740105 *  0.862650 *  -2.87073    1.000000    
    270 O2    s    0.256156 *  0.787312 *  0.197915 *  -2.87073    1.000000    
    271 O2    s    0.531679 *  0.788300 *  0.302748 *  -2.87073    1.000000    
    272 O2    s    0.256279 *  0.464986 *  0.967051 *  -2.87073    1.000000    
    273 O2    s    0.210553 *  0.740433 *  0.636938 *  -2.87073    1.000000    
    274 O2    s    0.468788 *  0.207915 *  0.802801 *  -2.87073    1.000000    
    275 O2    s    0.743550 *  0.531427 *  0.470326 *  -2.87073    1.000000    
    276 O2    s    0.786124 *  0.266481 *  0.137985 *  -2.87073    1.000000    
    277 O2    s    0.241174 *  0.331617 *  0.896653 *  -2.87073    1.000000    
    278 O3    s    0.683654 *  0.907018 *  0.238171 *  -3.33043    1.000000    
    279 O2    s    0.092007 *  0.756806 *  0.566682 *  -2.87073    1.000000    
    280 O2    s    0.761259 *  0.664869 *  0.399729 *  -2.87073    1.000000    
    281 O2    s    0.333185 *  0.089321 *  0.732312 *  -2.87073    1.000000    
    282 O2    s    0.906552 *  0.240356 *  0.068113 *  -2.87073    1.000000    
    283 O2    s    0.333476 *  0.240835 *  0.435629 *  -2.87073    1.000000    
    284 O2    s    0.912525 *  0.670791 *  0.103892 *  -2.87073    1.000000    
    285 O2    s    0.760257 *  0.090599 *  0.767900 *  -2.87073    1.000000    
    286 O2    s    0.669509 *  0.756129 *  0.933422 *  -2.87073    1.000000    
    287 O2    s    0.092040 *  0.331595 *  0.601997 *  -2.87073    1.000000    
    288 O2    s    0.243501 *  0.901709 *  0.268879 *  -2.87073    1.000000    
    289 O2    s    0.587934 *  0.556921 *  0.985887 *  -2.87073    1.000000    
    290 O2    s    0.444137 *  0.017426 *  0.319665 *  -2.87073    1.000000    
    291 O2    s    0.976920 *  0.416142 *  0.654851 *  -2.87073    1.000000    
    292 O2    s    0.417747 *  0.440198 *  0.488252 *  -2.87073    1.000000    
    293 O2    s    0.559663 *  0.974551 *  0.820504 *  -2.87073    1.000000    
    294 O3    s    0.011412 *  0.595080 *  0.162937 *  -3.33043    1.000000    
    295 O2    s    0.561184 *  0.581159 *  0.346853 *  -2.87073    1.000000    
    296 O2    s    0.024557 *  0.441349 *  0.016369 *  -2.87073    1.000000    
    297 O2    s    0.417605 *  0.973989 *  0.679288 *  -2.87073    1.000000    
    298 O2    s    0.443448 *  0.416958 *  0.844081 *  -2.87073    1.000000    
    299 O2    s    0.976327 *  0.557271 *  0.513683 *  -2.87073    1.000000    
    300 O3    s    0.581406 *  0.037288 *  0.176986 *  -3.33043    1.000000    
    301 O2    s    0.578325 *  0.150459 *  0.251508 *  -2.87073    1.000000    
    302 O2    s    0.845670 *  0.421524 *  0.584160 *  -2.87073    1.000000    
    303 O2    s    0.579740 *  0.421580 *  0.914454 *  -2.87073    1.000000    
    304 O2    s    0.422537 *  0.843998 *  0.749733 *  -2.87073    1.000000    
    305 O3    s    0.169688 *  0.587264 *  0.080022 *  -3.33043    1.000000    
    306 O2    s    0.422991 *  0.574760 *  0.417433 *  -2.87073    1.000000    
    307 F     s    0.487022 *  0.903855 *  0.238179 *  -1.56000    1.000000    
    308 F     s    0.096990 *  0.547047 *  0.584208 *  -1.56000    1.000000    
    309 F     s    0.454009 *  0.544043 *  0.915452 *  -1.56000    1.000000    
    310 F     s    0.548833 *  0.094515 *  0.750110 *  -1.56000    1.000000    
    311 F     s    0.950146 *  0.473873 *  0.096532 *  -1.56000    1.000000    
    312 F     s    0.548925 *  0.449585 *  0.417246 *  -1.56000    1.000000    
--------------------------------------------------------------------------------



********************************************************************************
*  General input information                                                   *
********************************************************************************

  Species output for all configurations : 

--------------------------------------------------------------------------------
  Species    Type    Atomic    Atomic    Charge       Radii (Angs)     Library
                     Number     Mass       (e)     Cova   Ionic  VDW   Symbol
--------------------------------------------------------------------------------
    Si       Core       14      28.09   4.000000   1.200  0.000  2.100          
    O1       Core        8      16.00   1.733957   0.730  0.000  1.360          
    O1       Shell       8       0.00  -3.733957   0.730  0.000  1.360          
    O2       Core        8      16.00   0.870733   0.730  0.000  1.360          
    O2       Shell       8       0.00  -2.870733   0.730  0.000  1.360          
    O3       Core        8      16.00   1.330431   0.730  0.000  1.360          
    O3       Shell       8       0.00  -3.330431   0.730  0.000  1.360          
    F        Core        9      19.00   0.560000   0.710  0.000  1.300          
    F        Shell       9       0.00  -1.560000   0.710  0.000  1.300          
    Ge       Core       32      72.61   4.000000   1.170  0.000  1.750          
--------------------------------------------------------------------------------


  Lattice summation method               =    Ewald          (3-D)
                                         =    Parry          (2-D)
                                         =    Saunders et al (1-D)
  Accuracy factor for lattice sums       =   12.000


  Time limit = Infinity

  Maximum range for interatomic potentials =        16.000000 Angstroms

  Taper potentials to zero over   1.0000 Angstroms using polynomial

  General interatomic potentials :

--------------------------------------------------------------------------------
Atom  Types   Potential         A         B         C         D     Cutoffs(Ang)
  1     2                                                            Min    Max 
--------------------------------------------------------------------------------
Si   c O1   s Buckingham    0.132E+04 0.318      10.1      0.00     0.000 16.000
Si   c O2   s Buckingham    0.132E+04 0.318      10.1      0.00     0.000 16.000
Si   c O3   s Buckingham    0.132E+04 0.318      10.1      0.00     0.000 16.000
Ge   c O1   s Buckingham    0.150E+04 0.326      16.8      0.00     0.000 16.000
Ge   c O2   s Buckingham    0.150E+04 0.326      16.8      0.00     0.000 16.000
Ge   c O3   s Buckingham    0.150E+04 0.326      16.8      0.00     0.000 16.000
O1   s O1   s Buckingham    0.228E+05 0.149      10.9      0.00     0.000 16.000
O1   s O2   s Buckingham    0.228E+05 0.149      10.9      0.00     0.000 16.000
O1   s O3   s Buckingham    0.228E+05 0.149      10.9      0.00     0.000 16.000
O2   s O2   s Buckingham    0.228E+05 0.149      10.9      0.00     0.000 16.000
O2   s O3   s Buckingham    0.228E+05 0.149      10.9      0.00     0.000 16.000
O3   s O3   s Buckingham    0.228E+05 0.149      10.9      0.00     0.000 16.000
Si   c F    s Buckingham     977.     0.282      0.00      0.00     0.000 16.000
Ge   c F    s Buckingham     681.     0.320      0.00      0.00     0.000 16.000
F    s F    s Buckingham     540.     0.262      0.00      0.00     0.000 16.000
O1   s F    s Buckingham    0.168E+04 0.268      0.00      0.00     0.000 16.000
O2   s F    s Buckingham    0.168E+04 0.268      0.00      0.00     0.000 16.000
O3   s F    s Buckingham    0.168E+04 0.268      0.00      0.00     0.000 16.000
O2   c O2   s Spring (c-s)   76.0      0.00      0.00      0.00     0.000  0.800
O3   c O3   s Spring (c-s)   128.      0.00      0.00      0.00     0.000  0.800
O1   c O1   s Spring (c-s)   180.      0.00      0.00      0.00     0.000  0.800
F    c F    s Spring (c-s)   33.5      0.00      0.00      0.00     0.000  0.800
--------------------------------------------------------------------------------

  General Three-body potentials :

  Harmonic form:

--------------------------------------------------------------------------------
Atom    Atom    Atom           Force Constants            Theta     Cutoffs  
  1       2       3     (eVrad**-2/eVrad**-3/eVrad**-4)   (deg)  1-2  1-3  2-3
--------------------------------------------------------------------------------
Si    c O1    s O1    s  1.261        0.0000    0.0000   109.470 0.00 0.00 0.00
                                                                 1.90 1.90 3.50
Si    c O1    s O2    s  1.261        0.0000    0.0000   109.470 0.00 0.00 0.00
                                                                 1.90 1.90 3.50
Si    c O2    s O2    s  1.261        0.0000    0.0000   109.470 0.00 0.00 0.00
                                                                 1.90 1.90 3.50
--------------------------------------------------------------------------------

********************************************************************************
*  Output for configuration   1                                                *
********************************************************************************


  Components of energy : 

--------------------------------------------------------------------------------
  Interatomic potentials     =        2064.61177121 eV
  Three-body potentials      =           0.44307939 eV
  Monopole - monopole (real) =       -6613.56201552 eV
  Monopole - monopole (recip)=       -3171.74482811 eV
  Monopole - monopole (total)=       -9785.30684364 eV
  Neutralising energy        =          -6.46083536 eV
--------------------------------------------------------------------------------
  Total lattice energy       =       -7726.71282840 eV
--------------------------------------------------------------------------------
  Total lattice energy       =         -745509.6743 kJ/(mole unit cells)
--------------------------------------------------------------------------------


  Number of variables =      939

  Maximum number of calculations  =          1000
  Maximum Hessian update interval =            10
  Maximum step size               =   1.000000000
  Maximum parameter tolerance     =   0.000010000
  Maximum function  tolerance     =   0.000010000
  Maximum gradient  tolerance     =   0.001000000
  Maximum gradient  component     =   0.010000000

  Symmetry not applied to optimisation

  Cell parameters to be optimised using strains

  Newton-Raphson optimiser to be used

  BFGS hessian update to be used

  Dumpfile to be written after every cycle

  Start of bulk optimisation :

  Cycle:      0 Energy:     -7726.712828  Gnorm:      0.001027  CPU:    1.055
  ** Hessian calculated **
  Cycle:      1 Energy:     -7726.748836  Gnorm:      0.005442  CPU:    3.007
  Cycle:      2 Energy:     -7726.749421  Gnorm:      0.000736  CPU:    4.422
  Cycle:      3 Energy:     -7726.749489  Gnorm:      0.000383  CPU:    5.837
  Cycle:      4 Energy:     -7726.749492  Gnorm:      0.000069  CPU:    7.252


  **** Optimisation achieved ****


  Final energy =   -7726.74949268 eV
  Final Gnorm  =       0.00001843

  Components of energy : 

--------------------------------------------------------------------------------
  Interatomic potentials     =        2064.93103146 eV
  Three-body potentials      =           0.44893341 eV
  Monopole - monopole (real) =       -6613.28119625 eV
  Monopole - monopole (recip)=       -3172.38611725 eV
  Monopole - monopole (total)=       -9785.66731350 eV
  Neutralising energy        =          -6.46214404 eV
--------------------------------------------------------------------------------
  Total lattice energy       =       -7726.74949268 eV
--------------------------------------------------------------------------------
  Total lattice energy       =         -745513.2119 kJ/(mole unit cells)
--------------------------------------------------------------------------------

  Final fractional coordinates of atoms :

--------------------------------------------------------------------------------
   No.  Atomic        x           y          z          Radius
        Label       (Frac)      (Frac)     (Frac)       (Angs) 
--------------------------------------------------------------------------------
     1  Ge    c     0.699600    0.375700    0.033890    0.000000
     2  Si    c     0.617410    0.310263    0.367368    0.000000
     3  Si    c     0.670961    0.279767    0.699693    0.000000
     4  Si    c     0.294189    0.604910    0.535600    0.000000
     5  Si    c     0.376442    0.665198    0.866778    0.000000
     6  Si    c     0.299165    0.666953    0.200073    0.000000
     7  Si    c     0.372270    0.684393    0.302746    0.000000
     8  Si    c     0.323196    0.608020    0.967548    0.000000
     9  Si    c     0.290780    0.658632    0.636245    0.000000
    10  Si    c     0.617803    0.284038    0.800355    0.000000
    11  Si    c     0.673509    0.363756    0.468056    0.000000
    12  Si    c     0.684130    0.315557    0.137616    0.000000
    13  Si    c     0.526386    0.405346    0.964516    0.000000
    14  Si    c     0.580221    0.100676    0.301388    0.000000
    15  Si    c     0.881444    0.452805    0.634894    0.000000
    16  Si    c     0.466759    0.566798    0.470462    0.000000
    17  Si    c     0.412450    0.875199    0.802799    0.000000
    18  Ge    c     0.074828    0.505849    0.134561    0.000000
    19  Si    c     0.413255    0.516080    0.368623    0.000000
    20  Si    c     0.122307    0.578911    0.036277    0.000000
    21  Si    c     0.462829    0.869537    0.701118    0.000000
    22  Si    c     0.581093    0.459930    0.863586    0.000000
    23  Si    c     0.883553    0.401280    0.533135    0.000000
    24  Si    c     0.518328    0.098806    0.198822    0.000000
    25  Si    c     0.299120    0.388162    0.850566    0.000000
    26  Ge    c     0.571550    0.880742    0.193195    0.000000
    27  Si    c     0.093183    0.681708    0.520212    0.000000
    28  Si    c     0.695013    0.588087    0.353424    0.000000
    29  Si    c     0.392000    0.078164    0.686406    0.000000
    30  Si    c     0.904720    0.291495    0.021836    0.000000
    31  Si    c     0.394827    0.286798    0.484206    0.000000
    32  Si    c     0.889393    0.596805    0.156012    0.000000
    33  Si    c     0.694112    0.083641    0.816570    0.000000
    34  Si    c     0.603874    0.684783    0.982114    0.000000
    35  Si    c     0.089866    0.380505    0.650247    0.000000
    36  Si    c     0.294814    0.887587    0.317024    0.000000
    37  Si    c     0.247138    0.327322    0.951127    0.000000
    38  Si    c     0.660223    0.897887    0.288603    0.000000
    39  Si    c     0.082223    0.731495    0.620920    0.000000
    40  Si    c     0.746217    0.644258    0.454355    0.000000
    41  Si    c     0.335267    0.075646    0.787154    0.000000
    42  Si    c     0.891159    0.227924    0.124242    0.000000
    43  Si    c     0.336419    0.238446    0.383497    0.000000
    44  Si    c     0.920430    0.662093    0.052687    0.000000
    45  Si    c     0.742160    0.071515    0.715709    0.000000
    46  Si    c     0.658813    0.736908    0.880959    0.000000
    47  Si    c     0.084931    0.324032    0.549324    0.000000
    48  Si    c     0.236680    0.889479    0.215171    0.000000
    49  Si    c     0.968734    0.109560    0.969549    0.000000
    50  Si    c     0.874524    0.838518    0.305564    0.000000
    51  Si    c     0.143853    0.010903    0.635941    0.000000
    52  Si    c     0.026496    0.862681    0.470473    0.000000
    53  Si    c     0.117476    0.138921    0.802114    0.000000
    54  Si    c     0.819962    0.943825    0.138814    0.000000
    55  Si    c     0.119459    0.959038    0.369789    0.000000
    56  Si    c     0.848037    0.870215    0.036653    0.000000
    57  Si    c     0.022197    0.133275    0.701116    0.000000
    58  Si    c     0.874267    0.017548    0.868174    0.000000
    59  Si    c     0.146690    0.106218    0.535170    0.000000
    60  Si    c     0.957425    0.842933    0.203358    0.000000
    61  O2    c     0.927413    0.992940    0.004181    0.000000
    62  O2    c     0.995638    0.914799    0.338601    0.000000
    63  O2    c     0.064861    0.052737    0.669188    0.000000
    64  O2    c     0.065943    0.982627    0.503596    0.000000
    65  O2    c     0.999560    0.063539    0.836793    0.000000
    66  O2    c     0.920778    0.924353    0.170161    0.000000
    67  O2    c     0.335742    0.564690    0.336716    0.000000
    68  O2    c     0.413396    0.743084    0.669298    0.000000
    69  O2    c     0.239617    0.648981    0.999705    0.000000
    70  O2    c     0.657774    0.410645    0.831208    0.000000
    71  O2    c     0.560714    0.230311    0.170143    0.000000
    72  O2    c     0.758878    0.325077    0.500254    0.000000
    73  O3    c     0.574116    0.329353    0.996223    0.000000
    74  O2    c     0.754086    0.401940    0.666746    0.000000
    75  O2    c     0.654442    0.225734    0.333961    0.000000
    76  O2    c     0.418682    0.643510    0.503290    0.000000
    77  O3    c     0.202890    0.543793    0.173565    0.000000
    78  O2    c     0.336526    0.750422    0.835397    0.000000
    79  O2    c     0.124178    0.198787    0.971427    0.000000
    80  O2    c     0.780469    0.896760    0.314457    0.000000
    81  O2    c     0.079979    0.856850    0.640668    0.000000
    82  O2    c     0.871866    0.770475    0.474801    0.000000
    83  O2    c     0.209176    0.076496    0.807481    0.000000
    84  O2    c     0.868765    0.095250    0.144327    0.000000
    85  O2    c     0.209493    0.112379    0.363628    0.000000
    86  O2    c     0.923109    0.789586    0.033075    0.000000
    87  O2    c     0.867755    0.069721    0.695363    0.000000
    88  O2    c     0.784747    0.864055    0.861092    0.000000
    89  O2    c     0.084466    0.197738    0.529206    0.000000
    90  O2    c     0.110008    0.890815    0.196438    0.000000
    91  O2    c     0.930897    0.863538    0.255122    0.000000
    92  O2    c     0.132188    0.054321    0.585887    0.000000
    93  O2    c     0.919919    0.052045    0.919780    0.000000
    94  O2    c     0.059899    0.120417    0.752046    0.000000
    95  O2    c     0.846707    0.916404    0.087053    0.000000
    96  O2    c     0.070685    0.919757    0.420693    0.000000
    97  O2    c     0.907572    0.198182    0.982433    0.000000
    98  O2    c     0.794170    0.685232    0.315256    0.000000
    99  O2    c     0.295622    0.078860    0.647822    0.000000
   100  O2    c     0.096254    0.780768    0.482105    0.000000
   101  O2    c     0.200862    0.291531    0.812084    0.000000
   102  O3    c     0.674332    0.865198    0.151222    0.000000
   103  O2    c     0.201526    0.889980    0.356423    0.000000
   104  O2    c     0.699458    0.781138    0.020731    0.000000
   105  O2    c     0.091357    0.284136    0.688583    0.000000
   106  O2    c     0.792212    0.086593    0.855348    0.000000
   107  O2    c     0.298735    0.187929    0.522704    0.000000
   108  O2    c     0.872898    0.691185    0.191758    0.000000
   109  O2    c     0.314227    0.629765    0.253125    0.000000
   110  O2    c     0.350422    0.660681    0.586111    0.000000
   111  O2    c     0.322504    0.665206    0.917528    0.000000
   112  O2    c     0.673486    0.338629    0.749823    0.000000
   113  O3    c     0.635605    0.319785    0.087191    0.000000
   114  O2    c     0.675058    0.308747    0.417418    0.000000
   115  O2    c     0.370241    0.317923    0.968733    0.000000
   116  O2    c     0.666019    0.030957    0.304915    0.000000
   117  O2    c     0.949156    0.608439    0.638702    0.000000
   118  O2    c     0.623438    0.653899    0.473023    0.000000
   119  O2    c     0.324872    0.943929    0.805997    0.000000
   120  O3    c     0.021533    0.340314    0.144251    0.000000
   121  O2    c     0.326270    0.360174    0.365190    0.000000
   122  O2    c     0.052084    0.666861    0.035821    0.000000
   123  O2    c     0.619564    0.938429    0.698009    0.000000
   124  O2    c     0.669289    0.615951    0.861362    0.000000
   125  O2    c     0.952837    0.314294    0.530486    0.000000
   126  O2    c     0.360437    0.023418    0.198605    0.000000
   127  O3    c     0.773821    0.293205    0.014086    0.000000
   128  O2    c     0.692294    0.453230    0.345157    0.000000
   129  O2    c     0.526596    0.210740    0.677994    0.000000
   130  O2    c     0.227297    0.680820    0.513058    0.000000
   131  O2    c     0.300438    0.522600    0.844047    0.000000
   132  O3    c     0.439454    0.731905    0.176958    0.000000
   133  O2    c     0.299986    0.757302    0.323827    0.000000
   134  O2    c     0.466991    0.680049    0.989876    0.000000
   135  O2    c     0.222840    0.515385    0.658269    0.000000
   136  O2    c     0.693232    0.217210    0.823444    0.000000
   137  O2    c     0.529979    0.287707    0.490743    0.000000
   138  O2    c     0.754132    0.460405    0.157980    0.000000
   139  O3    c     0.798329    0.539393    0.031088    0.000000
   140  O2    c     0.460673    0.235106    0.363377    0.000000
   141  O2    c     0.743983    0.196790    0.695208    0.000000
   142  O2    c     0.212265    0.449315    0.530246    0.000000
   143  O2    c     0.532710    0.737517    0.861809    0.000000
   144  O2    c     0.242580    0.767507    0.196584    0.000000
   145  O2    c     0.527717    0.772831    0.306332    0.000000
   146  O2    c     0.245765    0.451826    0.971409    0.000000
   147  O2    c     0.208307    0.732414    0.641011    0.000000
   148  O2    c     0.461379    0.202496    0.806109    0.000000
   149  O2    c     0.747541    0.519218    0.473512    0.000000
   150  O2    c     0.771063    0.247771    0.139425    0.000000
   151  O2    c     0.227789    0.312195    0.896697    0.000000
   152  O3    c     0.685023    0.893042    0.236135    0.000000
   153  O2    c     0.086316    0.750961    0.566575    0.000000
   154  O2    c     0.765776    0.661310    0.400028    0.000000
   155  O2    c     0.317202    0.075471    0.732770    0.000000
   156  O2    c     0.901003    0.221902    0.068982    0.000000
   157  O2    c     0.318773    0.218214    0.437836    0.000000
   158  O2    c     0.907717    0.667973    0.106965    0.000000
   159  O2    c     0.763494    0.077082    0.770077    0.000000
   160  O2    c     0.676393    0.754594    0.935330    0.000000
   161  O2    c     0.086222    0.306691    0.603694    0.000000
   162  O2    c     0.226658    0.887579    0.270046    0.000000
   163  O2    c     0.591104    0.545437    0.989702    0.000000
   164  O2    c     0.437002    0.010272    0.322134    0.000000
   165  O2    c     0.964007    0.394744    0.658517    0.000000
   166  O2    c     0.409885    0.426046    0.493549    0.000000
   167  O2    c     0.554183    0.959065    0.825828    0.000000
   168  O3    c     0.010206    0.584687    0.169302    0.000000
   169  O2    c     0.555054    0.574598    0.345332    0.000000
   170  O2    c     0.026801    0.434519    0.016056    0.000000
   171  O2    c     0.405220    0.952552    0.677840    0.000000
   172  O2    c     0.439241    0.403600    0.840779    0.000000
   173  O2    c     0.968354    0.542630    0.510524    0.000000
   174  O3    c     0.577624    0.023872    0.172787    0.000000
   175  O2    c     0.575230    0.147068    0.250295    0.000000
   176  O2    c     0.829146    0.400777    0.583898    0.000000
   177  O2    c     0.581420    0.405178    0.913937    0.000000
   178  O2    c     0.410595    0.819308    0.752250    0.000000
   179  O3    c     0.176860    0.579850    0.085282    0.000000
   180  O2    c     0.412628    0.567040    0.419833    0.000000
   181  F     c     0.471542    0.889527    0.241782    0.000000
   182  F     c     0.091144    0.531648    0.585149    0.000000
   183  F     c     0.451610    0.532610    0.916734    0.000000
   184  F     c     0.542101    0.080010    0.751427    0.000000
   185  F     c     0.934254    0.459911    0.095737    0.000000
   186  F     c     0.544162    0.436571    0.418550    0.000000
   187  O2    s     0.923395    0.992659    0.003822    0.000000
   188  O2    s     0.996290    0.911279    0.338476    0.000000
   189  O2    s     0.068918    0.057082    0.669045    0.000000
   190  O2    s     0.070576    0.983054    0.503426    0.000000
   191  O2    s     0.998706    0.066820    0.836428    0.000000
   192  O2    s     0.914660    0.917072    0.170726    0.000000
   193  O2    s     0.347498    0.571960    0.336525    0.000000
   194  O2    s     0.405911    0.747479    0.669182    0.000000
   195  O2    s     0.236434    0.637583    0.000046    0.000000
   196  O2    s     0.645746    0.402709    0.831370    0.000000
   197  O2    s     0.569233    0.226144    0.169598    0.000000
   198  O2    s     0.762988    0.336909    0.500333    0.000000
   199  O3    s     0.579666    0.340628    0.996193    0.000000
   200  O2    s     0.758634    0.394524    0.666879    0.000000
   201  O2    s     0.642915    0.221464    0.334027    0.000000
   202  O2    s     0.410810    0.631621    0.503245    0.000000
   203  O3    s     0.205151    0.555277    0.173916    0.000000
   204  O2    s     0.348472    0.754430    0.835303    0.000000
   205  O2    s     0.120404    0.202647    0.969133    0.000000
   206  O2    s     0.778440    0.890671    0.310986    0.000000
   207  O2    s     0.086950    0.860214    0.638161    0.000000
   208  O2    s     0.875371    0.767249    0.472249    0.000000
   209  O2    s     0.212515    0.083037    0.804829    0.000000
   210  O2    s     0.866153    0.094331    0.141483    0.000000
   211  O2    s     0.212996    0.109013    0.366318    0.000000
   212  O2    s     0.915007    0.784911    0.035450    0.000000
   213  O2    s     0.871222    0.076689    0.698059    0.000000
   214  O2    s     0.781226    0.867165    0.863866    0.000000
   215  O2    s     0.091113    0.201073    0.531887    0.000000
   216  O2    s     0.107577    0.885720    0.199094    0.000000
   217  O2    s     0.927497    0.858401    0.255055    0.000000
   218  O2    s     0.135146    0.055258    0.585826    0.000000
   219  O2    s     0.920263    0.054593    0.919529    0.000000
   220  O2    s     0.062169    0.123956    0.751972    0.000000
   221  O2    s     0.844101    0.913852    0.086536    0.000000
   222  O2    s     0.071227    0.917736    0.420537    0.000000
   223  O2    s     0.913916    0.198202    0.985090    0.000000
   224  O2    s     0.792411    0.691231    0.318139    0.000000
   225  O2    s     0.289274    0.071485    0.650528    0.000000
   226  O2    s     0.088526    0.779333    0.484768    0.000000
   227  O2    s     0.202077    0.285287    0.814953    0.000000
   228  O3    s     0.684629    0.875223    0.152411    0.000000
   229  O2    s     0.202736    0.897020    0.353667    0.000000
   230  O2    s     0.705031    0.780358    0.018321    0.000000
   231  O2    s     0.083883    0.277990    0.685998    0.000000
   232  O2    s     0.790891    0.078995    0.852748    0.000000
   233  O2    s     0.292413    0.189330    0.520113    0.000000
   234  O2    s     0.883342    0.697448    0.189348    0.000000
   235  O2    s     0.319143    0.639149    0.253617    0.000000
   236  O2    s     0.338582    0.654772    0.586068    0.000000
   237  O2    s     0.328204    0.659323    0.917384    0.000000
   238  O2    s     0.667473    0.326896    0.749874    0.000000
   239  O3    s     0.645429    0.323865    0.087810    0.000000
   240  O2    s     0.669036    0.314501    0.417477    0.000000
   241  O2    s     0.373385    0.328065    0.966397    0.000000
   242  O2    s     0.656426    0.024986    0.302900    0.000000
   243  O2    s     0.956116    0.605324    0.636444    0.000000
   244  O2    s     0.620128    0.643877    0.470788    0.000000
   245  O2    s     0.334966    0.950578    0.803696    0.000000
   246  O3    s     0.011317    0.339837    0.141404    0.000000
   247  O2    s     0.336272    0.363370    0.367479    0.000000
   248  O2    s     0.045126    0.657896    0.037645    0.000000
   249  O2    s     0.616275    0.945300    0.700200    0.000000
   250  O2    s     0.659175    0.612581    0.863638    0.000000
   251  O2    s     0.959554    0.324268    0.532743    0.000000
   252  O2    s     0.363453    0.017072    0.200356    0.000000
   253  O3    s     0.781216    0.299707    0.016494    0.000000
   254  O2    s     0.684854    0.452629    0.348346    0.000000
   255  O2    s     0.527274    0.203834    0.681163    0.000000
   256  O2    s     0.220016    0.673111    0.516163    0.000000
   257  O2    s     0.308098    0.523048    0.847095    0.000000
   258  O3    s     0.435472    0.736628    0.180494    0.000000
   259  O2    s     0.306781    0.763897    0.320939    0.000000
   260  O2    s     0.466531    0.673114    0.986732    0.000000
   261  O2    s     0.215848    0.515931    0.655132    0.000000
   262  O2    s     0.685593    0.210072    0.820330    0.000000
   263  O2    s     0.530489    0.295420    0.487690    0.000000
   264  O2    s     0.760683    0.459279    0.155636    0.000000
   265  O3    s     0.802429    0.537993    0.033506    0.000000
   266  O2    s     0.463602    0.243359    0.365942    0.000000
   267  O2    s     0.736049    0.191798    0.697871    0.000000
   268  O2    s     0.206879    0.451902    0.532841    0.000000
   269  O2    s     0.529976    0.729772    0.864373    0.000000
   270  O2    s     0.247423    0.772088    0.198989    0.000000
   271  O2    s     0.524716    0.776323    0.304132    0.000000
   272  O2    s     0.253946    0.454531    0.968863    0.000000
   273  O2    s     0.203140    0.724563    0.638375    0.000000
   274  O2    s     0.464007    0.197167    0.803497    0.000000
   275  O2    s     0.739591    0.516543    0.470901    0.000000
   276  O2    s     0.774097    0.253324    0.137670    0.000000
   277  O2    s     0.237276    0.321720    0.897640    0.000000
   278  O3    s     0.675088    0.892816    0.238915    0.000000
   279  O2    s     0.086593    0.741625    0.567495    0.000000
   280  O2    s     0.756313    0.651853    0.400950    0.000000
   281  O2    s     0.326933    0.075764    0.733683    0.000000
   282  O2    s     0.900461    0.229951    0.069430    0.000000
   283  O2    s     0.328636    0.227575    0.436958    0.000000
   284  O2    s     0.907326    0.660311    0.105940    0.000000
   285  O2    s     0.753977    0.077188    0.769218    0.000000
   286  O2    s     0.666893    0.745369    0.934437    0.000000
   287  O2    s     0.086467    0.316283    0.602823    0.000000
   288  O2    s     0.235048    0.887782    0.269420    0.000000
   289  O2    s     0.585905    0.546054    0.986408    0.000000
   290  O2    s     0.436479    0.006215    0.319378    0.000000
   291  O2    s     0.969168    0.399418    0.655167    0.000000
   292  O2    s     0.414352    0.425687    0.490138    0.000000
   293  O2    s     0.554463    0.963898    0.822426    0.000000
   294  O3    s     0.001146    0.580664    0.165564    0.000000
   295  O2    s     0.555262    0.569778    0.348632    0.000000
   296  O2    s     0.023053    0.433511    0.018714    0.000000
   297  O2    s     0.409998    0.957576    0.681206    0.000000
   298  O2    s     0.438973    0.408000    0.844217    0.000000
   299  O2    s     0.973129    0.542860    0.513933    0.000000
   300  O3    s     0.570963    0.021553    0.176853    0.000000
   301  O2    s     0.570214    0.137377    0.250679    0.000000
   302  O2    s     0.840238    0.406244    0.583924    0.000000
   303  O2    s     0.575675    0.410924    0.913941    0.000000
   304  O2    s     0.416226    0.830345    0.752176    0.000000
   305  O3    s     0.164567    0.575022    0.083309    0.000000
   306  O2    s     0.418283    0.561718    0.419762    0.000000
   307  F     s     0.478415    0.889400    0.238772    0.000000
   308  F     s     0.091565    0.531903    0.585153    0.000000
   309  F     s     0.451569    0.532365    0.916816    0.000000
   310  F     s     0.542234    0.080344    0.751444    0.000000
   311  F     s     0.943786    0.463340    0.098306    0.000000
   312  F     s     0.544308    0.436255    0.418532    0.000000
--------------------------------------------------------------------------------

  Final Cartesian lattice vectors (Angstroms) :

       11.935705    0.005287    0.006399
       -6.013269   10.395375    0.003462
        0.085971   -0.077498   29.435834


  Final cell parameters and derivatives :

--------------------------------------------------------------------------------
       a           11.935708 Angstrom     dE/de1(xx)    -0.001950 eV/strain
       b           12.009298 Angstrom     dE/de2(yy)    -0.001989 eV/strain
       c           29.436062 Angstrom     dE/de3(zz)    -0.001768 eV/strain
       alpha       90.197846 Degrees      dE/de4(yz)    -0.000173 eV/strain
       beta        89.802011 Degrees      dE/de5(xz)    -0.000181 eV/strain
       gamma      120.022105 Degrees      dE/de6(xy)    -0.000290 eV/strain
--------------------------------------------------------------------------------

  Primitive cell volume =          3653.220884 Angs**3

  Density of cell =      1.751357 g/cm**3

  Non-primitive cell volume =          3653.220884 Angs**3


  Final internal derivatives :

--------------------------------------------------------------------------------
   No.  Atomic          a             b             c           Radius
        Label          (eV)          (eV)          (eV)        (eV/Angs)
--------------------------------------------------------------------------------
      1 Ge    c       0.000000      0.000000      0.000000      0.000000
      2 Si    c      -0.000056      0.000024     -0.000726      0.000000
      3 Si    c       0.000007     -0.000104     -0.000839      0.000000
      4 Si    c       0.000137      0.000001      0.000060      0.000000
      5 Si    c      -0.000364      0.000194      0.001540      0.000000
      6 Si    c      -0.000042     -0.000274     -0.000478      0.000000
      7 Si    c      -0.000003     -0.000021     -0.000413      0.000000
      8 Si    c      -0.000022      0.000030      0.000407      0.000000
      9 Si    c       0.000102     -0.000005      0.000162      0.000000
     10 Si    c       0.000017     -0.000137      0.001018      0.000000
     11 Si    c      -0.000007      0.000025      0.000489      0.000000
     12 Si    c       0.000013     -0.000373      0.005216      0.000000
     13 Si    c       0.000046      0.000278      0.001666      0.000000
     14 Si    c      -0.000061     -0.000096     -0.000814      0.000000
     15 Si    c      -0.000051      0.000021     -0.000069      0.000000
     16 Si    c       0.000041      0.000003      0.000131      0.000000
     17 Si    c      -0.000061     -0.000007      0.000722      0.000000
     18 Ge    c       0.000041      0.000063     -0.001031      0.000000
     19 Si    c       0.000092     -0.000100     -0.000348      0.000000
     20 Si    c       0.000847     -0.000275     -0.000140      0.000000
     21 Si    c       0.000019      0.000071     -0.000358      0.000000
     22 Si    c       0.000437     -0.000228      0.000275      0.000000
     23 Si    c      -0.000085      0.000036      0.000117      0.000000
     24 Si    c      -0.000221      0.000447      0.000381      0.000000
     25 Si    c      -0.000268      0.000471     -0.000353      0.000000
     26 Ge    c      -0.000471      0.000155      0.001178      0.000000
     27 Si    c       0.000086     -0.000084      0.000260      0.000000
     28 Si    c      -0.000189     -0.000194      0.000359      0.000000
     29 Si    c       0.000284     -0.000100     -0.000105      0.000000
     30 Si    c       0.001073     -0.000660     -0.000865      0.000000
     31 Si    c       0.000156      0.000089     -0.000019      0.000000
     32 Si    c       0.000207     -0.000055      0.000981      0.000000
     33 Si    c      -0.000366      0.000229      0.000077      0.000000
     34 Si    c      -0.000171     -0.000095     -0.000624      0.000000
     35 Si    c      -0.000003      0.000122     -0.000233      0.000000
     36 Si    c       0.000155     -0.000120     -0.001010      0.000000
     37 Si    c       0.000173      0.000284      0.000736      0.000000
     38 Si    c      -0.000131     -0.000021     -0.000661      0.000000
     39 Si    c       0.000103     -0.000106     -0.000153      0.000000
     40 Si    c      -0.000079     -0.000066      0.000118      0.000000
     41 Si    c       0.000232     -0.000097      0.000220      0.000000
     42 Si    c       0.000125     -0.000437      0.001467      0.000000
     43 Si    c       0.000083      0.000060     -0.000306      0.000000
     44 Si    c      -0.000859      0.001093     -0.004200      0.000000
     45 Si    c      -0.000215      0.000114     -0.000289      0.000000
     46 Si    c      -0.000118     -0.000050      0.001002      0.000000
     47 Si    c      -0.000015      0.000105      0.000160      0.000000
     48 Si    c       0.000206      0.000018      0.000290      0.000000
     49 Si    c       0.000220      0.000291      0.000661      0.000000
     50 Si    c       0.000001      0.000045     -0.000477      0.000000
     51 Si    c       0.000029     -0.000028     -0.000379      0.000000
     52 Si    c      -0.000017     -0.000062      0.000183      0.000000
     53 Si    c       0.000168     -0.000112     -0.000080      0.000000
     54 Si    c       0.000658      0.000103     -0.000666      0.000000
     55 Si    c       0.000279      0.000067      0.000116      0.000000
     56 Si    c       0.000527     -0.000921      0.001051      0.000000
     57 Si    c      -0.000183      0.000178     -0.000040      0.000000
     58 Si    c      -0.000157      0.000138     -0.000232      0.000000
     59 Si    c       0.000063      0.000017      0.000717      0.000000
     60 Si    c      -0.000042      0.000008      0.000457      0.000000
     61 O2    c       0.000014     -0.000110      0.000265      0.000000
     62 O2    c      -0.000340      0.000144     -0.000232      0.000000
     63 O2    c       0.000128     -0.000177     -0.000241      0.000000
     64 O2    c      -0.000055     -0.000114     -0.000280      0.000000
     65 O2    c       0.000000     -0.000101     -0.000018      0.000000
     66 O2    c      -0.000092      0.000258     -0.000374      0.000000
     67 O2    c      -0.000013      0.000153     -0.000109      0.000000
     68 O2    c      -0.000242     -0.000047     -0.000683      0.000000
     69 O2    c       0.000304     -0.000425     -0.000449      0.000000
     70 O2    c      -0.000104     -0.000149     -0.000239      0.000000
     71 O2    c      -0.000012     -0.000356      0.000379      0.000000
     72 O2    c      -0.000136      0.000162     -0.000207      0.000000
     73 O3    c       0.001402     -0.000170      0.001816      0.000000
     74 O2    c       0.000087     -0.000133      0.000054      0.000000
     75 O2    c      -0.000256      0.000377      0.000663      0.000000
     76 O2    c      -0.000210      0.000028      0.000306      0.000000
     77 O3    c       0.000774      0.000750      0.002214      0.000000
     78 O2    c       0.000132      0.000073     -0.000339      0.000000
     79 O2    c      -0.000346     -0.000126      0.000082      0.000000
     80 O2    c      -0.000080      0.000080      0.000015      0.000000
     81 O2    c      -0.000010      0.000090     -0.000075      0.000000
     82 O2    c      -0.000024      0.000015     -0.000033      0.000000
     83 O2    c      -0.000100      0.000070     -0.000024      0.000000
     84 O2    c       0.000094      0.000147     -0.000393      0.000000
     85 O2    c      -0.000016     -0.000063      0.000074      0.000000
     86 O2    c      -0.001153      0.000780      0.001264      0.000000
     87 O2    c       0.000127     -0.000018     -0.000032      0.000000
     88 O2    c      -0.000040     -0.000132     -0.000149      0.000000
     89 O2    c      -0.000043      0.000061     -0.000001      0.000000
     90 O2    c       0.000216     -0.000007     -0.000202      0.000000
     91 O2    c       0.000028     -0.000017     -0.000526      0.000000
     92 O2    c      -0.000007      0.000043     -0.000353      0.000000
     93 O2    c      -0.000029     -0.000123     -0.000370      0.000000
     94 O2    c      -0.000107      0.000035     -0.000503      0.000000
     95 O2    c       0.000262     -0.000085     -0.001676      0.000000
     96 O2    c      -0.000068      0.000016      0.000075      0.000000
     97 O2    c       0.000202     -0.000223     -0.000291      0.000000
     98 O2    c       0.000043     -0.000026     -0.000152      0.000000
     99 O2    c      -0.000104      0.000030     -0.000120      0.000000
    100 O2    c      -0.000028      0.000037     -0.000050      0.000000
    101 O2    c       0.000011      0.000078     -0.000097      0.000000
    102 O3    c      -0.000577      0.000157      0.000495      0.000000
    103 O2    c       0.000020     -0.000005      0.000068      0.000000
    104 O2    c       0.001152     -0.000061      0.000398      0.000000
    105 O2    c      -0.000018      0.000009      0.000020      0.000000
    106 O2    c       0.000044      0.000017      0.000188      0.000000
    107 O2    c      -0.000076     -0.000022      0.000112      0.000000
    108 O2    c       0.000004      0.000052      0.000067      0.000000
    109 O2    c      -0.000025      0.000203     -0.000267      0.000000
    110 O2    c      -0.000118      0.000010     -0.000076      0.000000
    111 O2    c       0.000395     -0.000228     -0.001166      0.000000
    112 O2    c       0.000024      0.000089     -0.000323      0.000000
    113 O3    c      -0.001714     -0.000402     -0.005994      0.000000
    114 O2    c       0.000007      0.000011      0.000176      0.000000
    115 O2    c      -0.000200      0.000241      0.000030      0.000000
    116 O2    c      -0.000048      0.000082     -0.000028      0.000000
    117 O2    c       0.000040     -0.000028     -0.000021      0.000000
    118 O2    c       0.000112     -0.000064     -0.000141      0.000000
    119 O2    c      -0.000020      0.000081     -0.000127      0.000000
    120 O3    c       0.000140     -0.000273      0.000111      0.000000
    121 O2    c       0.000060     -0.000029      0.000114      0.000000
    122 O2    c      -0.000191      0.000786     -0.000382      0.000000
    123 O2    c       0.000015      0.000107      0.000115      0.000000
    124 O2    c      -0.000180      0.000325      0.000234      0.000000
    125 O2    c       0.000058     -0.000022      0.000030      0.000000
    126 O2    c      -0.000097     -0.000027      0.000025      0.000000
    127 O3    c       0.001443     -0.002544     -0.002668      0.000000
    128 O2    c      -0.000122      0.000084      0.000195      0.000000
    129 O2    c       0.000011     -0.000111      0.000196      0.000000
    130 O2    c      -0.000182      0.000094      0.000018      0.000000
    131 O2    c       0.000258     -0.000582      0.000164      0.000000
    132 O3    c       0.000045      0.000233     -0.000078      0.000000
    133 O2    c      -0.000212      0.000413      0.000010      0.000000
    134 O2    c       0.000035     -0.000124     -0.000408      0.000000
    135 O2    c      -0.000109      0.000010     -0.000085      0.000000
    136 O2    c      -0.000042     -0.000057     -0.000168      0.000000
    137 O2    c      -0.000148      0.000124     -0.000141      0.000000
    138 O2    c       0.000177     -0.000065      0.000502      0.000000
    139 O3    c      -0.000835      0.000557     -0.000138      0.000000
    140 O2    c      -0.000095      0.000143      0.000285      0.000000
    141 O2    c       0.000044     -0.000155      0.000270      0.000000
    142 O2    c      -0.000106     -0.000046      0.000166      0.000000
    143 O2    c       0.000456     -0.000132      0.000326      0.000000
    144 O2    c       0.000240     -0.000094      0.000017      0.000000
    145 O2    c       0.000067      0.000137     -0.000214      0.000000
    146 O2    c       0.000231     -0.000097     -0.000435      0.000000
    147 O2    c      -0.000124      0.000026     -0.000226      0.000000
    148 O2    c       0.000071     -0.000155     -0.000374      0.000000
    149 O2    c      -0.000122      0.000103     -0.000262      0.000000
    150 O2    c       0.000739     -0.000782      0.000278      0.000000
    151 O2    c       0.000030      0.000020      0.000222      0.000000
    152 O3    c      -0.000063      0.000080      0.000882      0.000000
    153 O2    c       0.000058     -0.000101      0.000028      0.000000
    154 O2    c      -0.000015     -0.000014      0.000063      0.000000
    155 O2    c      -0.000004      0.000022     -0.000012      0.000000
    156 O2    c       0.000134     -0.000247     -0.002795      0.000000
    157 O2    c       0.000009      0.000020     -0.000010      0.000000
    158 O2    c       0.000022      0.000356      0.003928      0.000000
    159 O2    c       0.000029     -0.000005     -0.000249      0.000000
    160 O2    c      -0.000123     -0.000088     -0.000928      0.000000
    161 O2    c      -0.000052      0.000121     -0.000072      0.000000
    162 O2    c       0.000338     -0.000143      0.000919      0.000000
    163 O2    c      -0.000528      0.000002     -0.002389      0.000000
    164 O2    c      -0.000108     -0.000108     -0.000104      0.000000
    165 O2    c       0.000091     -0.000029     -0.000079      0.000000
    166 O2    c       0.000064     -0.000150     -0.000115      0.000000
    167 O2    c       0.000039      0.000092     -0.000125      0.000000
    168 O3    c      -0.000324      0.000250     -0.000240      0.000000
    169 O2    c       0.000108     -0.000070      0.000233      0.000000
    170 O2    c      -0.000202     -0.001360      0.000032      0.000000
    171 O2    c      -0.000042      0.000116      0.000159      0.000000
    172 O2    c      -0.000289      0.000080     -0.000018      0.000000
    173 O2    c       0.000041      0.000047      0.000094      0.000000
    174 O3    c       0.000698     -0.000452     -0.001644      0.000000
    175 O2    c       0.000015     -0.000226      0.000338      0.000000
    176 O2    c       0.000097     -0.000000     -0.000033      0.000000
    177 O2    c      -0.000033      0.000222     -0.001759      0.000000
    178 O2    c       0.000011     -0.000063     -0.000151      0.000000
    179 O3    c      -0.000335      0.000058      0.001905      0.000000
    180 O2    c      -0.000015      0.000049      0.000306      0.000000
    181 F     c       0.000041      0.000120     -0.000445      0.000000
    182 F     c       0.000009      0.000002      0.000001      0.000000
    183 F     c      -0.000124      0.000198      0.000572      0.000000
    184 F     c      -0.000023      0.000002      0.000153      0.000000
    185 F     c       0.000235      0.000068      0.000138      0.000000
    186 F     c      -0.000037      0.000027     -0.000117      0.000000
    187 O2    s      -0.000033     -0.000434      0.000008      0.000000
    188 O2    s       0.000090      0.000009     -0.000088      0.000000
    189 O2    s      -0.000000      0.000007      0.000003      0.000000
    190 O2    s       0.000037      0.000073      0.000176      0.000000
    191 O2    s       0.000068     -0.000015      0.000192      0.000000
    192 O2    s      -0.000124     -0.000036      0.000489      0.000000
    193 O2    s       0.000020      0.000033     -0.000138      0.000000
    194 O2    s       0.000043     -0.000002      0.000257      0.000000
    195 O2    s       0.000078      0.000066     -0.000560      0.000000
    196 O2    s      -0.000257      0.000293      0.000393      0.000000
    197 O2    s       0.000392     -0.000074      0.000119      0.000000
    198 O2    s      -0.000020      0.000033     -0.000078      0.000000
    199 O3    s      -0.000981      0.000372     -0.000635      0.000000
    200 O2    s      -0.000029      0.000025      0.000054      0.000000
    201 O2    s      -0.000046     -0.000054     -0.000077      0.000000
    202 O2    s       0.000009     -0.000066     -0.000007      0.000000
    203 O3    s      -0.000498     -0.000011     -0.000792      0.000000
    204 O2    s       0.000145     -0.000160     -0.000008      0.000000
    205 O2    s      -0.000090      0.000305     -0.000388      0.000000
    206 O2    s      -0.000074     -0.000018     -0.000274      0.000000
    207 O2    s       0.000040      0.000015     -0.000154      0.000000
    208 O2    s       0.000044     -0.000123     -0.000072      0.000000
    209 O2    s       0.000099     -0.000003     -0.000078      0.000000
    210 O2    s      -0.000217     -0.000170     -0.000110      0.000000
    211 O2    s       0.000113      0.000014      0.000151      0.000000
    212 O2    s      -0.000974      0.000403     -0.000020      0.000000
    213 O2    s      -0.000085      0.000058      0.000164      0.000000
    214 O2    s      -0.000095     -0.000138      0.000601      0.000000
    215 O2    s       0.000058      0.000048      0.000252      0.000000
    216 O2    s       0.000031     -0.000208      0.000649      0.000000
    217 O2    s       0.000055     -0.000044      0.000149      0.000000
    218 O2    s       0.000033     -0.000047      0.000213      0.000000
    219 O2    s       0.000059      0.000130      0.000382      0.000000
    220 O2    s       0.000052     -0.000035      0.000012      0.000000
    221 O2    s      -0.000550     -0.000353     -0.000916      0.000000
    222 O2    s       0.000055     -0.000003      0.000248      0.000000
    223 O2    s       0.000000      0.000270      0.000299      0.000000
    224 O2    s      -0.000083     -0.000027     -0.000024      0.000000
    225 O2    s      -0.000005     -0.000041      0.000099      0.000000
    226 O2    s      -0.000046     -0.000048      0.000207      0.000000
    227 O2    s       0.000170      0.000082      0.000744      0.000000
    228 O3    s       0.000320     -0.000077     -0.000165      0.000000
    229 O2    s       0.000181     -0.000061     -0.000621      0.000000
    230 O2    s       0.000633     -0.000334      0.000953      0.000000
    231 O2    s      -0.000051      0.000036     -0.000195      0.000000
    232 O2    s      -0.000069     -0.000021     -0.000156      0.000000
    233 O2    s      -0.000022      0.000063     -0.000135      0.000000
    234 O2    s       0.000182     -0.000246     -0.000473      0.000000
    235 O2    s      -0.000025      0.000011     -0.000276      0.000000
    236 O2    s      -0.000023     -0.000027     -0.000008      0.000000
    237 O2    s      -0.000409      0.000208      0.000390      0.000000
    238 O2    s      -0.000034     -0.000150      0.000367      0.000000
    239 O3    s       0.001017      0.001436      0.002668      0.000000
    240 O2    s      -0.000123      0.000115     -0.000140      0.000000
    241 O2    s       0.000101     -0.000127     -0.000982      0.000000
    242 O2    s       0.000022     -0.000094      0.000035      0.000000
    243 O2    s       0.000013      0.000002     -0.000163      0.000000
    244 O2    s       0.000009     -0.000067     -0.000080      0.000000
    245 O2    s       0.000051     -0.000035     -0.000141      0.000000
    246 O3    s      -0.000090      0.000393     -0.000356      0.000000
    247 O2    s       0.000029     -0.000022      0.000137      0.000000
    248 O2    s      -0.000168     -0.000171     -0.000127      0.000000
    249 O2    s      -0.000023      0.000038      0.000167      0.000000
    250 O2    s      -0.000418     -0.000084      0.000684      0.000000
    251 O2    s       0.000010      0.000071      0.000181      0.000000
    252 O2    s       0.000303     -0.000038      0.000144      0.000000
    253 O3    s      -0.000429      0.002543      0.002700      0.000000
    254 O2    s       0.000098     -0.000122      0.000134      0.000000
    255 O2    s      -0.000005      0.000044      0.000234      0.000000
    256 O2    s       0.000036     -0.000084      0.000276      0.000000
    257 O2    s       0.000224     -0.000115      0.000177      0.000000
    258 O3    s      -0.000068     -0.000072      0.001068      0.000000
    259 O2    s       0.000013      0.000008     -0.000420      0.000000
    260 O2    s       0.000035     -0.000055     -0.000152      0.000000
    261 O2    s       0.000042      0.000034     -0.000289      0.000000
    262 O2    s      -0.000068      0.000152     -0.000342      0.000000
    263 O2    s       0.000047     -0.000002     -0.000228      0.000000
    264 O2    s      -0.000418      0.000533     -0.001378      0.000000
    265 O3    s       0.000922     -0.001796      0.000775      0.000000
    266 O2    s       0.000148     -0.000144     -0.000114      0.000000
    267 O2    s      -0.000018      0.000041      0.000074      0.000000
    268 O2    s       0.000003      0.000067      0.000088      0.000000
    269 O2    s       0.000203     -0.000388      0.000034      0.000000
    270 O2    s      -0.000170     -0.000220      0.000230      0.000000
    271 O2    s      -0.000024     -0.000036     -0.000114      0.000000
    272 O2    s      -0.000194     -0.000038     -0.000060      0.000000
    273 O2    s       0.000069     -0.000007      0.000070      0.000000
    274 O2    s      -0.000043      0.000215      0.000207      0.000000
    275 O2    s       0.000036     -0.000046      0.000018      0.000000
    276 O2    s      -0.000120      0.000427      0.000425      0.000000
    277 O2    s       0.000226      0.000154     -0.000433      0.000000
    278 O3    s      -0.000115     -0.000029     -0.000592      0.000000
    279 O2    s      -0.000019      0.000027     -0.000069      0.000000
    280 O2    s       0.000024     -0.000008      0.000128      0.000000
    281 O2    s       0.000015     -0.000022      0.000021      0.000000
    282 O2    s      -0.000110      0.000459      0.000447      0.000000
    283 O2    s       0.000019     -0.000010      0.000006      0.000000
    284 O2    s      -0.000210     -0.000253     -0.000956      0.000000
    285 O2    s      -0.000046      0.000006     -0.000085      0.000000
    286 O2    s       0.000084     -0.000041     -0.000461      0.000000
    287 O2    s       0.000023     -0.000027     -0.000033      0.000000
    288 O2    s      -0.000054     -0.000011      0.000126      0.000000
    289 O2    s       0.000820     -0.000518      0.002982      0.000000
    290 O2    s      -0.000086     -0.000058     -0.000152      0.000000
    291 O2    s       0.000010     -0.000007     -0.000131      0.000000
    292 O2    s       0.000017      0.000005     -0.000115      0.000000
    293 O2    s      -0.000023     -0.000104     -0.000204      0.000000
    294 O3    s      -0.000106     -0.000200     -0.000668      0.000000
    295 O2    s      -0.000038      0.000047     -0.000126      0.000000
    296 O2    s      -0.000744      0.000113      0.000336      0.000000
    297 O2    s      -0.000051      0.000057      0.000046      0.000000
    298 O2    s      -0.000118      0.000426      0.001871      0.000000
    299 O2    s       0.000035     -0.000001      0.000173      0.000000
    300 O3    s      -0.000708      0.000200      0.002591      0.000000
    301 O2    s      -0.000051      0.000098     -0.000738      0.000000
    302 O2    s       0.000010      0.000015     -0.000002      0.000000
    303 O2    s      -0.000285      0.000141      0.000036      0.000000
    304 O2    s      -0.000020      0.000127      0.000341      0.000000
    305 O3    s       0.000529     -0.000379     -0.000331      0.000000
    306 O2    s       0.000075     -0.000104     -0.000131      0.000000
    307 F     s       0.000410     -0.000496     -0.000748      0.000000
    308 F     s      -0.000018      0.000003     -0.000050      0.000000
    309 F     s       0.000386     -0.000550     -0.001272      0.000000
    310 F     s       0.000031      0.000041     -0.000277      0.000000
    311 F     s      -0.000151     -0.000183      0.000182      0.000000
    312 F     s       0.000073     -0.000067      0.000242      0.000000
--------------------------------------------------------------------------------
  Maximum abs         0.001714      0.002544      0.005994      0.000000
--------------------------------------------------------------------------------


  Time to end of optimisation =       8.6688 seconds


  Peak dynamic memory used =      19.13 MB 


  Timing analysis for GULP :

--------------------------------------------------------------------------------
  Task / Subroutine                                          Time (Seconds)
--------------------------------------------------------------------------------
  Calculation of reciprocal space energy and derivatives          0.3127
  Calculation of real space energy and derivatives                7.3312
  Calculation of three-body energy and derivatives                0.7947
  Calculation of matrix inversion                                 0.1920
--------------------------------------------------------------------------------
  Total CPU time                                                  8.6689
--------------------------------------------------------------------------------


  Dump file written as out.res                                                 
  CIF file written as out.cif                                                 


  Job Finished at 21:22.03  2nd December   2016                               

