********************************************************************************
*                       GENERAL UTILITY LATTICE PROGRAM                        *
*                                 Julian Gale                                  *
*                      Nanochemistry Research Institute                        *
*                           Department of Chemistry                            *
*                    Curtin University, Western Australia                      *
********************************************************************************
* Version = 4.2.0 * Last modified =  20th January 2014                         *
********************************************************************************
*  optimise     - perform optimisation run                                     *
*  conp         - constant pressure calculation                                *
*  qok          - running with non charge neutral cell is OK                   *
********************************************************************************

  Job Started  at 20:39.17  2nd December   2016                               

  Number of CPUs =     1


  Total number of configurations input =   1

********************************************************************************
*  Input for Configuration =   1                                               *
********************************************************************************

  Formula = Ge3Si57O120F6                                               

  Number of irreducible atoms/shells =     312


  Total number atoms/shells =     312

  Dimensionality = 3               :  Bulk   


  Charge on solid   =  -6.000000 =>neutralising background added


  Cartesian lattice vectors (Angstroms) :

       11.960520    0.000000    0.000000
       -6.095004   10.338453    0.000000
       -0.042190   -0.033012   29.537580

  Cell parameters (Angstroms/Degrees):

  a =      11.9605    alpha =  90.0136
  b =      12.0014    beta  =  90.0818
  c =      29.5376    gamma = 120.5213

  Initial cell volume =        3652.418601 Angs**3

  Temperature of configuration =  0.000     K 

  Pressure of configuration =         0.000 GPa 

  Fractional coordinates of asymmetric unit :

--------------------------------------------------------------------------------
   No.  Atomic       x           y          z         Charge      Occupancy
        Label      (Frac)      (Frac)     (Frac)        (e)         (Frac)  
--------------------------------------------------------------------------------
      1 Ge    c    0.699600    0.375700    0.033890     4.00000    1.000000    
      2 Si    c    0.621621 *  0.325088 *  0.364745 *   4.00000    1.000000    
      3 Si    c    0.675276 *  0.298456 *  0.696726 *   4.00000    1.000000    
      4 Si    c    0.296862 *  0.621646 *  0.529807 *   4.00000    1.000000    
      5 Si    c    0.370999 *  0.674526 *  0.860575 *   4.00000    1.000000    
      6 Si    c    0.322345 *  0.701283 *  0.199238 *   4.00000    1.000000    
      7 Si    c    0.376396 *  0.700396 *  0.299394 *   4.00000    1.000000    
      8 Si    c    0.311895 *  0.625830 *  0.962577 *   4.00000    1.000000    
      9 Si    c    0.296348 *  0.675739 *  0.629976 *   4.00000    1.000000    
     10 Si    c    0.619776 *  0.297255 *  0.797031 *   4.00000    1.000000    
     11 Si    c    0.676595 *  0.379997 *  0.465065 *   4.00000    1.000000    
     12 Si    c    0.682988 *  0.316835 *  0.132117 *   4.00000    1.000000    
     13 Si    c    0.526632 *  0.411655 *  0.965884 *   4.00000    1.000000    
     14 Si    c    0.581660 *  0.111909 *  0.301263 *   4.00000    1.000000    
     15 Si    c    0.886116 *  0.468464 *  0.631391 *   4.00000    1.000000    
     16 Si    c    0.468865 *  0.583682 *  0.465048 *   4.00000    1.000000    
     17 Si    c    0.414944 *  0.887951 *  0.796060 *   4.00000    1.000000    
     18 Ge    c    0.108078 *  0.540481 *  0.130237 *   4.00000    1.000000    
     19 Si    c    0.416366 *  0.529322 *  0.363672 *   4.00000    1.000000    
     20 Si    c    0.103386 *  0.592359 *  0.025493 *   4.00000    1.000000    
     21 Si    c    0.466446 *  0.887441 *  0.694875 *   4.00000    1.000000    
     22 Si    c    0.578748 *  0.466785 *  0.862206 *   4.00000    1.000000    
     23 Si    c    0.886510 *  0.416736 *  0.529995 *   4.00000    1.000000    
     24 Si    c    0.525630 *  0.108605 *  0.200186 *   4.00000    1.000000    
     25 Si    c    0.292718 *  0.393787 *  0.843938 *   4.00000    1.000000    
     26 Si    c    0.601847 *  0.904886 *  0.184571 *   4.00000    1.000000    
     27 Si    c    0.096231 *  0.698894 *  0.515151 *   4.00000    1.000000    
     28 Si    c    0.698257 *  0.602577 *  0.349179 *   4.00000    1.000000    
     29 Si    c    0.395494 *  0.096294 *  0.681327 *   4.00000    1.000000    
     30 Si    c    0.894003 *  0.299650 *  0.010537 *   4.00000    1.000000    
     31 Si    c    0.397561 *  0.303181 *  0.479309 *   4.00000    1.000000    
     32 Si    c    0.884614 *  0.604897 *  0.143314 *   4.00000    1.000000    
     33 Si    c    0.697873 *  0.097151 *  0.811090 *   4.00000    1.000000    
     34 Si    c    0.593597 *  0.696867 *  0.978828 *   4.00000    1.000000    
     35 Si    c    0.095089 *  0.396579 *  0.645290 *   4.00000    1.000000    
     36 Si    c    0.298320 *  0.899539 *  0.313715 *   4.00000    1.000000    
     37 Ge    c    0.262297 *  0.359684 *  0.943433 *   4.00000    1.000000    
     38 Si    c    0.659638 *  0.912056 *  0.285169 *   4.00000    1.000000    
     39 Si    c    0.088293 *  0.748396 *  0.615648 *   4.00000    1.000000    
     40 Si    c    0.747987 *  0.660244 *  0.449668 *   4.00000    1.000000    
     41 Si    c    0.336602 *  0.087590 *  0.781707 *   4.00000    1.000000    
     42 Si    c    0.901976 *  0.251799 *  0.113405 *   4.00000    1.000000    
     43 Si    c    0.339403 *  0.251044 *  0.378965 *   4.00000    1.000000    
     44 Si    c    0.893453 *  0.663525 *  0.040607 *   4.00000    1.000000    
     45 Si    c    0.746900 *  0.090022 *  0.710543 *   4.00000    1.000000    
     46 Si    c    0.657702 *  0.747892 *  0.877094 *   4.00000    1.000000    
     47 Si    c    0.087182 *  0.339143 *  0.544717 *   4.00000    1.000000    
     48 Si    c    0.243573 *  0.904422 *  0.213260 *   4.00000    1.000000    
     49 Si    c    0.978411 *  0.129159 *  0.962052 *   4.00000    1.000000    
     50 Si    c    0.877175 *  0.850449 *  0.297853 *   4.00000    1.000000    
     51 Si    c    0.147618 *  0.027278 *  0.630023 *   4.00000    1.000000    
     52 Si    c    0.028727 *  0.878574 *  0.464415 *   4.00000    1.000000    
     53 Si    c    0.117466 *  0.146843 *  0.794669 *   4.00000    1.000000    
     54 Si    c    0.846088 *  0.974216 *  0.130712 *   4.00000    1.000000    
     55 Si    c    0.120499 *  0.969906 *  0.363484 *   4.00000    1.000000    
     56 Si    c    0.843702 *  0.886460 *  0.028620 *   4.00000    1.000000    
     57 Si    c    0.024731 *  0.146902 *  0.694541 *   4.00000    1.000000    
     58 Si    c    0.877722 *  0.030027 *  0.862167 *   4.00000    1.000000    
     59 Si    c    0.148943 *  0.121872 *  0.529574 *   4.00000    1.000000    
     60 Si    c    0.964732 *  0.852971 *  0.195914 *   4.00000    1.000000    
     61 O2    c    0.921072 *  0.009176 *  0.997121 *   0.87073    1.000000    
     62 O2    c    0.001529 *  0.930260 *  0.329576 *   0.87073    1.000000    
     63 O2    c    0.064611 *  0.067843 *  0.661102 *   0.87073    1.000000    
     64 O2    c    0.070879 *  0.001722 *  0.496088 *   0.87073    1.000000    
     65 O2    c    0.997331 *  0.071029 *  0.828446 *   0.87073    1.000000    
     66 O2    c    0.934384 *  0.941667 *  0.163203 *   0.87073    1.000000    
     67 O2    c    0.338378 *  0.576875 *  0.331586 *   0.87073    1.000000    
     68 O2    c    0.419861 *  0.762186 *  0.662624 *   0.87073    1.000000    
     69 O2    c    0.229265 *  0.672902 *  0.992999 *   0.87073    1.000000    
     70 O2    c    0.656849 *  0.419300 *  0.830177 *   0.87073    1.000000    
     71 O2    c    0.573746 *  0.236679 *  0.170012 *   0.87073    1.000000    
     72 O2    c    0.759927 *  0.340416 *  0.497641 *   0.87073    1.000000    
     73 O3    c    0.572052 *  0.334963 *  0.996604 *   1.33043    1.000000    
     74 O2    c    0.761048 *  0.421440 *  0.663962 *   0.87073    1.000000    
     75 O2    c    0.659623 *  0.238611 *  0.333100 *   0.87073    1.000000    
     76 O2    c    0.420469 *  0.660519 *  0.497144 *   0.87073    1.000000    
     77 O3    c    0.238524 *  0.582197 *  0.165751 *   1.33043    1.000000    
     78 O2    c    0.337273 *  0.761403 *  0.827984 *   0.87073    1.000000    
     79 O3    c    0.127837 *  0.213573 *  0.966141 *   1.33043    1.000000    
     80 O2    c    0.786411 *  0.912841 *  0.305136 *   0.87073    1.000000    
     81 O2    c    0.086508 *  0.873280 *  0.635784 *   0.87073    1.000000    
     82 O2    c    0.874063 *  0.786917 *  0.470303 *   0.87073    1.000000    
     83 O2    c    0.208776 *  0.084545 *  0.801491 *   0.87073    1.000000    
     84 O2    c    0.902761 *  0.127395 *  0.134458 *   0.87073    1.000000    
     85 O2    c    0.212961 *  0.124380 *  0.358465 *   0.87073    1.000000    
     86 O2    c    0.910628 *  0.800117 *  0.023393 *   0.87073    1.000000    
     87 O2    c    0.870446 *  0.087613 *  0.689175 *   0.87073    1.000000    
     88 O2    c    0.782728 *  0.874481 *  0.856804 *   0.87073    1.000000    
     89 O2    c    0.085493 *  0.212266 *  0.524697 *   0.87073    1.000000    
     90 O2    c    0.118573 *  0.905806 *  0.192548 *   0.87073    1.000000    
     91 O2    c    0.925036 *  0.865071 *  0.246564 *   0.87073    1.000000    
     92 O2    c    0.134869 *  0.065390 *  0.579366 *   0.87073    1.000000    
     93 O2    c    0.928049 *  0.064732 *  0.912649 *   0.87073    1.000000    
     94 O2    c    0.060504 *  0.124936 *  0.744431 *   0.87073    1.000000    
     95 O2    c    0.852227 *  0.932054 *  0.080187 *   0.87073    1.000000    
     96 O2    c    0.065587 *  0.929232 *  0.413606 *   0.87073    1.000000    
     97 O2    c    0.910984 *  0.214510 *  0.972116 *   0.87073    1.000000    
     98 O2    c    0.795837 *  0.698527 *  0.310298 *   0.87073    1.000000    
     99 O2    c    0.299673 *  0.099419 *  0.642918 *   0.87073    1.000000    
    100 O2    c    0.098726 *  0.797559 *  0.476876 *   0.87073    1.000000    
    101 O2    c    0.204311 *  0.301302 *  0.802180 *   0.87073    1.000000    
    102 O2    c    0.695843 *  0.900683 *  0.146042 *   0.87073    1.000000    
    103 O2    c    0.201116 *  0.899037 *  0.352082 *   0.87073    1.000000    
    104 O2    c    0.690428 *  0.798557 *  0.016398 *   0.87073    1.000000    
    105 O2    c    0.097182 *  0.299885 *  0.683418 *   0.87073    1.000000    
    106 O2    c    0.795532 *  0.098885 *  0.849560 *   0.87073    1.000000    
    107 O2    c    0.301543 *  0.205965 *  0.518033 *   0.87073    1.000000    
    108 O2    c    0.883695 *  0.702764 *  0.181387 *   0.87073    1.000000    
    109 O2    c    0.319821 *  0.642162 *  0.249188 *   0.87073    1.000000    
    110 O2    c    0.355298 *  0.678262 *  0.579953 *   0.87073    1.000000    
    111 O2    c    0.315531 *  0.675584 *  0.910615 *   0.87073    1.000000    
    112 O2    c    0.677557 *  0.356049 *  0.747016 *   0.87073    1.000000    
    113 O3    c    0.611613 *  0.301937 *  0.084949 *   1.33043    1.000000    
    114 O2    c    0.678311 *  0.324607 *  0.414842 *   0.87073    1.000000    
    115 O3    c    0.372261 *  0.322988 *  0.968241 *   1.33043    1.000000    
    116 O2    c    0.669165 *  0.043597 *  0.303845 *   0.87073    1.000000    
    117 O2    c    0.955515 *  0.624958 *  0.633912 *   0.87073    1.000000    
    118 O2    c    0.626086 *  0.671157 *  0.467745 *   0.87073    1.000000    
    119 O2    c    0.327673 *  0.955974 *  0.800053 *   0.87073    1.000000    
    120 O3    c    0.033055 *  0.373629 *  0.130916 *   1.33043    1.000000    
    121 O2    c    0.328804 *  0.372605 *  0.360512 *   0.87073    1.000000    
    122 O2    c    0.028477 *  0.672646 *  0.024861 *   0.87073    1.000000    
    123 O2    c    0.623296 *  0.957073 *  0.692513 *   0.87073    1.000000    
    124 O2    c    0.664035 *  0.623781 *  0.859528 *   0.87073    1.000000    
    125 O2    c    0.954336 *  0.329037 *  0.526504 *   0.87073    1.000000    
    126 O2    c    0.368556 *  0.037138 *  0.195823 *   0.87073    1.000000    
    127 O3    c    0.757528 *  0.287201 *  0.002619 *   1.33043    1.000000    
    128 O2    c    0.697223 *  0.468118 *  0.341874 *   0.87073    1.000000    
    129 O2    c    0.531140 *  0.230755 *  0.674428 *   0.87073    1.000000    
    130 O2    c    0.229654 *  0.697434 *  0.507556 *   0.87073    1.000000    
    131 O2    c    0.297953 *  0.531529 *  0.837992 *   0.87073    1.000000    
    132 O2    c    0.466107 *  0.771134 *  0.176774 *   0.87073    1.000000    
    133 O2    c    0.299469 *  0.766521 *  0.321477 *   0.87073    1.000000    
    134 O2    c    0.458949 *  0.697839 *  0.983314 *   0.87073    1.000000    
    135 O2    c    0.229346 *  0.532416 *  0.652476 *   0.87073    1.000000    
    136 O2    c    0.695099 *  0.229389 *  0.819099 *   0.87073    1.000000    
    137 O2    c    0.532116 *  0.304378 *  0.486941 *   0.87073    1.000000    
    138 O2    c    0.753829 *  0.466451 *  0.150503 *   0.87073    1.000000    
    139 O3    c    0.767043 *  0.547406 *  0.020063 *   1.33043    1.000000    
    140 O2    c    0.464786 *  0.249802 *  0.359558 *   0.87073    1.000000    
    141 O2    c    0.748749 *  0.216705 *  0.691389 *   0.87073    1.000000    
    142 O2    c    0.214300 *  0.465025 *  0.524959 *   0.87073    1.000000    
    143 O2    c    0.526839 *  0.739608 *  0.859171 *   0.87073    1.000000    
    144 O2    c    0.241471 *  0.777383 *  0.193461 *   0.87073    1.000000    
    145 O2    c    0.533241 *  0.784815 *  0.304361 *   0.87073    1.000000    
    146 O3    c    0.230461 *  0.473206 *  0.970166 *   1.33043    1.000000    
    147 O2    c    0.215046 *  0.749992 *  0.635115 *   0.87073    1.000000    
    148 O2    c    0.462657 *  0.215018 *  0.801379 *   0.87073    1.000000    
    149 O2    c    0.750135 *  0.536274 *  0.469610 *   0.87073    1.000000    
    150 O2    c    0.779042 *  0.257238 *  0.133190 *   0.87073    1.000000    
    151 O3    c    0.210543 *  0.312324 *  0.886444 *   1.33043    1.000000    
    152 O2    c    0.676822 *  0.910889 *  0.230987 *   0.87073    1.000000    
    153 O2    c    0.091688 *  0.768519 *  0.561459 *   0.87073    1.000000    
    154 O2    c    0.769096 *  0.677924 *  0.395457 *   0.87073    1.000000    
    155 O2    c    0.319608 *  0.089514 *  0.727464 *   0.87073    1.000000    
    156 O2    c    0.900431 *  0.237543 *  0.059188 *   0.87073    1.000000    
    157 O2    c    0.321620 *  0.231706 *  0.433144 *   0.87073    1.000000    
    158 O2    c    0.889463 *  0.672625 *  0.095867 *   0.87073    1.000000    
    159 O2    c    0.768603 *  0.094366 *  0.764696 *   0.87073    1.000000    
    160 O2    c    0.665777 *  0.757979 *  0.931309 *   0.87073    1.000000    
    161 O2    c    0.089580 *  0.322020 *  0.598882 *   0.87073    1.000000    
    162 O2    c    0.225807 *  0.901842 *  0.267581 *   0.87073    1.000000    
    163 O2    c    0.571710 *  0.555271 *  0.987143 *   0.87073    1.000000    
    164 O2    c    0.438778 *  0.025135 *  0.323253 *   0.87073    1.000000    
    165 O2    c    0.970011 *  0.411067 *  0.654177 *   0.87073    1.000000    
    166 O2    c    0.411693 *  0.442362 *  0.487988 *   0.87073    1.000000    
    167 O2    c    0.557610 *  0.969379 *  0.819157 *   0.87073    1.000000    
    168 O3    c    0.008983 *  0.591914 *  0.152338 *   1.33043    1.000000    
    169 O2    c    0.558198 *  0.587863 *  0.340444 *   0.87073    1.000000    
    170 O2    c    0.013214 *  0.448239 *  0.005970 *   0.87073    1.000000    
    171 O2    c    0.409581 *  0.971534 *  0.671949 *   0.87073    1.000000    
    172 O2    c    0.437024 *  0.413247 *  0.839654 *   0.87073    1.000000    
    173 O2    c    0.970046 *  0.558293 *  0.506699 *   0.87073    1.000000    
    174 O2    c    0.587725 *  0.030210 *  0.176316 *   0.87073    1.000000    
    175 O2    c    0.579556 *  0.162635 *  0.250664 *   0.87073    1.000000    
    176 O2    c    0.832620 *  0.414979 *  0.580656 *   0.87073    1.000000    
    177 O2    c    0.577853 *  0.419939 *  0.913447 *   0.87073    1.000000    
    178 O2    c    0.412026 *  0.833789 *  0.745403 *   0.87073    1.000000    
    179 O3    c    0.157162 *  0.595199 *  0.075910 *   1.33043    1.000000    
    180 O2    c    0.415900 *  0.582634 *  0.414228 *   0.87073    1.000000    
    181 F     c    0.446196 *  0.899034 *  0.248426 *   0.56000    1.000000    
    182 F     c    0.095952 *  0.547561 *  0.580079 *   0.56000    1.000000    
    183 F     c    0.409159 *  0.512017 *  0.916656 *   0.56000    1.000000    
    184 F     c    0.545581 *  0.096012 *  0.746531 *   0.56000    1.000000    
    185 F     c    0.851749 *  0.439513 *  0.070619 *   0.56000    1.000000    
    186 F     c    0.547556 *  0.452678 *  0.414014 *   0.56000    1.000000    
    187 O2    s    0.917999 *  0.007421 *  0.997120 *  -2.87073    1.000000    
    188 O2    s    0.000832 *  0.925693 *  0.329799 *  -2.87073    1.000000    
    189 O2    s    0.069471 *  0.072117 *  0.661346 *  -2.87073    1.000000    
    190 O2    s    0.074908 *  0.001344 *  0.496282 *  -2.87073    1.000000    
    191 O2    s    0.997422 *  0.074901 *  0.828409 *  -2.87073    1.000000    
    192 O2    s    0.928248 *  0.935534 *  0.163280 *  -2.87073    1.000000    
    193 O2    s    0.350329 *  0.584768 *  0.331542 *  -2.87073    1.000000    
    194 O2    s    0.411907 *  0.766233 *  0.662580 *  -2.87073    1.000000    
    195 O2    s    0.224787 *  0.660237 *  0.993257 *  -2.87073    1.000000    
    196 O2    s    0.645031 *  0.411687 *  0.830061 *  -2.87073    1.000000    
    197 O2    s    0.580021 *  0.231347 *  0.169270 *  -2.87073    1.000000    
    198 O2    s    0.764314 *  0.352391 *  0.497581 *  -2.87073    1.000000    
    199 O3    s    0.577170 *  0.346405 *  0.996240 *  -3.33043    1.000000    
    200 O2    s    0.765144 *  0.413642 *  0.663980 *  -2.87073    1.000000    
    201 O2    s    0.647626 *  0.234294 *  0.333039 *  -2.87073    1.000000    
    202 O2    s    0.412815 *  0.648586 *  0.497175 *  -2.87073    1.000000    
    203 O3    s    0.236341 *  0.590521 *  0.166201 *  -3.33043    1.000000    
    204 O2    s    0.348861 *  0.765241 *  0.828152 *  -2.87073    1.000000    
    205 O3    s    0.119136 *  0.213255 *  0.964211 *  -3.33043    1.000000    
    206 O2    s    0.782827 *  0.906160 *  0.302316 *  -2.87073    1.000000    
    207 O2    s    0.093190 *  0.876707 *  0.633111 *  -2.87073    1.000000    
    208 O2    s    0.877511 *  0.783532 *  0.467542 *  -2.87073    1.000000    
    209 O2    s    0.212522 *  0.091372 *  0.798739 *  -2.87073    1.000000    
    210 O2    s    0.896511 *  0.123644 *  0.131896 *  -2.87073    1.000000    
    211 O2    s    0.216247 *  0.121053 *  0.361115 *  -2.87073    1.000000    
    212 O2    s    0.901591 *  0.795585 *  0.025690 *  -2.87073    1.000000    
    213 O2    s    0.874092 *  0.094215 *  0.691940 *  -2.87073    1.000000    
    214 O2    s    0.779027 *  0.876806 *  0.859500 *  -2.87073    1.000000    
    215 O2    s    0.092381 *  0.215769 *  0.527254 *  -2.87073    1.000000    
    216 O2    s    0.115247 *  0.900054 *  0.195032 *  -2.87073    1.000000    
    217 O2    s    0.924115 *  0.862085 *  0.246652 *  -2.87073    1.000000    
    218 O2    s    0.137910 *  0.067510 *  0.579431 *  -2.87073    1.000000    
    219 O2    s    0.927401 *  0.067385 *  0.911898 *  -2.87073    1.000000    
    220 O2    s    0.062829 *  0.129898 *  0.744399 *  -2.87073    1.000000    
    221 O2    s    0.850579 *  0.931912 *  0.080339 *  -2.87073    1.000000    
    222 O2    s    0.067673 *  0.928138 *  0.413639 *  -2.87073    1.000000    
    223 O2    s    0.916095 *  0.214856 *  0.975198 *  -2.87073    1.000000    
    224 O2    s    0.794541 *  0.704860 *  0.312927 *  -2.87073    1.000000    
    225 O2    s    0.293267 *  0.091422 *  0.645465 *  -2.87073    1.000000    
    226 O2    s    0.091076 *  0.796091 *  0.479452 *  -2.87073    1.000000    
    227 O2    s    0.203949 *  0.294251 *  0.805477 *  -2.87073    1.000000    
    228 O2    s    0.701999 *  0.908906 *  0.148431 *  -2.87073    1.000000    
    229 O2    s    0.202529 *  0.906609 *  0.349338 *  -2.87073    1.000000    
    230 O2    s    0.696040 *  0.796983 *  0.013750 *  -2.87073    1.000000    
    231 O2    s    0.089369 *  0.293665 *  0.680709 *  -2.87073    1.000000    
    232 O2    s    0.794053 *  0.091450 *  0.846889 *  -2.87073    1.000000    
    233 O2    s    0.295139 *  0.207015 *  0.515273 *  -2.87073    1.000000    
    234 O2    s    0.892369 *  0.708934 *  0.179109 *  -2.87073    1.000000    
    235 O2    s    0.325810 *  0.654110 *  0.249200 *  -2.87073    1.000000    
    236 O2    s    0.343298 *  0.672201 *  0.579917 *  -2.87073    1.000000    
    237 O2    s    0.320900 *  0.670478 *  0.910556 *  -2.87073    1.000000    
    238 O2    s    0.671466 *  0.344239 *  0.746985 *  -2.87073    1.000000    
    239 O3    s    0.624744 *  0.308411 *  0.086251 *  -3.33043    1.000000    
    240 O2    s    0.672301 *  0.330351 *  0.414824 *  -2.87073    1.000000    
    241 O3    s    0.379247 *  0.334823 *  0.966042 *  -3.33043    1.000000    
    242 O2    s    0.659168 *  0.036815 *  0.301616 *  -2.87073    1.000000    
    243 O2    s    0.962357 *  0.621787 *  0.631710 *  -2.87073    1.000000    
    244 O2    s    0.622621 *  0.660946 *  0.465549 *  -2.87073    1.000000    
    245 O2    s    0.337680 *  0.962701 *  0.797706 *  -2.87073    1.000000    
    246 O3    s    0.025700 *  0.374570 *  0.129075 *  -3.33043    1.000000    
    247 O2    s    0.338950 *  0.376048 *  0.362780 *  -2.87073    1.000000    
    248 O2    s    0.022739 *  0.663161 *  0.026522 *  -2.87073    1.000000    
    249 O2    s    0.620027 *  0.963918 *  0.694688 *  -2.87073    1.000000    
    250 O2    s    0.654670 *  0.620930 *  0.861660 *  -2.87073    1.000000    
    251 O2    s    0.961245 *  0.339124 *  0.528777 *  -2.87073    1.000000    
    252 O2    s    0.371498 *  0.030419 *  0.198128 *  -2.87073    1.000000    
    253 O3    s    0.768043 *  0.294457 *  0.005636 *  -3.33043    1.000000    
    254 O2    s    0.689571 *  0.467491 *  0.345016 *  -2.87073    1.000000    
    255 O2    s    0.531689 *  0.223539 *  0.677496 *  -2.87073    1.000000    
    256 O2    s    0.222533 *  0.689808 *  0.510665 *  -2.87073    1.000000    
    257 O2    s    0.305002 *  0.532464 *  0.840975 *  -2.87073    1.000000    
    258 O2    s    0.465617 *  0.778099 *  0.179960 *  -2.87073    1.000000    
    259 O2    s    0.307230 *  0.773704 *  0.318354 *  -2.87073    1.000000    
    260 O2    s    0.458176 *  0.690511 *  0.980751 *  -2.87073    1.000000    
    261 O2    s    0.222056 *  0.532808 *  0.649368 *  -2.87073    1.000000    
    262 O2    s    0.687619 *  0.222516 *  0.815951 *  -2.87073    1.000000    
    263 O2    s    0.532803 *  0.312082 *  0.483830 *  -2.87073    1.000000    
    264 O2    s    0.760670 *  0.466441 *  0.147900 *  -2.87073    1.000000    
    265 O3    s    0.776956 *  0.549825 *  0.023120 *  -3.33043    1.000000    
    266 O2    s    0.467640 *  0.257898 *  0.362167 *  -2.87073    1.000000    
    267 O2    s    0.740767 *  0.211412 *  0.694001 *  -2.87073    1.000000    
    268 O2    s    0.209054 *  0.467708 *  0.527566 *  -2.87073    1.000000    
    269 O2    s    0.524553 *  0.733494 *  0.861273 *  -2.87073    1.000000    
    270 O2    s    0.249567 *  0.783210 *  0.196036 *  -2.87073    1.000000    
    271 O2    s    0.530556 *  0.789903 *  0.301781 *  -2.87073    1.000000    
    272 O3    s    0.241105 *  0.480538 *  0.967506 *  -3.33043    1.000000    
    273 O2    s    0.209610 *  0.742010 *  0.632493 *  -2.87073    1.000000    
    274 O2    s    0.465426 *  0.209748 *  0.798831 *  -2.87073    1.000000    
    275 O2    s    0.742071 *  0.533300 *  0.466991 *  -2.87073    1.000000    
    276 O2    s    0.782527 *  0.262773 *  0.130951 *  -2.87073    1.000000    
    277 O3    s    0.222487 *  0.323960 *  0.886043 *  -3.33043    1.000000    
    278 O2    s    0.667108 *  0.910379 *  0.231874 *  -2.87073    1.000000    
    279 O2    s    0.091804 *  0.759073 *  0.562318 *  -2.87073    1.000000    
    280 O2    s    0.759458 *  0.668169 *  0.396299 *  -2.87073    1.000000    
    281 O2    s    0.329388 *  0.090012 *  0.728338 *  -2.87073    1.000000    
    282 O2    s    0.899915 *  0.245124 *  0.060248 *  -2.87073    1.000000    
    283 O2    s    0.331424 *  0.241218 *  0.432228 *  -2.87073    1.000000    
    284 O2    s    0.889253 *  0.664297 *  0.095596 *  -2.87073    1.000000    
    285 O2    s    0.758947 *  0.094214 *  0.763806 *  -2.87073    1.000000    
    286 O2    s    0.657325 *  0.750464 *  0.930378 *  -2.87073    1.000000    
    287 O2    s    0.089896 *  0.331631 *  0.597985 *  -2.87073    1.000000    
    288 O2    s    0.235196 *  0.901859 *  0.266632 *  -2.87073    1.000000    
    289 O2    s    0.569521 *  0.557103 *  0.984157 *  -2.87073    1.000000    
    290 O2    s    0.438714 *  0.020582 *  0.319902 *  -2.87073    1.000000    
    291 O2    s    0.974897 *  0.415668 *  0.650841 *  -2.87073    1.000000    
    292 O2    s    0.416341 *  0.442168 *  0.484632 *  -2.87073    1.000000    
    293 O2    s    0.557692 *  0.974630 *  0.815886 *  -2.87073    1.000000    
    294 O3    s    0.004479 *  0.588862 *  0.149581 *  -3.33043    1.000000    
    295 O2    s    0.558474 *  0.583170 *  0.343808 *  -2.87073    1.000000    
    296 O2    s    0.010551 *  0.448673 *  0.008580 *  -2.87073    1.000000    
    297 O2    s    0.414157 *  0.976360 *  0.675345 *  -2.87073    1.000000    
    298 O2    s    0.437010 *  0.417004 *  0.842500 *  -2.87073    1.000000    
    299 O2    s    0.975133 *  0.558732 *  0.510035 *  -2.87073    1.000000    
    300 O2    s    0.582676 *  0.024746 *  0.179654 *  -2.87073    1.000000    
    301 O2    s    0.574082 *  0.151529 *  0.250743 *  -2.87073    1.000000    
    302 O2    s    0.843749 *  0.420690 *  0.580652 *  -2.87073    1.000000    
    303 O2    s    0.573077 *  0.424228 *  0.912947 *  -2.87073    1.000000    
    304 O2    s    0.417968 *  0.845013 *  0.745436 *  -2.87073    1.000000    
    305 O3    s    0.148070 *  0.590464 *  0.075596 *  -3.33043    1.000000    
    306 O2    s    0.421440 *  0.577198 *  0.414249 *  -2.87073    1.000000    
    307 F     s    0.445665 *  0.898296 *  0.248311 *  -1.56000    1.000000    
    308 F     s    0.096473 *  0.547799 *  0.580065 *  -1.56000    1.000000    
    309 F     s    0.400623 *  0.503870 *  0.917978 *  -1.56000    1.000000    
    310 F     s    0.545731 *  0.096367 *  0.746559 *  -1.56000    1.000000    
    311 F     s    0.842206 *  0.435642 *  0.068569 *  -1.56000    1.000000    
    312 F     s    0.547747 *  0.452470 *  0.413967 *  -1.56000    1.000000    
--------------------------------------------------------------------------------



********************************************************************************
*  General input information                                                   *
********************************************************************************

  Species output for all configurations : 

--------------------------------------------------------------------------------
  Species    Type    Atomic    Atomic    Charge       Radii (Angs)     Library
                     Number     Mass       (e)     Cova   Ionic  VDW   Symbol
--------------------------------------------------------------------------------
    Si       Core       14      28.09   4.000000   1.200  0.000  2.100          
    O1       Core        8      16.00   1.733957   0.730  0.000  1.360          
    O1       Shell       8       0.00  -3.733957   0.730  0.000  1.360          
    O2       Core        8      16.00   0.870733   0.730  0.000  1.360          
    O2       Shell       8       0.00  -2.870733   0.730  0.000  1.360          
    O3       Core        8      16.00   1.330431   0.730  0.000  1.360          
    O3       Shell       8       0.00  -3.330431   0.730  0.000  1.360          
    F        Core        9      19.00   0.560000   0.710  0.000  1.300          
    F        Shell       9       0.00  -1.560000   0.710  0.000  1.300          
    Ge       Core       32      72.61   4.000000   1.170  0.000  1.750          
--------------------------------------------------------------------------------


  Lattice summation method               =    Ewald          (3-D)
                                         =    Parry          (2-D)
                                         =    Saunders et al (1-D)
  Accuracy factor for lattice sums       =   12.000


  Time limit = Infinity

  Maximum range for interatomic potentials =        16.000000 Angstroms

  Taper potentials to zero over   1.0000 Angstroms using polynomial

  General interatomic potentials :

--------------------------------------------------------------------------------
Atom  Types   Potential         A         B         C         D     Cutoffs(Ang)
  1     2                                                            Min    Max 
--------------------------------------------------------------------------------
Si   c O1   s Buckingham    0.132E+04 0.318      10.1      0.00     0.000 16.000
Si   c O2   s Buckingham    0.132E+04 0.318      10.1      0.00     0.000 16.000
Si   c O3   s Buckingham    0.132E+04 0.318      10.1      0.00     0.000 16.000
Ge   c O1   s Buckingham    0.150E+04 0.326      16.8      0.00     0.000 16.000
Ge   c O2   s Buckingham    0.150E+04 0.326      16.8      0.00     0.000 16.000
Ge   c O3   s Buckingham    0.150E+04 0.326      16.8      0.00     0.000 16.000
O1   s O1   s Buckingham    0.228E+05 0.149      10.9      0.00     0.000 16.000
O1   s O2   s Buckingham    0.228E+05 0.149      10.9      0.00     0.000 16.000
O1   s O3   s Buckingham    0.228E+05 0.149      10.9      0.00     0.000 16.000
O2   s O2   s Buckingham    0.228E+05 0.149      10.9      0.00     0.000 16.000
O2   s O3   s Buckingham    0.228E+05 0.149      10.9      0.00     0.000 16.000
O3   s O3   s Buckingham    0.228E+05 0.149      10.9      0.00     0.000 16.000
Si   c F    s Buckingham     977.     0.282      0.00      0.00     0.000 16.000
Ge   c F    s Buckingham     681.     0.320      0.00      0.00     0.000 16.000
F    s F    s Buckingham     540.     0.262      0.00      0.00     0.000 16.000
O1   s F    s Buckingham    0.168E+04 0.268      0.00      0.00     0.000 16.000
O2   s F    s Buckingham    0.168E+04 0.268      0.00      0.00     0.000 16.000
O3   s F    s Buckingham    0.168E+04 0.268      0.00      0.00     0.000 16.000
O2   c O2   s Spring (c-s)   76.0      0.00      0.00      0.00     0.000  0.800
O3   c O3   s Spring (c-s)   128.      0.00      0.00      0.00     0.000  0.800
O1   c O1   s Spring (c-s)   180.      0.00      0.00      0.00     0.000  0.800
F    c F    s Spring (c-s)   33.5      0.00      0.00      0.00     0.000  0.800
--------------------------------------------------------------------------------

  General Three-body potentials :

  Harmonic form:

--------------------------------------------------------------------------------
Atom    Atom    Atom           Force Constants            Theta     Cutoffs  
  1       2       3     (eVrad**-2/eVrad**-3/eVrad**-4)   (deg)  1-2  1-3  2-3
--------------------------------------------------------------------------------
Si    c O1    s O1    s  1.261        0.0000    0.0000   109.470 0.00 0.00 0.00
                                                                 1.90 1.90 3.50
Si    c O1    s O2    s  1.261        0.0000    0.0000   109.470 0.00 0.00 0.00
                                                                 1.90 1.90 3.50
Si    c O2    s O2    s  1.261        0.0000    0.0000   109.470 0.00 0.00 0.00
                                                                 1.90 1.90 3.50
--------------------------------------------------------------------------------

********************************************************************************
*  Output for configuration   1                                                *
********************************************************************************


  Components of energy : 

--------------------------------------------------------------------------------
  Interatomic potentials     =        2063.42327127 eV
  Three-body potentials      =           0.43622724 eV
  Monopole - monopole (real) =       -6611.35464458 eV
  Monopole - monopole (recip)=       -3172.62046131 eV
  Monopole - monopole (total)=       -9783.97510589 eV
  Neutralising energy        =          -6.46261716 eV
--------------------------------------------------------------------------------
  Total lattice energy       =       -7726.57822454 eV
--------------------------------------------------------------------------------
  Total lattice energy       =         -745496.6871 kJ/(mole unit cells)
--------------------------------------------------------------------------------


  Number of variables =      939

  Maximum number of calculations  =          1000
  Maximum Hessian update interval =            10
  Maximum step size               =   1.000000000
  Maximum parameter tolerance     =   0.000010000
  Maximum function  tolerance     =   0.000010000
  Maximum gradient  tolerance     =   0.001000000
  Maximum gradient  component     =   0.010000000

  Symmetry not applied to optimisation

  Cell parameters to be optimised using strains

  Newton-Raphson optimiser to be used

  BFGS hessian update to be used

  Dumpfile to be written after every cycle

  Start of bulk optimisation :

  Cycle:      0 Energy:     -7726.578225  Gnorm:      0.001215  CPU:    1.073
  ** Hessian calculated **
  Cycle:      1 Energy:     -7726.731433  Gnorm:      0.008294  CPU:    3.637
  Cycle:      2 Energy:     -7726.753037  Gnorm:      0.006030  CPU:    5.018
  Cycle:      3 Energy:     -7726.753713  Gnorm:      0.000697  CPU:    6.550
  Cycle:      4 Energy:     -7726.753804  Gnorm:      0.000545  CPU:    7.931
  Cycle:      5 Energy:     -7726.753813  Gnorm:      0.000142  CPU:    9.313


  **** Optimisation achieved ****


  Final energy =   -7726.75381341 eV
  Final Gnorm  =       0.00002989

  Components of energy : 

--------------------------------------------------------------------------------
  Interatomic potentials     =        2064.13253696 eV
  Three-body potentials      =           0.43868384 eV
  Monopole - monopole (real) =       -6613.75641383 eV
  Monopole - monopole (recip)=       -3171.10907711 eV
  Monopole - monopole (total)=       -9784.86549094 eV
  Neutralising energy        =          -6.45954327 eV
--------------------------------------------------------------------------------
  Total lattice energy       =       -7726.75381341 eV
--------------------------------------------------------------------------------
  Total lattice energy       =         -745513.6287 kJ/(mole unit cells)
--------------------------------------------------------------------------------

  Final fractional coordinates of atoms :

--------------------------------------------------------------------------------
   No.  Atomic        x           y          z          Radius
        Label       (Frac)      (Frac)     (Frac)       (Angs) 
--------------------------------------------------------------------------------
     1  Ge    c     0.699600    0.375700    0.033890    0.000000
     2  Si    c     0.585750    0.304347    0.364354    0.000000
     3  Si    c     0.640014    0.271521    0.696212    0.000000
     4  Si    c     0.261850    0.598191    0.530535    0.000000
     5  Si    c     0.342058    0.650625    0.861954    0.000000
     6  Si    c     0.291886    0.683081    0.200979    0.000000
     7  Si    c     0.343482    0.681841    0.301063    0.000000
     8  Si    c     0.290205    0.603357    0.964664    0.000000
     9  Si    c     0.260593    0.651217    0.630804    0.000000
    10  Si    c     0.586720    0.272520    0.796695    0.000000
    11  Si    c     0.641776    0.356849    0.464748    0.000000
    12  Si    c     0.655639    0.299721    0.131169    0.000000
    13  Si    c     0.510110    0.392188    0.966408    0.000000
    14  Si    c     0.547023    0.093046    0.300343    0.000000
    15  Si    c     0.850336    0.443040    0.630838    0.000000
    16  Si    c     0.434651    0.560700    0.466301    0.000000
    17  Si    c     0.382148    0.863080    0.797259    0.000000
    18  Ge    c     0.079940    0.521519    0.132931    0.000000
    19  Si    c     0.381528    0.508462    0.364956    0.000000
    20  Si    c     0.088856    0.581919    0.028524    0.000000
    21  Si    c     0.431682    0.861493    0.695918    0.000000
    22  Si    c     0.551213    0.445296    0.861695    0.000000
    23  Si    c     0.852040    0.392971    0.529406    0.000000
    24  Si    c     0.492573    0.089313    0.198825    0.000000
    25  Si    c     0.264345    0.370348    0.844681    0.000000
    26  Si    c     0.569529    0.885492    0.184740    0.000000
    27  Si    c     0.061520    0.675111    0.515215    0.000000
    28  Si    c     0.662700    0.582248    0.349534    0.000000
    29  Si    c     0.360277    0.069610    0.681651    0.000000
    30  Si    c     0.883165    0.289133    0.010766    0.000000
    31  Si    c     0.363223    0.279936    0.479801    0.000000
    32  Si    c     0.857464    0.586606    0.145024    0.000000
    33  Si    c     0.664811    0.072475    0.811639    0.000000
    34  Si    c     0.572947    0.676027    0.979056    0.000000
    35  Si    c     0.059187    0.371523    0.645237    0.000000
    36  Si    c     0.264272    0.880523    0.313764    0.000000
    37  Ge    c     0.244911    0.339467    0.944617    0.000000
    38  Si    c     0.625879    0.893381    0.285613    0.000000
    39  Si    c     0.052157    0.723160    0.615736    0.000000
    40  Si    c     0.713384    0.637626    0.450132    0.000000
    41  Si    c     0.303723    0.062508    0.782216    0.000000
    42  Si    c     0.875698    0.234436    0.114035    0.000000
    43  Si    c     0.304079    0.230047    0.379412    0.000000
    44  Si    c     0.884061    0.660072    0.042567    0.000000
    45  Si    c     0.712032    0.063631    0.710956    0.000000
    46  Si    c     0.629917    0.725766    0.876878    0.000000
    47  Si    c     0.052597    0.315467    0.544628    0.000000
    48  Si    c     0.211138    0.884589    0.213022    0.000000
    49  Si    c     0.959288    0.113156    0.961528    0.000000
    50  Si    c     0.842584    0.830862    0.298344    0.000000
    51  Si    c     0.112314    0.001967    0.630460    0.000000
    52  Si    c     0.994089    0.855560    0.464828    0.000000
    53  Si    c     0.086927    0.124848    0.795084    0.000000
    54  Si    c     0.814536    0.955460    0.131351    0.000000
    55  Si    c     0.085653    0.949456    0.363896    0.000000
    56  Si    c     0.821297    0.872766    0.029324    0.000000
    57  Si    c     0.990439    0.122153    0.695033    0.000000
    58  Si    c     0.847729    0.009187    0.862765    0.000000
    59  Si    c     0.114501    0.098220    0.529940    0.000000
    60  Si    c     0.932053    0.832728    0.196712    0.000000
    61  O2    c     0.894746    0.995581    0.997697    0.000000
    62  O2    c     0.966291    0.909571    0.330259    0.000000
    63  O2    c     0.030214    0.042730    0.661843    0.000000
    64  O2    c     0.036231    0.978022    0.496670    0.000000
    65  O2    c     0.966748    0.050750    0.828868    0.000000
    66  O2    c     0.901101    0.920411    0.163669    0.000000
    67  O2    c     0.304339    0.558421    0.333510    0.000000
    68  O2    c     0.383397    0.736072    0.663750    0.000000
    69  O2    c     0.214680    0.656857    0.995827    0.000000
    70  O2    c     0.626408    0.396181    0.828989    0.000000
    71  O2    c     0.542158    0.216419    0.167648    0.000000
    72  O2    c     0.725968    0.317094    0.496896    0.000000
    73  O3    c     0.568986    0.326995    0.995823    0.000000
    74  O2    c     0.724656    0.394348    0.663155    0.000000
    75  O2    c     0.624004    0.219642    0.332010    0.000000
    76  O2    c     0.386580    0.637342    0.498451    0.000000
    77  O3    c     0.208136    0.561069    0.168953    0.000000
    78  O2    c     0.306211    0.737186    0.829774    0.000000
    79  O3    c     0.108725    0.189679    0.965401    0.000000
    80  O2    c     0.752795    0.894316    0.305475    0.000000
    81  O2    c     0.050031    0.847722    0.635806    0.000000
    82  O2    c     0.839587    0.763652    0.470714    0.000000
    83  O2    c     0.176375    0.060478    0.801911    0.000000
    84  O2    c     0.872328    0.108451    0.135612    0.000000
    85  O2    c     0.177334    0.103967    0.359048    0.000000
    86  O2    c     0.899280    0.796162    0.026224    0.000000
    87  O2    c     0.835990    0.061290    0.690022    0.000000
    88  O2    c     0.754249    0.853864    0.857023    0.000000
    89  O2    c     0.051649    0.189082    0.524703    0.000000
    90  O2    c     0.085594    0.885533    0.192680    0.000000
    91  O2    c     0.892077    0.845812    0.247210    0.000000
    92  O2    c     0.100075    0.042003    0.579912    0.000000
    93  O2    c     0.899945    0.046202    0.913082    0.000000
    94  O2    c     0.029488    0.103651    0.744924    0.000000
    95  O2    c     0.821385    0.916131    0.080569    0.000000
    96  O2    c     0.030965    0.907249    0.414032    0.000000
    97  O2    c     0.903476    0.208653    0.971795    0.000000
    98  O2    c     0.759955    0.678934    0.310652    0.000000
    99  O2    c     0.264037    0.072407    0.643315    0.000000
   100  O2    c     0.064188    0.774441    0.476995    0.000000
   101  O2    c     0.174871    0.278791    0.802996    0.000000
   102  O2    c     0.664178    0.881940    0.146393    0.000000
   103  O2    c     0.166996    0.879894    0.352027    0.000000
   104  O2    c     0.670668    0.778002    0.016146    0.000000
   105  O2    c     0.061248    0.274591    0.683354    0.000000
   106  O2    c     0.763284    0.075752    0.850166    0.000000
   107  O2    c     0.267056    0.181711    0.518403    0.000000
   108  O2    c     0.851878    0.682090    0.182908    0.000000
   109  O2    c     0.288262    0.623399    0.250973    0.000000
   110  O2    c     0.319465    0.654332    0.580725    0.000000
   111  O2    c     0.288602    0.650182    0.912452    0.000000
   112  O2    c     0.642938    0.329538    0.746330    0.000000
   113  O3    c     0.597572    0.294898    0.082680    0.000000
   114  O2    c     0.642794    0.302535    0.414313    0.000000
   115  O3    c     0.355372    0.302986    0.969641    0.000000
   116  O2    c     0.634863    0.025235    0.303340    0.000000
   117  O2    c     0.919189    0.599329    0.633667    0.000000
   118  O2    c     0.591722    0.647979    0.468671    0.000000
   119  O2    c     0.294743    0.931038    0.801044    0.000000
   120  O3    c     0.005302    0.354919    0.132706    0.000000
   121  O2    c     0.293530    0.352050    0.361252    0.000000
   122  O2    c     0.018615    0.667184    0.027656    0.000000
   123  O2    c     0.588394    0.930635    0.693161    0.000000
   124  O2    c     0.635869    0.602378    0.858412    0.000000
   125  O2    c     0.920161    0.305552    0.526068    0.000000
   126  O2    c     0.335499    0.017196    0.194841    0.000000
   127  O3    c     0.749974    0.282318    0.002296    0.000000
   128  O2    c     0.661155    0.447866    0.341771    0.000000
   129  O2    c     0.495802    0.203539    0.674167    0.000000
   130  O2    c     0.195173    0.674135    0.507840    0.000000
   131  O2    c     0.269129    0.508145    0.839330    0.000000
   132  O2    c     0.434326    0.751506    0.177491    0.000000
   133  O2    c     0.266186    0.748258    0.322404    0.000000
   134  O2    c     0.438431    0.676464    0.983980    0.000000
   135  O2    c     0.192823    0.507168    0.652803    0.000000
   136  O2    c     0.661706    0.204503    0.818967    0.000000
   137  O2    c     0.497680    0.280707    0.486894    0.000000
   138  O2    c     0.725909    0.448481    0.150539    0.000000
   139  O3    c     0.761226    0.544238    0.019984    0.000000
   140  O2    c     0.429005    0.228957    0.359542    0.000000
   141  O2    c     0.713518    0.189770    0.691200    0.000000
   142  O2    c     0.179889    0.441827    0.525239    0.000000
   143  O2    c     0.497917    0.716723    0.859946    0.000000
   144  O2    c     0.209311    0.757414    0.193711    0.000000
   145  O2    c     0.500144    0.767286    0.305758    0.000000
   146  O3    c     0.211333    0.450994    0.972640    0.000000
   147  O2    c     0.178420    0.724497    0.635555    0.000000
   148  O2    c     0.429853    0.190095    0.801450    0.000000
   149  O2    c     0.715165    0.512858    0.469545    0.000000
   150  O2    c     0.751603    0.239791    0.132365    0.000000
   151  O3    c     0.186876    0.290186    0.887947    0.000000
   152  O2    c     0.643206    0.891319    0.231466    0.000000
   153  O2    c     0.056243    0.744018    0.561516    0.000000
   154  O2    c     0.733645    0.656317    0.395870    0.000000
   155  O2    c     0.285528    0.063593    0.727970    0.000000
   156  O2    c     0.881600    0.223503    0.059762    0.000000
   157  O2    c     0.286876    0.209807    0.433621    0.000000
   158  O2    c     0.870484    0.659571    0.097692    0.000000
   159  O2    c     0.734232    0.068602    0.765105    0.000000
   160  O2    c     0.641927    0.735940    0.930994    0.000000
   161  O2    c     0.054260    0.297720    0.598824    0.000000
   162  O2    c     0.192625    0.882251    0.267342    0.000000
   163  O2    c     0.552362    0.535420    0.987448    0.000000
   164  O2    c     0.404541    0.006396    0.322514    0.000000
   165  O2    c     0.933911    0.385530    0.653859    0.000000
   166  O2    c     0.378049    0.419030    0.489050    0.000000
   167  O2    c     0.524863    0.944972    0.820084    0.000000
   168  O3    c     0.979444    0.570887    0.155201    0.000000
   169  O2    c     0.522714    0.567719    0.341202    0.000000
   170  O2    c     0.999567    0.439281    0.008257    0.000000
   171  O2    c     0.374085    0.944687    0.672648    0.000000
   172  O2    c     0.408928    0.391184    0.839694    0.000000
   173  O2    c     0.935727    0.534915    0.506282    0.000000
   174  O2    c     0.554740    0.010232    0.175908    0.000000
   175  O2    c     0.544909    0.142974    0.249450    0.000000
   176  O2    c     0.797550    0.390490    0.580020    0.000000
   177  O2    c     0.553671    0.399671    0.912781    0.000000
   178  O2    c     0.378290    0.808138    0.746670    0.000000
   179  O3    c     0.136616    0.581738    0.079494    0.000000
   180  O2    c     0.381093    0.560289    0.415639    0.000000
   181  F     c     0.411566    0.877980    0.248119    0.000000
   182  F     c     0.060167    0.523160    0.579845    0.000000
   183  F     c     0.385985    0.489590    0.917429    0.000000
   184  F     c     0.510760    0.069176    0.746678    0.000000
   185  F     c     0.841190    0.432055    0.072158    0.000000
   186  F     c     0.512006    0.430483    0.414270    0.000000
   187  O2    s     0.892792    0.993373    0.997636    0.000000
   188  O2    s     0.965727    0.905158    0.330432    0.000000
   189  O2    s     0.034991    0.047007    0.662021    0.000000
   190  O2    s     0.040270    0.977716    0.496817    0.000000
   191  O2    s     0.966923    0.054417    0.828858    0.000000
   192  O2    s     0.895151    0.914619    0.163796    0.000000
   193  O2    s     0.316381    0.566122    0.333367    0.000000
   194  O2    s     0.375667    0.740239    0.663651    0.000000
   195  O2    s     0.209311    0.644015    0.996090    0.000000
   196  O2    s     0.614629    0.388510    0.829003    0.000000
   197  O2    s     0.548634    0.211549    0.167172    0.000000
   198  O2    s     0.730188    0.329010    0.496890    0.000000
   199  O3    s     0.571637    0.337950    0.995228    0.000000
   200  O2    s     0.728961    0.386740    0.663221    0.000000
   201  O2    s     0.612069    0.215118    0.332027    0.000000
   202  O2    s     0.378810    0.625395    0.498408    0.000000
   203  O3    s     0.206019    0.569856    0.169191    0.000000
   204  O2    s     0.317804    0.741034    0.829824    0.000000
   205  O3    s     0.099826    0.190165    0.963675    0.000000
   206  O2    s     0.749105    0.887536    0.302687    0.000000
   207  O2    s     0.056861    0.851205    0.633189    0.000000
   208  O2    s     0.842977    0.760347    0.467961    0.000000
   209  O2    s     0.180247    0.067414    0.799176    0.000000
   210  O2    s     0.866378    0.104874    0.132931    0.000000
   211  O2    s     0.180718    0.100563    0.361661    0.000000
   212  O2    s     0.889417    0.790241    0.028237    0.000000
   213  O2    s     0.839613    0.068032    0.692698    0.000000
   214  O2    s     0.750499    0.856044    0.859712    0.000000
   215  O2    s     0.058391    0.192487    0.527283    0.000000
   216  O2    s     0.082377    0.879842    0.195194    0.000000
   217  O2    s     0.891026    0.842692    0.247290    0.000000
   218  O2    s     0.103098    0.043881    0.579935    0.000000
   219  O2    s     0.900079    0.048864    0.912283    0.000000
   220  O2    s     0.031492    0.108143    0.744874    0.000000
   221  O2    s     0.820591    0.915878    0.080769    0.000000
   222  O2    s     0.033037    0.906227    0.414056    0.000000
   223  O2    s     0.906961    0.207694    0.975003    0.000000
   224  O2    s     0.758831    0.685207    0.313299    0.000000
   225  O2    s     0.257688    0.064611    0.645857    0.000000
   226  O2    s     0.056514    0.772943    0.479587    0.000000
   227  O2    s     0.174464    0.271666    0.806224    0.000000
   228  O2    s     0.670273    0.890091    0.148797    0.000000
   229  O2    s     0.168366    0.887381    0.349332    0.000000
   230  O2    s     0.676218    0.777244    0.013651    0.000000
   231  O2    s     0.053570    0.268433    0.680687    0.000000
   232  O2    s     0.761985    0.068415    0.847507    0.000000
   233  O2    s     0.260705    0.182934    0.515658    0.000000
   234  O2    s     0.860915    0.688489    0.180569    0.000000
   235  O2    s     0.294344    0.635593    0.251011    0.000000
   236  O2    s     0.307546    0.648262    0.580691    0.000000
   237  O2    s     0.294304    0.645565    0.912310    0.000000
   238  O2    s     0.636916    0.317797    0.746340    0.000000
   239  O3    s     0.610203    0.300553    0.084740    0.000000
   240  O2    s     0.636824    0.308287    0.414333    0.000000
   241  O3    s     0.362115    0.314529    0.967399    0.000000
   242  O2    s     0.624905    0.018375    0.301167    0.000000
   243  O2    s     0.926103    0.596238    0.631471    0.000000
   244  O2    s     0.588273    0.637863    0.466463    0.000000
   245  O2    s     0.304723    0.937728    0.798681    0.000000
   246  O3    s     0.998048    0.355974    0.130813    0.000000
   247  O2    s     0.303708    0.355416    0.363541    0.000000
   248  O2    s     0.012318    0.657613    0.029259    0.000000
   249  O2    s     0.585153    0.937484    0.695338    0.000000
   250  O2    s     0.626715    0.599562    0.860686    0.000000
   251  O2    s     0.926979    0.315567    0.528354    0.000000
   252  O2    s     0.338629    0.010724    0.197159    0.000000
   253  O3    s     0.760880    0.289431    0.005435    0.000000
   254  O2    s     0.653570    0.447184    0.344934    0.000000
   255  O2    s     0.496369    0.196403    0.677268    0.000000
   256  O2    s     0.187991    0.666461    0.510967    0.000000
   257  O2    s     0.276237    0.509135    0.842252    0.000000
   258  O2    s     0.434059    0.758757    0.180718    0.000000
   259  O2    s     0.273926    0.755366    0.319265    0.000000
   260  O2    s     0.437587    0.669059    0.981504    0.000000
   261  O2    s     0.185685    0.507680    0.649702    0.000000
   262  O2    s     0.654290    0.197610    0.815864    0.000000
   263  O2    s     0.498334    0.288488    0.483821    0.000000
   264  O2    s     0.733105    0.448857    0.148062    0.000000
   265  O3    s     0.770706    0.545992    0.023300    0.000000
   266  O2    s     0.431906    0.237041    0.362159    0.000000
   267  O2    s     0.705585    0.184541    0.693837    0.000000
   268  O2    s     0.174546    0.444389    0.527848    0.000000
   269  O2    s     0.495834    0.710638    0.861996    0.000000
   270  O2    s     0.217435    0.763511    0.196349    0.000000
   271  O2    s     0.497433    0.772156    0.303108    0.000000
   272  O3    s     0.221770    0.458709    0.969920    0.000000
   273  O2    s     0.173163    0.716627    0.632936    0.000000
   274  O2    s     0.432584    0.184832    0.798910    0.000000
   275  O2    s     0.707163    0.510015    0.466957    0.000000
   276  O2    s     0.755359    0.245309    0.130276    0.000000
   277  O3    s     0.198799    0.301887    0.887246    0.000000
   278  O2    s     0.633608    0.890925    0.232314    0.000000
   279  O2    s     0.056367    0.734578    0.562388    0.000000
   280  O2    s     0.724082    0.646587    0.396712    0.000000
   281  O2    s     0.295335    0.064104    0.728814    0.000000
   282  O2    s     0.881121    0.231055    0.060754    0.000000
   283  O2    s     0.296663    0.219274    0.432694    0.000000
   284  O2    s     0.870412    0.651766    0.097282    0.000000
   285  O2    s     0.724643    0.068494    0.764234    0.000000
   286  O2    s     0.633343    0.728501    0.930134    0.000000
   287  O2    s     0.054592    0.307332    0.597920    0.000000
   288  O2    s     0.202057    0.882312    0.266453    0.000000
   289  O2    s     0.550422    0.537659    0.984493    0.000000
   290  O2    s     0.404460    0.001805    0.319222    0.000000
   291  O2    s     0.938869    0.390190    0.650525    0.000000
   292  O2    s     0.382563    0.418884    0.485659    0.000000
   293  O2    s     0.524947    0.950174    0.816803    0.000000
   294  O3    s     0.975191    0.568316    0.152314    0.000000
   295  O2    s     0.523092    0.562951    0.344570    0.000000
   296  O2    s     0.997187    0.439528    0.010762    0.000000
   297  O2    s     0.378760    0.949631    0.676038    0.000000
   298  O2    s     0.408960    0.394867    0.842545    0.000000
   299  O2    s     0.940740    0.535249    0.509650    0.000000
   300  O2    s     0.549728    0.004974    0.179228    0.000000
   301  O2    s     0.539641    0.132069    0.249533    0.000000
   302  O2    s     0.808679    0.396186    0.580027    0.000000
   303  O2    s     0.549293    0.403994    0.912239    0.000000
   304  O2    s     0.384217    0.819377    0.746657    0.000000
   305  O3    s     0.127413    0.576877    0.078930    0.000000
   306  O2    s     0.386719    0.554904    0.415620    0.000000
   307  F     s     0.410852    0.876949    0.247936    0.000000
   308  F     s     0.060629    0.523384    0.579796    0.000000
   309  F     s     0.376857    0.480600    0.918957    0.000000
   310  F     s     0.510829    0.069411    0.746679    0.000000
   311  F     s     0.830943    0.428239    0.069543    0.000000
   312  F     s     0.512131    0.430250    0.414202    0.000000
--------------------------------------------------------------------------------

  Final Cartesian lattice vectors (Angstroms) :

       11.972031    0.006168   -0.005237
       -6.095539   10.345813    0.024527
       -0.055181    0.029383   29.521431


  Final cell parameters and derivatives :

--------------------------------------------------------------------------------
       a           11.972034 Angstrom     dE/de1(xx)    -0.002798 eV/strain
       b           12.007999 Angstrom     dE/de2(yy)    -0.003130 eV/strain
       c           29.521497 Angstrom     dE/de3(zz)    -0.003504 eV/strain
       alpha       89.779471 Degrees      dE/de4(yz)    -0.000112 eV/strain
       beta        90.132132 Degrees      dE/de5(xz)     0.000299 eV/strain
       gamma      120.476179 Degrees      dE/de6(xy)     0.000252 eV/strain
--------------------------------------------------------------------------------

  Primitive cell volume =          3657.635294 Angs**3

  Density of cell =      1.749243 g/cm**3

  Non-primitive cell volume =          3657.635294 Angs**3


  Final internal derivatives :

--------------------------------------------------------------------------------
   No.  Atomic          a             b             c           Radius
        Label          (eV)          (eV)          (eV)        (eV/Angs)
--------------------------------------------------------------------------------
      1 Ge    c       0.000000      0.000000      0.000000      0.000000
      2 Si    c       0.000249     -0.000265     -0.000762      0.000000
      3 Si    c      -0.000210     -0.000058      0.000340      0.000000
      4 Si    c       0.000009     -0.000140     -0.000634      0.000000
      5 Si    c       0.000212     -0.000446      0.000661      0.000000
      6 Si    c       0.000351      0.000056     -0.003551      0.000000
      7 Si    c       0.000234      0.000266      0.001033      0.000000
      8 Si    c      -0.000285      0.000138      0.000921      0.000000
      9 Si    c      -0.000014     -0.000007      0.001062      0.000000
     10 Si    c      -0.000062     -0.000533     -0.001228      0.000000
     11 Si    c       0.000056     -0.000041     -0.000067      0.000000
     12 Si    c      -0.001343      0.000658     -0.005855      0.000000
     13 Si    c      -0.000693     -0.002174      0.001929      0.000000
     14 Si    c      -0.000068      0.000013     -0.000420      0.000000
     15 Si    c       0.000058      0.000077     -0.000328      0.000000
     16 Si    c       0.000030     -0.000062     -0.000080      0.000000
     17 Si    c       0.000009      0.000200     -0.000516      0.000000
     18 Ge    c       0.001052      0.000195     -0.000932      0.000000
     19 Si    c       0.000110     -0.000051      0.000155      0.000000
     20 Si    c       0.000928     -0.000060      0.000474      0.000000
     21 Si    c       0.000055      0.000185      0.000327      0.000000
     22 Si    c      -0.001697      0.001049     -0.000602      0.000000
     23 Si    c      -0.000030      0.000049      0.000016      0.000000
     24 Si    c      -0.001000     -0.000565      0.000625      0.000000
     25 Si    c       0.000352      0.000263     -0.003458      0.000000
     26 Si    c      -0.001050      0.000411      0.000503      0.000000
     27 Si    c       0.000041     -0.000192      0.000114      0.000000
     28 Si    c      -0.000043     -0.000384      0.000565      0.000000
     29 Si    c       0.000239      0.000079      0.000450      0.000000
     30 Si    c       0.003137     -0.001217     -0.001400      0.000000
     31 Si    c       0.000273      0.000037     -0.000425      0.000000
     32 Si    c      -0.000472     -0.001810     -0.002972      0.000000
     33 Si    c      -0.000427      0.000218     -0.000964      0.000000
     34 Si    c      -0.001541      0.000765     -0.000954      0.000000
     35 Si    c      -0.000014      0.000262     -0.000226      0.000000
     36 Si    c       0.000563     -0.000101      0.000153      0.000000
     37 Ge    c       0.000580      0.000585      0.002191      0.000000
     38 Si    c      -0.000469      0.000251      0.000312      0.000000
     39 Si    c       0.000025     -0.000224      0.000065      0.000000
     40 Si    c       0.000006     -0.000236     -0.000063      0.000000
     41 Si    c       0.000208      0.000232      0.000037      0.000000
     42 Si    c      -0.000842      0.001592     -0.000761      0.000000
     43 Si    c       0.000184      0.000041      0.000020      0.000000
     44 Si    c       0.002169     -0.001640      0.000137      0.000000
     45 Si    c      -0.000413      0.000225      0.000520      0.000000
     46 Si    c      -0.000908     -0.000288     -0.000950      0.000000
     47 Si    c      -0.000030      0.000205     -0.000118      0.000000
     48 Si    c       0.000647     -0.000042     -0.001030      0.000000
     49 Si    c       0.001476     -0.000356      0.001948      0.000000
     50 Si    c      -0.000021      0.000252      0.000262      0.000000
     51 Si    c       0.000080     -0.000067     -0.000217      0.000000
     52 Si    c       0.000046     -0.000005     -0.000125      0.000000
     53 Si    c      -0.000183     -0.000209     -0.000120      0.000000
     54 Si    c       0.000452     -0.000445      0.000154      0.000000
     55 Si    c       0.000112      0.000069      0.000863      0.000000
     56 Si    c       0.001380      0.000079      0.000685      0.000000
     57 Si    c       0.000011      0.000052     -0.000400      0.000000
     58 Si    c       0.000600     -0.000621     -0.003674      0.000000
     59 Si    c      -0.000010      0.000045      0.000371      0.000000
     60 Si    c       0.000212      0.000338      0.000787      0.000000
     61 O2    c      -0.000420      0.000113      0.001066      0.000000
     62 O2    c      -0.000185      0.000056     -0.000415      0.000000
     63 O2    c      -0.000070      0.000048      0.000165      0.000000
     64 O2    c      -0.000047     -0.000075     -0.000102      0.000000
     65 O2    c      -0.000010     -0.000047      0.000487      0.000000
     66 O2    c       0.000133      0.000099      0.000024      0.000000
     67 O2    c       0.000193     -0.000118      0.000656      0.000000
     68 O2    c      -0.000244     -0.000258     -0.000925      0.000000
     69 O2    c       0.001104     -0.000774     -0.001282      0.000000
     70 O2    c       0.000819     -0.000766     -0.001740      0.000000
     71 O2    c      -0.000928      0.000291     -0.000355      0.000000
     72 O2    c      -0.000209      0.000225     -0.000246      0.000000
     73 O3    c      -0.003598     -0.000006      0.001054      0.000000
     74 O2    c      -0.000020     -0.000102      0.000109      0.000000
     75 O2    c      -0.000545      0.000636      0.001238      0.000000
     76 O2    c      -0.000236      0.000012      0.000293      0.000000
     77 O3    c      -0.000241      0.000824      0.000341      0.000000
     78 O2    c      -0.000052     -0.000034     -0.000081      0.000000
     79 O3    c      -0.003426     -0.000489      0.001195      0.000000
     80 O2    c       0.000099     -0.000090      0.000075      0.000000
     81 O2    c      -0.000007      0.000089      0.000035      0.000000
     82 O2    c      -0.000084     -0.000011     -0.000045      0.000000
     83 O2    c       0.000719     -0.000570      0.000311      0.000000
     84 O2    c       0.000202     -0.000159      0.000782      0.000000
     85 O2    c       0.000005     -0.000154      0.000115      0.000000
     86 O2    c      -0.003565      0.004718     -0.000174      0.000000
     87 O2    c       0.000150     -0.000089     -0.000235      0.000000
     88 O2    c       0.000218      0.000346     -0.001079      0.000000
     89 O2    c       0.000031     -0.000048      0.000054      0.000000
     90 O2    c      -0.000192      0.000143     -0.000534      0.000000
     91 O2    c       0.000118     -0.000054     -0.000440      0.000000
     92 O2    c      -0.000009      0.000015     -0.000131      0.000000
     93 O2    c       0.000904      0.000423      0.002844      0.000000
     94 O2    c       0.000190     -0.000098      0.000146      0.000000
     95 O2    c       0.000541     -0.000136     -0.003749      0.000000
     96 O2    c       0.000078      0.000043     -0.000713      0.000000
     97 O2    c      -0.000009      0.000281      0.002096      0.000000
     98 O2    c      -0.000049     -0.000162      0.000045      0.000000
     99 O2    c      -0.000046     -0.000000     -0.000094      0.000000
    100 O2    c      -0.000053      0.000082     -0.000111      0.000000
    101 O2    c       0.000170      0.000798      0.000357      0.000000
    102 O2    c      -0.000058      0.000004      0.000070      0.000000
    103 O2    c      -0.000154      0.000162      0.000283      0.000000
    104 O2    c       0.001415      0.000874      0.001915      0.000000
    105 O2    c       0.000019     -0.000109      0.000069      0.000000
    106 O2    c      -0.000943      0.000947     -0.000216      0.000000
    107 O2    c      -0.000125     -0.000028      0.000246      0.000000
    108 O2    c      -0.000156      0.000518      0.001336      0.000000
    109 O2    c       0.000092     -0.000216      0.001505      0.000000
    110 O2    c       0.000038     -0.000027     -0.000385      0.000000
    111 O2    c       0.000135     -0.000157     -0.001783      0.000000
    112 O2    c      -0.000002     -0.000117     -0.000101      0.000000
    113 O3    c       0.001099     -0.000431     -0.002465      0.000000
    114 O2    c      -0.000161      0.000150      0.000108      0.000000
    115 O3    c       0.000604      0.000083      0.000518      0.000000
    116 O2    c       0.000149     -0.000327     -0.000264      0.000000
    117 O2    c       0.000131      0.000005     -0.000168      0.000000
    118 O2    c       0.000099     -0.000091     -0.000122      0.000000
    119 O2    c      -0.000048      0.000108     -0.000025      0.000000
    120 O3    c      -0.000549     -0.000869     -0.001653      0.000000
    121 O2    c       0.000125     -0.000122      0.000131      0.000000
    122 O2    c      -0.000679      0.001151     -0.000182      0.000000
    123 O2    c      -0.000047      0.000086     -0.000018      0.000000
    124 O2    c      -0.000326      0.000693     -0.000048      0.000000
    125 O2    c       0.000129     -0.000068      0.000122      0.000000
    126 O2    c       0.000084     -0.000260     -0.000016      0.000000
    127 O3    c       0.000427     -0.001205     -0.003851      0.000000
    128 O2    c      -0.000230      0.000275      0.000310      0.000000
    129 O2    c      -0.000047     -0.000178      0.000233      0.000000
    130 O2    c      -0.000049     -0.000021      0.000069      0.000000
    131 O2    c       0.000267     -0.000420     -0.000163      0.000000
    132 O2    c      -0.000397      0.000344      0.000721      0.000000
    133 O2    c      -0.000132      0.000421     -0.000086      0.000000
    134 O2    c      -0.000126     -0.000150     -0.000706      0.000000
    135 O2    c      -0.000177     -0.000053     -0.000176      0.000000
    136 O2    c       0.000088     -0.000158      0.000050      0.000000
    137 O2    c      -0.000382      0.000204     -0.000135      0.000000
    138 O2    c       0.000611      0.000709     -0.001447      0.000000
    139 O3    c       0.005317     -0.000818      0.004797      0.000000
    140 O2    c      -0.000203      0.000197      0.000430      0.000000
    141 O2    c       0.000064     -0.000208      0.000268      0.000000
    142 O2    c      -0.000192      0.000092      0.000389      0.000000
    143 O2    c       0.000883     -0.000317      0.000389      0.000000
    144 O2    c       0.000262      0.000157      0.000255      0.000000
    145 O2    c       0.000045      0.000229     -0.000438      0.000000
    146 O3    c       0.000251     -0.001279     -0.002645      0.000000
    147 O2    c      -0.000155      0.000093     -0.000125      0.000000
    148 O2    c      -0.000231      0.000032     -0.000039      0.000000
    149 O2    c      -0.000203      0.000253     -0.000436      0.000000
    150 O2    c       0.001460     -0.000941     -0.001125      0.000000
    151 O3    c      -0.001515     -0.001176     -0.000818      0.000000
    152 O2    c       0.000002      0.000072      0.000612      0.000000
    153 O2    c       0.000048     -0.000074      0.000066      0.000000
    154 O2    c      -0.000057     -0.000091      0.000082      0.000000
    155 O2    c       0.000126     -0.000022      0.000009      0.000000
    156 O2    c      -0.000830     -0.000119      0.005436      0.000000
    157 O2    c       0.000108      0.000055      0.000070      0.000000
    158 O2    c       0.001010     -0.000032      0.000025      0.000000
    159 O2    c      -0.000086      0.000034     -0.000411      0.000000
    160 O2    c       0.000038      0.000081     -0.002072      0.000000
    161 O2    c      -0.000043      0.000049     -0.000065      0.000000
    162 O2    c       0.000056     -0.000065      0.000406      0.000000
    163 O2    c      -0.000821      0.000503     -0.001602      0.000000
    164 O2    c      -0.000302     -0.000220     -0.000311      0.000000
    165 O2    c       0.000094     -0.000058     -0.000121      0.000000
    166 O2    c       0.000099     -0.000162     -0.000290      0.000000
    167 O2    c      -0.000061      0.000069     -0.000201      0.000000
    168 O3    c      -0.000650      0.000520      0.000168      0.000000
    169 O2    c       0.000055     -0.000067      0.000348      0.000000
    170 O2    c       0.000026     -0.001188      0.000090      0.000000
    171 O2    c      -0.000020      0.000068      0.000114      0.000000
    172 O2    c      -0.000512      0.000097      0.000030      0.000000
    173 O2    c       0.000098      0.000051      0.000245      0.000000
    174 O2    c       0.000122     -0.000365      0.000295      0.000000
    175 O2    c       0.000178     -0.000036      0.001574      0.000000
    176 O2    c       0.000071     -0.000006     -0.000041      0.000000
    177 O2    c      -0.000237     -0.000730      0.000761      0.000000
    178 O2    c      -0.000010      0.000086      0.000079      0.000000
    179 O3    c      -0.000015     -0.000170      0.001216      0.000000
    180 O2    c       0.000125     -0.000107      0.000101      0.000000
    181 F     c       0.000020      0.000174     -0.000950      0.000000
    182 F     c       0.000005      0.000020      0.000099      0.000000
    183 F     c       0.000333     -0.000066      0.000071      0.000000
    184 F     c       0.000011      0.000055      0.000155      0.000000
    185 F     c       0.000737     -0.000485      0.006415      0.000000
    186 F     c       0.000048     -0.000029     -0.000074      0.000000
    187 O2    s       0.000432     -0.001471     -0.000423      0.000000
    188 O2    s       0.000179     -0.000049      0.000232      0.000000
    189 O2    s      -0.000000      0.000004     -0.000148      0.000000
    190 O2    s       0.000075      0.000018      0.000041      0.000000
    191 O2    s      -0.000156      0.000124     -0.000495      0.000000
    192 O2    s      -0.000214     -0.000248     -0.000007      0.000000
    193 O2    s      -0.000015      0.000064     -0.000525      0.000000
    194 O2    s       0.000073      0.000117      0.000100      0.000000
    195 O2    s      -0.000422     -0.000294     -0.000036      0.000000
    196 O2    s      -0.000413      0.000339     -0.000475      0.000000
    197 O2    s       0.001110     -0.000416      0.001184      0.000000
    198 O2    s      -0.000041      0.000130     -0.000059      0.000000
    199 O3    s       0.002334      0.002773     -0.005646      0.000000
    200 O2    s       0.000020      0.000008      0.000088      0.000000
    201 O2    s       0.000004     -0.000053     -0.000097      0.000000
    202 O2    s       0.000071     -0.000101      0.000128      0.000000
    203 O3    s      -0.000433      0.000026      0.000471      0.000000
    204 O2    s       0.000212     -0.000115      0.000044      0.000000
    205 O3    s       0.000497      0.001111     -0.002249      0.000000
    206 O2    s      -0.000133      0.000014     -0.000663      0.000000
    207 O2    s       0.000051     -0.000074     -0.000271      0.000000
    208 O2    s       0.000063     -0.000151     -0.000286      0.000000
    209 O2    s       0.000125     -0.000416     -0.000696      0.000000
    210 O2    s      -0.000322      0.000728     -0.001213      0.000000
    211 O2    s       0.000103     -0.000073      0.000235      0.000000
    212 O2    s      -0.002416     -0.001588      0.001532      0.000000
    213 O2    s      -0.000102      0.000019      0.000388      0.000000
    214 O2    s      -0.000301     -0.000623      0.003130      0.000000
    215 O2    s       0.000091      0.000059      0.000197      0.000000
    216 O2    s      -0.000067     -0.000152      0.001446      0.000000
    217 O2    s      -0.000017      0.000033     -0.000276      0.000000
    218 O2    s       0.000056      0.000013      0.000000      0.000000
    219 O2    s      -0.000257     -0.000305      0.001787      0.000000
    220 O2    s      -0.000467      0.000195     -0.000447      0.000000
    221 O2    s      -0.000159     -0.001547     -0.002389      0.000000
    222 O2    s       0.000031     -0.000033      0.000014      0.000000
    223 O2    s       0.000421     -0.000937      0.000816      0.000000
    224 O2    s      -0.000054      0.000057      0.000201      0.000000
    225 O2    s       0.000048     -0.000066      0.000132      0.000000
    226 O2    s      -0.000064     -0.000008      0.000206      0.000000
    227 O2    s      -0.000211      0.000271      0.000045      0.000000
    228 O2    s       0.000233     -0.000164     -0.000727      0.000000
    229 O2    s       0.000018      0.000052     -0.000506      0.000000
    230 O2    s       0.002337     -0.000577      0.002603      0.000000
    231 O2    s      -0.000081      0.000122     -0.000052      0.000000
    232 O2    s      -0.000035     -0.000353     -0.000853      0.000000
    233 O2    s      -0.000017      0.000076     -0.000368      0.000000
    234 O2    s      -0.000038     -0.000506     -0.001642      0.000000
    235 O2    s      -0.000170      0.000724     -0.001794      0.000000
    236 O2    s      -0.000159     -0.000035      0.000203      0.000000
    237 O2    s      -0.000094      0.000286      0.000677      0.000000
    238 O2    s       0.000094     -0.000093      0.000255      0.000000
    239 O3    s      -0.000196      0.001027      0.000422      0.000000
    240 O2    s      -0.000077      0.000110     -0.000263      0.000000
    241 O3    s      -0.000163      0.000027      0.000000      0.000000
    242 O2    s      -0.000000     -0.000094     -0.000159      0.000000
    243 O2    s      -0.000011      0.000025     -0.000064      0.000000
    244 O2    s       0.000082     -0.000169     -0.000300      0.000000
    245 O2    s       0.000046     -0.000052     -0.000263      0.000000
    246 O3    s      -0.000610      0.000999     -0.001429      0.000000
    247 O2    s       0.000015      0.000058      0.000170      0.000000
    248 O2    s      -0.000667     -0.001414      0.000975      0.000000
    249 O2    s       0.000019     -0.000048      0.000234      0.000000
    250 O2    s       0.000086      0.000369      0.001063      0.000000
    251 O2    s       0.000031      0.000058      0.000079      0.000000
    252 O2    s      -0.000148      0.000345      0.000891      0.000000
    253 O3    s      -0.000410      0.001742      0.002687      0.000000
    254 O2    s       0.000060     -0.000142      0.000332      0.000000
    255 O2    s       0.000031      0.000027      0.000108      0.000000
    256 O2    s       0.000048     -0.000061      0.000425      0.000000
    257 O2    s       0.000096     -0.000024      0.001098      0.000000
    258 O2    s       0.000326     -0.000680      0.000332      0.000000
    259 O2    s       0.000030     -0.000042     -0.001152      0.000000
    260 O2    s       0.000002      0.000170      0.000595      0.000000
    261 O2    s       0.000055      0.000111     -0.000431      0.000000
    262 O2    s      -0.000017      0.000051     -0.000543      0.000000
    263 O2    s       0.000055      0.000092     -0.000321      0.000000
    264 O2    s       0.000247      0.000302      0.000664      0.000000
    265 O3    s      -0.004952     -0.000242     -0.000441      0.000000
    266 O2    s       0.000190     -0.000123     -0.000159      0.000000
    267 O2    s       0.000030      0.000059      0.000033      0.000000
    268 O2    s       0.000148     -0.000050     -0.000043      0.000000
    269 O2    s       0.000205     -0.000222      0.000359      0.000000
    270 O2    s      -0.000016     -0.000725      0.000616      0.000000
    271 O2    s       0.000005      0.000073     -0.000593      0.000000
    272 O3    s       0.000325      0.000993      0.002937      0.000000
    273 O2    s       0.000129     -0.000201     -0.000267      0.000000
    274 O2    s       0.000622     -0.000324     -0.000562      0.000000
    275 O2    s      -0.000023     -0.000007     -0.000011      0.000000
    276 O2    s       0.000673     -0.000011     -0.000013      0.000000
    277 O3    s       0.001776      0.001182      0.001996      0.000000
    278 O2    s       0.000042     -0.000191      0.000158      0.000000
    279 O2    s      -0.000002     -0.000010      0.000000      0.000000
    280 O2    s      -0.000001      0.000015      0.000056      0.000000
    281 O2    s      -0.000007     -0.000077      0.000234      0.000000
    282 O2    s      -0.000038      0.000408     -0.002856      0.000000
    283 O2    s      -0.000036      0.000034      0.000052      0.000000
    284 O2    s      -0.000742     -0.000248     -0.002981      0.000000
    285 O2    s      -0.000037      0.000064      0.000367      0.000000
    286 O2    s       0.000332      0.000209     -0.001260      0.000000
    287 O2    s       0.000062      0.000009     -0.000035      0.000000
    288 O2    s       0.000201     -0.000109     -0.000183      0.000000
    289 O2    s       0.001792     -0.001307      0.003221      0.000000
    290 O2    s      -0.000026     -0.000105     -0.000186      0.000000
    291 O2    s       0.000031     -0.000008      0.000051      0.000000
    292 O2    s       0.000092     -0.000068     -0.000278      0.000000
    293 O2    s       0.000111     -0.000059     -0.000102      0.000000
    294 O3    s       0.000157     -0.000530     -0.002170      0.000000
    295 O2    s       0.000033     -0.000054      0.000112      0.000000
    296 O2    s      -0.001307      0.000732      0.001061      0.000000
    297 O2    s       0.000039     -0.000035      0.000296      0.000000
    298 O2    s      -0.000532      0.000310      0.000305      0.000000
    299 O2    s      -0.000013      0.000026      0.000014      0.000000
    300 O2    s       0.000181      0.000393     -0.000246      0.000000
    301 O2    s      -0.000130     -0.000039     -0.000588      0.000000
    302 O2    s       0.000024      0.000027      0.000062      0.000000
    303 O2    s       0.000483      0.000945      0.002817      0.000000
    304 O2    s       0.000009      0.000168      0.000170      0.000000
    305 O3    s      -0.001239     -0.000267      0.000535      0.000000
    306 O2    s       0.000132     -0.000157     -0.000241      0.000000
    307 F     s      -0.000151     -0.000568      0.001752      0.000000
    308 F     s       0.000036     -0.000015     -0.000139      0.000000
    309 F     s      -0.000579      0.000383      0.000152      0.000000
    310 F     s      -0.000018     -0.000121     -0.000229      0.000000
    311 F     s       0.002296      0.000516     -0.001787      0.000000
    312 F     s      -0.000090      0.000078      0.000214      0.000000
--------------------------------------------------------------------------------
  Maximum abs         0.005317      0.004718      0.006415      0.000000
--------------------------------------------------------------------------------


  Time to end of optimisation =      10.6951 seconds


  Peak dynamic memory used =      19.13 MB 


  Timing analysis for GULP :

--------------------------------------------------------------------------------
  Task / Subroutine                                          Time (Seconds)
--------------------------------------------------------------------------------
  Calculation of reciprocal space energy and derivatives          0.3648
  Calculation of real space energy and derivatives                9.0045
  Calculation of three-body energy and derivatives                1.0049
  Calculation of matrix inversion                                 0.1920
--------------------------------------------------------------------------------
  Total CPU time                                                 10.6951
--------------------------------------------------------------------------------


  Dump file written as out.res                                                 
  CIF file written as out.cif                                                 


  Job Finished at 20:39.28  2nd December   2016                               

