********************************************************************************
*                       GENERAL UTILITY LATTICE PROGRAM                        *
*                                 Julian Gale                                  *
*                      Nanochemistry Research Institute                        *
*                           Department of Chemistry                            *
*                    Curtin University, Western Australia                      *
********************************************************************************
* Version = 4.2.0 * Last modified =  20th January 2014                         *
********************************************************************************
*  optimise     - perform optimisation run                                     *
*  conp         - constant pressure calculation                                *
*  qok          - running with non charge neutral cell is OK                   *
********************************************************************************

  Job Started  at 14:20.43  2nd December   2016                               

  Number of CPUs =     1


  Total number of configurations input =   1

********************************************************************************
*  Input for Configuration =   1                                               *
********************************************************************************

  Formula = Ge3Si57O120F6                                               

  Number of irreducible atoms/shells =     312


  Total number atoms/shells =     312

  Dimensionality = 3               :  Bulk   


  Charge on solid   =  -6.000000 =>neutralising background added


  Cartesian lattice vectors (Angstroms) :

       11.961863    0.000000    0.000000
       -6.038764   10.365603    0.000000
        0.029711    0.018084   29.528712

  Cell parameters (Angstroms/Degrees):

  a =      11.9619    alpha =  89.9987
  b =      11.9963    beta  =  89.9424
  c =      29.5287    gamma = 120.2241

  Initial cell volume =        3661.321658 Angs**3

  Temperature of configuration =  0.000     K 

  Pressure of configuration =         0.000 GPa 

  Fractional coordinates of asymmetric unit :

--------------------------------------------------------------------------------
   No.  Atomic       x           y          z         Charge      Occupancy
        Label      (Frac)      (Frac)     (Frac)        (e)         (Frac)  
--------------------------------------------------------------------------------
      1 Ge    c    0.699600    0.375700    0.033890     4.00000    1.000000    
      2 Si    c    0.620978 *  0.322592 *  0.369115 *   4.00000    1.000000    
      3 Si    c    0.676936 *  0.296974 *  0.700291 *   4.00000    1.000000    
      4 Si    c    0.297430 *  0.621712 *  0.533459 *   4.00000    1.000000    
      5 Si    c    0.378806 *  0.675674 *  0.865072 *   4.00000    1.000000    
      6 Si    c    0.323280 *  0.700776 *  0.201870 *   4.00000    1.000000    
      7 Si    c    0.373195 *  0.698602 *  0.302673 *   4.00000    1.000000    
      8 Si    c    0.320479 *  0.624371 *  0.966080 *   4.00000    1.000000    
      9 Si    c    0.298431 *  0.676832 *  0.633882 *   4.00000    1.000000    
     10 Si    c    0.622071 *  0.296813 *  0.800690 *   4.00000    1.000000    
     11 Si    c    0.677625 *  0.381351 *  0.468990 *   4.00000    1.000000    
     12 Si    c    0.698702 *  0.319143 *  0.135945 *   4.00000    1.000000    
     13 Si    c    0.525898 *  0.415080 *  0.966792 *   4.00000    1.000000    
     14 Si    c    0.580186 *  0.112810 *  0.304153 *   4.00000    1.000000    
     15 Si    c    0.887151 *  0.469413 *  0.635315 *   4.00000    1.000000    
     16 Si    c    0.469993 *  0.584921 *  0.468361 *   4.00000    1.000000    
     17 Si    c    0.416710 *  0.885815 *  0.800268 *   4.00000    1.000000    
     18 Si    c    0.118216 *  0.530311 *  0.134631 *   4.00000    1.000000    
     19 Si    c    0.415499 *  0.529388 *  0.367140 *   4.00000    1.000000    
     20 Ge    c    0.099322 *  0.571420 *  0.032184 *   4.00000    1.000000    
     21 Si    c    0.469928 *  0.887281 *  0.698803 *   4.00000    1.000000    
     22 Si    c    0.581224 *  0.467648 *  0.865376 *   4.00000    1.000000    
     23 Si    c    0.887237 *  0.417613 *  0.533963 *   4.00000    1.000000    
     24 Si    c    0.532051 *  0.110481 *  0.202934 *   4.00000    1.000000    
     25 Si    c    0.300861 *  0.397763 *  0.850763 *   4.00000    1.000000    
     26 Si    c    0.604246 *  0.902634 *  0.188439 *   4.00000    1.000000    
     27 Si    c    0.095965 *  0.698189 *  0.519378 *   4.00000    1.000000    
     28 Si    c    0.695348 *  0.598163 *  0.352187 *   4.00000    1.000000    
     29 Si    c    0.398546 *  0.095741 *  0.684931 *   4.00000    1.000000    
     30 Si    c    0.896709 *  0.291195 *  0.014889 *   4.00000    1.000000    
     31 Si    c    0.398461 *  0.304739 *  0.483883 *   4.00000    1.000000    
     32 Si    c    0.904939 *  0.602324 *  0.148108 *   4.00000    1.000000    
     33 Si    c    0.698754 *  0.095425 *  0.814881 *   4.00000    1.000000    
     34 Si    c    0.599599 *  0.696649 *  0.979826 *   4.00000    1.000000    
     35 Si    c    0.096739 *  0.398146 *  0.648808 *   4.00000    1.000000    
     36 Si    c    0.298166 *  0.901188 *  0.316280 *   4.00000    1.000000    
     37 Si    c    0.247555 *  0.342424 *  0.951161 *   4.00000    1.000000    
     38 Si    c    0.655060 *  0.910330 *  0.289464 *   4.00000    1.000000    
     39 Si    c    0.088973 *  0.748743 *  0.619791 *   4.00000    1.000000    
     40 Si    c    0.749096 *  0.661924 *  0.452098 *   4.00000    1.000000    
     41 Si    c    0.340069 *  0.087333 *  0.785339 *   4.00000    1.000000    
     42 Si    c    0.913104 *  0.249862 *  0.117357 *   4.00000    1.000000    
     43 Si    c    0.340901 *  0.252536 *  0.383588 *   4.00000    1.000000    
     44 Si    c    0.908858 *  0.663014 *  0.046447 *   4.00000    1.000000    
     45 Si    c    0.749233 *  0.088986 *  0.714332 *   4.00000    1.000000    
     46 Si    c    0.659463 *  0.746390 *  0.879599 *   4.00000    1.000000    
     47 Si    c    0.088317 *  0.340181 *  0.548325 *   4.00000    1.000000    
     48 Si    c    0.251380 *  0.909406 *  0.215512 *   4.00000    1.000000    
     49 Si    c    0.969145 *  0.116479 *  0.965403 *   4.00000    1.000000    
     50 Ge    c    0.876581 *  0.848928 *  0.300866 *   4.00000    1.000000    
     51 Si    c    0.150537 *  0.028304 *  0.634402 *   4.00000    1.000000    
     52 Si    c    0.029450 *  0.879003 *  0.468671 *   4.00000    1.000000    
     53 Si    c    0.122389 *  0.149643 *  0.799794 *   4.00000    1.000000    
     54 Si    c    0.848309 *  0.970501 *  0.133316 *   4.00000    1.000000    
     55 Si    c    0.123441 *  0.972769 *  0.367917 *   4.00000    1.000000    
     56 Si    c    0.845396 *  0.879541 *  0.031883 *   4.00000    1.000000    
     57 Si    c    0.029316 *  0.150344 *  0.699143 *   4.00000    1.000000    
     58 Si    c    0.878300 *  0.025700 *  0.864586 *   4.00000    1.000000    
     59 Si    c    0.149768 *  0.122218 *  0.533857 *   4.00000    1.000000    
     60 Si    c    0.973684 *  0.851713 *  0.197450 *   4.00000    1.000000    
     61 O2    c    0.931691 *  0.997644 *  0.998753 *   0.87073    1.000000    
     62 O3    c    0.007042 *  0.938948 *  0.334770 *   1.33043    1.000000    
     63 O2    c    0.070123 *  0.070162 *  0.666470 *   0.87073    1.000000    
     64 O2    c    0.071203 *  0.001133 *  0.500882 *   0.87073    1.000000    
     65 O2    c    0.999251 *  0.067984 *  0.831599 *   0.87073    1.000000    
     66 O2    c    0.934971 *  0.928104 *  0.161822 *   0.87073    1.000000    
     67 O2    c    0.335750 *  0.575512 *  0.335051 *   0.87073    1.000000    
     68 O2    c    0.421878 *  0.762102 *  0.666308 *   0.87073    1.000000    
     69 O3    c    0.237457 *  0.660834 *  0.997856 *   1.33043    1.000000    
     70 O2    c    0.659181 *  0.418950 *  0.833459 *   0.87073    1.000000    
     71 O2    c    0.583245 *  0.237588 *  0.171393 *   0.87073    1.000000    
     72 O2    c    0.760758 *  0.342246 *  0.501782 *   0.87073    1.000000    
     73 O3    c    0.567506 *  0.335626 *  0.999068 *   1.33043    1.000000    
     74 O2    c    0.761952 *  0.420863 *  0.667823 *   0.87073    1.000000    
     75 O2    c    0.658341 *  0.236796 *  0.336797 *   0.87073    1.000000    
     76 O2    c    0.421036 *  0.661298 *  0.500606 *   0.87073    1.000000    
     77 O2    c    0.238466 *  0.576772 *  0.169548 *   0.87073    1.000000    
     78 O2    c    0.340128 *  0.759956 *  0.832317 *   0.87073    1.000000    
     79 O2    c    0.121977 *  0.215087 *  0.971468 *   0.87073    1.000000    
     80 O3    c    0.778682 *  0.913207 *  0.310919 *   1.33043    1.000000    
     81 O2    c    0.087981 *  0.874176 *  0.639868 *   0.87073    1.000000    
     82 O2    c    0.874394 *  0.788386 *  0.472677 *   0.87073    1.000000    
     83 O2    c    0.213522 *  0.086917 *  0.805354 *   0.87073    1.000000    
     84 O2    c    0.911072 *  0.124744 *  0.139129 *   0.87073    1.000000    
     85 O2    c    0.216166 *  0.126585 *  0.363302 *   0.87073    1.000000    
     86 O2    c    0.912488 *  0.793406 *  0.030085 *   0.87073    1.000000    
     87 O2    c    0.874878 *  0.087908 *  0.694029 *   0.87073    1.000000    
     88 O2    c    0.786459 *  0.871819 *  0.858989 *   0.87073    1.000000    
     89 O2    c    0.086637 *  0.213015 *  0.528432 *   0.87073    1.000000    
     90 O2    c    0.128633 *  0.912550 *  0.193748 *   0.87073    1.000000    
     91 O3    c    0.931290 *  0.871719 *  0.246071 *   1.33043    1.000000    
     92 O2    c    0.136195 *  0.067202 *  0.583914 *   0.87073    1.000000    
     93 O2    c    0.933583 *  0.063383 *  0.914834 *   0.87073    1.000000    
     94 O2    c    0.070505 *  0.137075 *  0.749217 *   0.87073    1.000000    
     95 O2    c    0.849325 *  0.934545 *  0.081621 *   0.87073    1.000000    
     96 O2    c    0.070373 *  0.930910 *  0.418243 *   0.87073    1.000000    
     97 O2    c    0.889347 *  0.187103 *  0.978044 *   0.87073    1.000000    
     98 O3    c    0.791273 *  0.686773 *  0.312407 *   1.33043    1.000000    
     99 O2    c    0.302481 *  0.098277 *  0.646459 *   0.87073    1.000000    
    100 O2    c    0.097792 *  0.796578 *  0.481158 *   0.87073    1.000000    
    101 O2    c    0.203283 *  0.300822 *  0.812228 *   0.87073    1.000000    
    102 O2    c    0.699882 *  0.899370 *  0.150210 *   0.87073    1.000000    
    103 O2    c    0.200423 *  0.898754 *  0.354720 *   0.87073    1.000000    
    104 O2    c    0.695059 *  0.795812 *  0.018315 *   0.87073    1.000000    
    105 O2    c    0.099352 *  0.301987 *  0.686930 *   0.87073    1.000000    
    106 O2    c    0.796678 *  0.096161 *  0.853181 *   0.87073    1.000000    
    107 O2    c    0.302221 *  0.206602 *  0.522321 *   0.87073    1.000000    
    108 O2    c    0.905153 *  0.698567 *  0.186870 *   0.87073    1.000000    
    109 O2    c    0.320142 *  0.642761 *  0.252049 *   0.87073    1.000000    
    110 O2    c    0.355625 *  0.678426 *  0.583514 *   0.87073    1.000000    
    111 O2    c    0.321816 *  0.677363 *  0.914858 *   0.87073    1.000000    
    112 O2    c    0.678825 *  0.354633 *  0.750473 *   0.87073    1.000000    
    113 O3    c    0.637806 *  0.315886 *  0.087516 *   1.33043    1.000000    
    114 O2    c    0.677527 *  0.322405 *  0.419203 *   0.87073    1.000000    
    115 O2    c    0.368820 *  0.330540 *  0.969001 *   0.87073    1.000000    
    116 O2    c    0.666106 *  0.043513 *  0.306678 *   0.87073    1.000000    
    117 O2    c    0.956268 *  0.625706 *  0.637960 *   0.87073    1.000000    
    118 O2    c    0.626813 *  0.672142 *  0.470507 *   0.87073    1.000000    
    119 O2    c    0.329474 *  0.954677 *  0.803353 *   0.87073    1.000000    
    120 O2    c    0.044652 *  0.373208 *  0.135635 *   0.87073    1.000000    
    121 O2    c    0.329162 *  0.373124 *  0.364588 *   0.87073    1.000000    
    122 O3    c    0.040030 *  0.677426 *  0.026919 *   1.33043    1.000000    
    123 O2    c    0.626613 *  0.956645 *  0.695788 *   0.87073    1.000000    
    124 O2    c    0.668936 *  0.623891 *  0.861338 *   0.87073    1.000000    
    125 O2    c    0.955567 *  0.330093 *  0.530071 *   0.87073    1.000000    
    126 O2    c    0.375980 *  0.041493 *  0.197782 *   0.87073    1.000000    
    127 O3    c    0.761463 *  0.286586 *  0.009204 *   1.33043    1.000000    
    128 O2    c    0.695848 *  0.464384 *  0.346029 *   0.87073    1.000000    
    129 O2    c    0.533674 *  0.229562 *  0.677608 *   0.87073    1.000000    
    130 O2    c    0.229267 *  0.696787 *  0.511253 *   0.87073    1.000000    
    131 O2    c    0.304204 *  0.532783 *  0.842267 *   0.87073    1.000000    
    132 O2    c    0.467746 *  0.770567 *  0.180067 *   0.87073    1.000000    
    133 O2    c    0.296864 *  0.766727 *  0.323684 *   0.87073    1.000000    
    134 O2    c    0.466474 *  0.697853 *  0.987099 *   0.87073    1.000000    
    135 O2    c    0.230662 *  0.533164 *  0.655862 *   0.87073    1.000000    
    136 O2    c    0.697688 *  0.228682 *  0.822563 *   0.87073    1.000000    
    137 O2    c    0.533815 *  0.307528 *  0.491220 *   0.87073    1.000000    
    138 O2    c    0.772691 *  0.466224 *  0.154925 *   0.87073    1.000000    
    139 O3    c    0.780327 *  0.542539 *  0.026772 *   1.33043    1.000000    
    140 O2    c    0.464927 *  0.248674 *  0.364251 *   0.87073    1.000000    
    141 O2    c    0.751729 *  0.215996 *  0.694932 *   0.87073    1.000000    
    142 O2    c    0.215451 *  0.465433 *  0.528563 *   0.87073    1.000000    
    143 O2    c    0.535374 *  0.749986 *  0.860114 *   0.87073    1.000000    
    144 O2    c    0.248544 *  0.781762 *  0.196515 *   0.87073    1.000000    
    145 O2    c    0.528649 *  0.783237 *  0.308331 *   0.87073    1.000000    
    146 O2    c    0.247371 *  0.467268 *  0.971101 *   0.87073    1.000000    
    147 O2    c    0.215596 *  0.749684 *  0.638913 *   0.87073    1.000000    
    148 O2    c    0.465637 *  0.213424 *  0.805045 *   0.87073    1.000000    
    149 O2    c    0.751515 *  0.537649 *  0.471768 *   0.87073    1.000000    
    150 O2    c    0.788863 *  0.254392 *  0.135807 *   0.87073    1.000000    
    151 O2    c    0.227246 *  0.324989 *  0.896912 *   0.87073    1.000000    
    152 O2    c    0.675567 *  0.904321 *  0.235222 *   0.87073    1.000000    
    153 O2    c    0.091757 *  0.768505 *  0.565574 *   0.87073    1.000000    
    154 O2    c    0.768580 *  0.679530 *  0.397584 *   0.87073    1.000000    
    155 O2    c    0.322879 *  0.090027 *  0.731110 *   0.87073    1.000000    
    156 O2    c    0.911539 *  0.233246 *  0.063329 *   0.87073    1.000000    
    157 O2    c    0.323198 *  0.234060 *  0.437771 *   0.87073    1.000000    
    158 O2    c    0.907097 *  0.672226 *  0.101549 *   0.87073    1.000000    
    159 O2    c    0.769046 *  0.091399 *  0.768506 *   0.87073    1.000000    
    160 O2    c    0.677575 *  0.766417 *  0.933788 *   0.87073    1.000000    
    161 O2    c    0.090863 *  0.323131 *  0.602469 *   0.87073    1.000000    
    162 O2    c    0.228373 *  0.905844 *  0.269691 *   0.87073    1.000000    
    163 O2    c    0.585283 *  0.557577 *  0.989567 *   0.87073    1.000000    
    164 O2    c    0.437049 *  0.027081 *  0.325842 *   0.87073    1.000000    
    165 O2    c    0.971741 *  0.412574 *  0.657941 *   0.87073    1.000000    
    166 O2    c    0.413227 *  0.444388 *  0.491827 *   0.87073    1.000000    
    167 O2    c    0.558390 *  0.970278 *  0.823236 *   0.87073    1.000000    
    168 O2    c    0.027623 *  0.583429 *  0.154981 *   0.87073    1.000000    
    169 O2    c    0.556379 *  0.586398 *  0.343315 *   0.87073    1.000000    
    170 O3    c    0.021312 *  0.426353 *  0.002288 *   1.33043    1.000000    
    171 O2    c    0.411947 *  0.970375 *  0.675677 *   0.87073    1.000000    
    172 O2    c    0.439296 *  0.408322 *  0.842389 *   0.87073    1.000000    
    173 O2    c    0.969645 *  0.558887 *  0.510625 *   0.87073    1.000000    
    174 O2    c    0.594549 *  0.030827 *  0.180171 *   0.87073    1.000000    
    175 O2    c    0.582089 *  0.166667 *  0.253447 *   0.87073    1.000000    
    176 O2    c    0.833367 *  0.415837 *  0.584654 *   0.87073    1.000000    
    177 O2    c    0.581985 *  0.416182 *  0.916220 *   0.87073    1.000000    
    178 O2    c    0.416284 *  0.833378 *  0.749386 *   0.87073    1.000000    
    179 O3    c    0.171294 *  0.581216 *  0.085032 *   1.33043    1.000000    
    180 O2    c    0.416265 *  0.583806 *  0.417631 *   0.87073    1.000000    
    181 F     c    0.450851 *  0.904773 *  0.251670 *   0.56000    1.000000    
    182 F     c    0.095260 *  0.547253 *  0.583319 *   0.56000    1.000000    
    183 F     c    0.452065 *  0.547335 *  0.914739 *   0.56000    1.000000    
    184 F     c    0.548355 *  0.095343 *  0.749164 *   0.56000    1.000000    
    185 F     c    0.911500 *  0.458447 *  0.071818 *   0.56000    1.000000    
    186 F     c    0.548556 *  0.454540 *  0.417024 *   0.56000    1.000000    
    187 O2    s    0.926171 *  0.997697 *  0.998742 *  -2.87073    1.000000    
    188 O3    s    0.008162 *  0.934656 *  0.335373 *  -3.33043    1.000000    
    189 O2    s    0.074599 *  0.074393 *  0.666511 *  -2.87073    1.000000    
    190 O2    s    0.075274 *  0.000962 *  0.500954 *  -2.87073    1.000000    
    191 O2    s    0.999514 *  0.072427 *  0.831725 *  -2.87073    1.000000    
    192 O2    s    0.929637 *  0.924489 *  0.162551 *  -2.87073    1.000000    
    193 O2    s    0.347684 *  0.583555 *  0.334947 *  -2.87073    1.000000    
    194 O2    s    0.414003 *  0.766079 *  0.666262 *  -2.87073    1.000000    
    195 O3    s    0.236308 *  0.650630 *  0.996964 *  -3.33043    1.000000    
    196 O2    s    0.647416 *  0.411225 *  0.833298 *  -2.87073    1.000000    
    197 O2    s    0.590254 *  0.233119 *  0.170863 *  -2.87073    1.000000    
    198 O2    s    0.765085 *  0.354085 *  0.501653 *  -2.87073    1.000000    
    199 O3    s    0.573535 *  0.346614 *  0.998556 *  -3.33043    1.000000    
    200 O2    s    0.766275 *  0.413238 *  0.667774 *  -2.87073    1.000000    
    201 O2    s    0.646326 *  0.232678 *  0.336725 *  -2.87073    1.000000    
    202 O2    s    0.413503 *  0.649365 *  0.500628 *  -2.87073    1.000000    
    203 O2    s    0.234871 *  0.584727 *  0.169300 *  -2.87073    1.000000    
    204 O2    s    0.352035 *  0.764491 *  0.832318 *  -2.87073    1.000000    
    205 O2    s    0.118497 *  0.217619 *  0.968753 *  -2.87073    1.000000    
    206 O3    s    0.774179 *  0.907612 *  0.307932 *  -3.33043    1.000000    
    207 O2    s    0.094700 *  0.877498 *  0.637239 *  -2.87073    1.000000    
    208 O2    s    0.877886 *  0.784901 *  0.470136 *  -2.87073    1.000000    
    209 O2    s    0.216973 *  0.093612 *  0.802713 *  -2.87073    1.000000    
    210 O2    s    0.904709 *  0.121538 *  0.136291 *  -2.87073    1.000000    
    211 O2    s    0.219550 *  0.123517 *  0.365949 *  -2.87073    1.000000    
    212 O2    s    0.904512 *  0.789329 *  0.032004 *  -2.87073    1.000000    
    213 O2    s    0.878374 *  0.094683 *  0.696644 *  -2.87073    1.000000    
    214 O2    s    0.783193 *  0.875346 *  0.861680 *  -2.87073    1.000000    
    215 O2    s    0.093487 *  0.216455 *  0.531019 *  -2.87073    1.000000    
    216 O2    s    0.125103 *  0.905822 *  0.196373 *  -2.87073    1.000000    
    217 O3    s    0.931164 *  0.867584 *  0.245531 *  -3.33043    1.000000    
    218 O2    s    0.139343 *  0.069089 *  0.583891 *  -2.87073    1.000000    
    219 O2    s    0.931343 *  0.065108 *  0.914868 *  -2.87073    1.000000    
    220 O2    s    0.071669 *  0.140016 *  0.749209 *  -2.87073    1.000000    
    221 O2    s    0.848788 *  0.932598 *  0.082089 *  -2.87073    1.000000    
    222 O2    s    0.071723 *  0.929745 *  0.418282 *  -2.87073    1.000000    
    223 O2    s    0.898659 *  0.189987 *  0.980428 *  -2.87073    1.000000    
    224 O3    s    0.789229 *  0.691793 *  0.315233 *  -3.33043    1.000000    
    225 O2    s    0.296029 *  0.090564 *  0.649071 *  -2.87073    1.000000    
    226 O2    s    0.090307 *  0.795344 *  0.483730 *  -2.87073    1.000000    
    227 O2    s    0.204545 *  0.294491 *  0.814815 *  -2.87073    1.000000    
    228 O2    s    0.705768 *  0.907270 *  0.152388 *  -2.87073    1.000000    
    229 O2    s    0.202480 *  0.906776 *  0.352094 *  -2.87073    1.000000    
    230 O2    s    0.701581 *  0.794768 *  0.015871 *  -2.87073    1.000000    
    231 O2    s    0.091674 *  0.295825 *  0.684301 *  -2.87073    1.000000    
    232 O2    s    0.795269 *  0.088674 *  0.850480 *  -2.87073    1.000000    
    233 O2    s    0.296015 *  0.207804 *  0.519577 *  -2.87073    1.000000    
    234 O2    s    0.912185 *  0.704523 *  0.184023 *  -2.87073    1.000000    
    235 O2    s    0.325876 *  0.654406 *  0.252072 *  -2.87073    1.000000    
    236 O2    s    0.343843 *  0.672447 *  0.583506 *  -2.87073    1.000000    
    237 O2    s    0.327581 *  0.671881 *  0.914785 *  -2.87073    1.000000    
    238 O2    s    0.672852 *  0.342842 *  0.750449 *  -2.87073    1.000000    
    239 O3    s    0.648693 *  0.320863 *  0.088202 *  -3.33043    1.000000    
    240 O2    s    0.671716 *  0.328445 *  0.419106 *  -2.87073    1.000000    
    241 O2    s    0.372038 *  0.340494 *  0.966862 *  -2.87073    1.000000    
    242 O2    s    0.655790 *  0.036755 *  0.304565 *  -2.87073    1.000000    
    243 O2    s    0.963106 *  0.622554 *  0.635765 *  -2.87073    1.000000    
    244 O2    s    0.623411 *  0.662058 *  0.468339 *  -2.87073    1.000000    
    245 O2    s    0.339527 *  0.961500 *  0.801138 *  -2.87073    1.000000    
    246 O2    s    0.038224 *  0.376065 *  0.133608 *  -2.87073    1.000000    
    247 O2    s    0.339344 *  0.376739 *  0.366847 *  -2.87073    1.000000    
    248 O3    s    0.031294 *  0.667760 *  0.029300 *  -3.33043    1.000000    
    249 O2    s    0.623299 *  0.963366 *  0.698055 *  -2.87073    1.000000    
    250 O2    s    0.658942 *  0.620668 *  0.863672 *  -2.87073    1.000000    
    251 O2    s    0.962382 *  0.340137 *  0.532380 *  -2.87073    1.000000    
    252 O2    s    0.379075 *  0.034743 *  0.200191 *  -2.87073    1.000000    
    253 O3    s    0.770116 *  0.294093 *  0.011751 *  -3.33043    1.000000    
    254 O2    s    0.687931 *  0.463646 *  0.349145 *  -2.87073    1.000000    
    255 O2    s    0.534142 *  0.222377 *  0.680745 *  -2.87073    1.000000    
    256 O2    s    0.222261 *  0.689220 *  0.514417 *  -2.87073    1.000000    
    257 O2    s    0.311491 *  0.533178 *  0.845522 *  -2.87073    1.000000    
    258 O2    s    0.467082 *  0.777150 *  0.183218 *  -2.87073    1.000000    
    259 O2    s    0.304877 *  0.773759 *  0.320689 *  -2.87073    1.000000    
    260 O2    s    0.466021 *  0.690320 *  0.984177 *  -2.87073    1.000000    
    261 O2    s    0.223529 *  0.533741 *  0.652815 *  -2.87073    1.000000    
    262 O2    s    0.690066 *  0.221688 *  0.819490 *  -2.87073    1.000000    
    263 O2    s    0.534335 *  0.314890 *  0.488110 *  -2.87073    1.000000    
    264 O2    s    0.779136 *  0.465579 *  0.152247 *  -2.87073    1.000000    
    265 O3    s    0.787190 *  0.541602 *  0.029299 *  -3.33043    1.000000    
    266 O2    s    0.467964 *  0.257011 *  0.366839 *  -2.87073    1.000000    
    267 O2    s    0.743592 *  0.210598 *  0.697557 *  -2.87073    1.000000    
    268 O2    s    0.210165 *  0.468142 *  0.531166 *  -2.87073    1.000000    
    269 O2    s    0.532499 *  0.741763 *  0.862710 *  -2.87073    1.000000    
    270 O2    s    0.256687 *  0.787146 *  0.199088 *  -2.87073    1.000000    
    271 O2    s    0.525778 *  0.788068 *  0.305710 *  -2.87073    1.000000    
    272 O2    s    0.254772 *  0.469354 *  0.968481 *  -2.87073    1.000000    
    273 O2    s    0.210362 *  0.741874 *  0.636335 *  -2.87073    1.000000    
    274 O2    s    0.468380 *  0.208333 *  0.802466 *  -2.87073    1.000000    
    275 O2    s    0.743396 *  0.534684 *  0.469358 *  -2.87073    1.000000    
    276 O2    s    0.792874 *  0.260898 *  0.133814 *  -2.87073    1.000000    
    277 O2    s    0.237101 *  0.334469 *  0.897764 *  -2.87073    1.000000    
    278 O2    s    0.666028 *  0.904690 *  0.235858 *  -2.87073    1.000000    
    279 O2    s    0.091899 *  0.759014 *  0.566452 *  -2.87073    1.000000    
    280 O2    s    0.759223 *  0.669600 *  0.398593 *  -2.87073    1.000000    
    281 O2    s    0.332641 *  0.090330 *  0.731976 *  -2.87073    1.000000    
    282 O2    s    0.910302 *  0.240829 *  0.064452 *  -2.87073    1.000000    
    283 O2    s    0.333004 *  0.243485 *  0.436854 *  -2.87073    1.000000    
    284 O2    s    0.907037 *  0.663586 *  0.101130 *  -2.87073    1.000000    
    285 O2    s    0.759592 *  0.091565 *  0.767610 *  -2.87073    1.000000    
    286 O2    s    0.667563 *  0.757037 *  0.932842 *  -2.87073    1.000000    
    287 O2    s    0.091208 *  0.332799 *  0.601541 *  -2.87073    1.000000    
    288 O2    s    0.237874 *  0.905705 *  0.268810 *  -2.87073    1.000000    
    289 O2    s    0.580598 *  0.557913 *  0.986212 *  -2.87073    1.000000    
    290 O2    s    0.437093 *  0.022308 *  0.322505 *  -2.87073    1.000000    
    291 O2    s    0.976592 *  0.417155 *  0.654580 *  -2.87073    1.000000    
    292 O2    s    0.417750 *  0.443978 *  0.488505 *  -2.87073    1.000000    
    293 O2    s    0.558789 *  0.975187 *  0.819924 *  -2.87073    1.000000    
    294 O2    s    0.023485 *  0.579858 *  0.152120 *  -2.87073    1.000000    
    295 O2    s    0.556490 *  0.581583 *  0.346725 *  -2.87073    1.000000    
    296 O3    s    0.014567 *  0.424053 *  0.005884 *  -3.33043    1.000000    
    297 O2    s    0.416711 *  0.975374 *  0.679077 *  -2.87073    1.000000    
    298 O2    s    0.439277 *  0.413542 *  0.845688 *  -2.87073    1.000000    
    299 O2    s    0.974843 *  0.559182 *  0.514003 *  -2.87073    1.000000    
    300 O2    s    0.588978 *  0.025359 *  0.183407 *  -2.87073    1.000000    
    301 O2    s    0.576613 *  0.155169 *  0.253414 *  -2.87073    1.000000    
    302 O2    s    0.844556 *  0.421564 *  0.584599 *  -2.87073    1.000000    
    303 O2    s    0.576291 *  0.421440 *  0.916051 *  -2.87073    1.000000    
    304 O2    s    0.421919 *  0.844420 *  0.749369 *  -2.87073    1.000000    
    305 O3    s    0.160433 *  0.575207 *  0.086198 *  -3.33043    1.000000    
    306 O2    s    0.421726 *  0.578269 *  0.417618 *  -2.87073    1.000000    
    307 F     s    0.450706 *  0.904673 *  0.251577 *  -1.56000    1.000000    
    308 F     s    0.095589 *  0.547388 *  0.583230 *  -1.56000    1.000000    
    309 F     s    0.452106 *  0.547498 *  0.914626 *  -1.56000    1.000000    
    310 F     s    0.548582 *  0.095776 *  0.749073 *  -1.56000    1.000000    
    311 F     s    0.913160 *  0.459916 *  0.070479 *  -1.56000    1.000000    
    312 F     s    0.548838 *  0.454497 *  0.416885 *  -1.56000    1.000000    
--------------------------------------------------------------------------------



********************************************************************************
*  General input information                                                   *
********************************************************************************

  Species output for all configurations : 

--------------------------------------------------------------------------------
  Species    Type    Atomic    Atomic    Charge       Radii (Angs)     Library
                     Number     Mass       (e)     Cova   Ionic  VDW   Symbol
--------------------------------------------------------------------------------
    Si       Core       14      28.09   4.000000   1.200  0.000  2.100          
    O1       Core        8      16.00   1.733957   0.730  0.000  1.360          
    O1       Shell       8       0.00  -3.733957   0.730  0.000  1.360          
    O2       Core        8      16.00   0.870733   0.730  0.000  1.360          
    O2       Shell       8       0.00  -2.870733   0.730  0.000  1.360          
    O3       Core        8      16.00   1.330431   0.730  0.000  1.360          
    O3       Shell       8       0.00  -3.330431   0.730  0.000  1.360          
    F        Core        9      19.00   0.560000   0.710  0.000  1.300          
    F        Shell       9       0.00  -1.560000   0.710  0.000  1.300          
    Ge       Core       32      72.61   4.000000   1.170  0.000  1.750          
--------------------------------------------------------------------------------


  Lattice summation method               =    Ewald          (3-D)
                                         =    Parry          (2-D)
                                         =    Saunders et al (1-D)
  Accuracy factor for lattice sums       =   12.000


  Time limit = Infinity

  Maximum range for interatomic potentials =        16.000000 Angstroms

  Taper potentials to zero over   1.0000 Angstroms using polynomial

  General interatomic potentials :

--------------------------------------------------------------------------------
Atom  Types   Potential         A         B         C         D     Cutoffs(Ang)
  1     2                                                            Min    Max 
--------------------------------------------------------------------------------
Si   c O1   s Buckingham    0.132E+04 0.318      10.1      0.00     0.000 16.000
Si   c O2   s Buckingham    0.132E+04 0.318      10.1      0.00     0.000 16.000
Si   c O3   s Buckingham    0.132E+04 0.318      10.1      0.00     0.000 16.000
Ge   c O1   s Buckingham    0.150E+04 0.326      16.8      0.00     0.000 16.000
Ge   c O2   s Buckingham    0.150E+04 0.326      16.8      0.00     0.000 16.000
Ge   c O3   s Buckingham    0.150E+04 0.326      16.8      0.00     0.000 16.000
O1   s O1   s Buckingham    0.228E+05 0.149      10.9      0.00     0.000 16.000
O1   s O2   s Buckingham    0.228E+05 0.149      10.9      0.00     0.000 16.000
O1   s O3   s Buckingham    0.228E+05 0.149      10.9      0.00     0.000 16.000
O2   s O2   s Buckingham    0.228E+05 0.149      10.9      0.00     0.000 16.000
O2   s O3   s Buckingham    0.228E+05 0.149      10.9      0.00     0.000 16.000
O3   s O3   s Buckingham    0.228E+05 0.149      10.9      0.00     0.000 16.000
Si   c F    s Buckingham     977.     0.282      0.00      0.00     0.000 16.000
Ge   c F    s Buckingham     681.     0.320      0.00      0.00     0.000 16.000
F    s F    s Buckingham     540.     0.262      0.00      0.00     0.000 16.000
O1   s F    s Buckingham    0.168E+04 0.268      0.00      0.00     0.000 16.000
O2   s F    s Buckingham    0.168E+04 0.268      0.00      0.00     0.000 16.000
O3   s F    s Buckingham    0.168E+04 0.268      0.00      0.00     0.000 16.000
O2   c O2   s Spring (c-s)   76.0      0.00      0.00      0.00     0.000  0.800
O3   c O3   s Spring (c-s)   128.      0.00      0.00      0.00     0.000  0.800
O1   c O1   s Spring (c-s)   180.      0.00      0.00      0.00     0.000  0.800
F    c F    s Spring (c-s)   33.5      0.00      0.00      0.00     0.000  0.800
--------------------------------------------------------------------------------

  General Three-body potentials :

  Harmonic form:

--------------------------------------------------------------------------------
Atom    Atom    Atom           Force Constants            Theta     Cutoffs  
  1       2       3     (eVrad**-2/eVrad**-3/eVrad**-4)   (deg)  1-2  1-3  2-3
--------------------------------------------------------------------------------
Si    c O1    s O1    s  1.261        0.0000    0.0000   109.470 0.00 0.00 0.00
                                                                 1.90 1.90 3.50
Si    c O1    s O2    s  1.261        0.0000    0.0000   109.470 0.00 0.00 0.00
                                                                 1.90 1.90 3.50
Si    c O2    s O2    s  1.261        0.0000    0.0000   109.470 0.00 0.00 0.00
                                                                 1.90 1.90 3.50
--------------------------------------------------------------------------------

********************************************************************************
*  Output for configuration   1                                                *
********************************************************************************


  Components of energy : 

--------------------------------------------------------------------------------
  Interatomic potentials     =        2061.27720224 eV
  Three-body potentials      =           0.42000500 eV
  Monopole - monopole (real) =       -6611.27961470 eV
  Monopole - monopole (recip)=       -3170.04595040 eV
  Monopole - monopole (total)=       -9781.32556510 eV
  Neutralising energy        =          -6.45737464 eV
--------------------------------------------------------------------------------
  Total lattice energy       =       -7726.08573250 eV
--------------------------------------------------------------------------------
  Total lattice energy       =         -745449.1691 kJ/(mole unit cells)
--------------------------------------------------------------------------------


  Number of variables =      939

  Maximum number of calculations  =          1000
  Maximum Hessian update interval =            10
  Maximum step size               =   1.000000000
  Maximum parameter tolerance     =   0.000010000
  Maximum function  tolerance     =   0.000010000
  Maximum gradient  tolerance     =   0.001000000
  Maximum gradient  component     =   0.010000000

  Symmetry not applied to optimisation

  Cell parameters to be optimised using strains

  Newton-Raphson optimiser to be used

  BFGS hessian update to be used

  Dumpfile to be written after every cycle

  Start of bulk optimisation :

  Cycle:      0 Energy:     -7726.085732  Gnorm:      0.004493  CPU:    1.062
  ** Hessian calculated **
  Cycle:      1 Energy:     -7726.085837  Gnorm:      0.003457  CPU:    2.634
  Cycle:      2 Energy:     -7726.086196  Gnorm:      0.008277  CPU:    4.672
  Cycle:      3 Energy:     -7726.087245  Gnorm:      0.008621  CPU:    6.710
  Cycle:      4 Energy:     -7726.088733  Gnorm:      0.007321  CPU:    8.747
  Cycle:      5 Energy:     -7726.090424  Gnorm:      0.008625  CPU:   10.784
  Cycle:      6 Energy:     -7726.091816  Gnorm:      0.011581  CPU:   12.492
  Cycle:      7 Energy:     -7726.093746  Gnorm:      0.014621  CPU:   14.200
  Cycle:      8 Energy:     -7726.097417  Gnorm:      0.020465  CPU:   16.088
  Cycle:      9 Energy:     -7726.102824  Gnorm:      0.020761  CPU:   17.466
  Cycle:     10 Energy:     -7726.106925  Gnorm:      0.018247  CPU:   18.844
  ** Hessian calculated **
  Cycle:     11 Energy:     -7726.109022  Gnorm:      0.011365  CPU:   21.075
  Cycle:     12 Energy:     -7726.111603  Gnorm:      0.016646  CPU:   22.453
  Cycle:     13 Energy:     -7726.113861  Gnorm:      0.009116  CPU:   23.831
  Cycle:     14 Energy:     -7726.114705  Gnorm:      0.010435  CPU:   25.208
  Cycle:     15 Energy:     -7726.116393  Gnorm:      0.012319  CPU:   26.586
  Cycle:     16 Energy:     -7726.118118  Gnorm:      0.011632  CPU:   27.963
  Cycle:     17 Energy:     -7726.119566  Gnorm:      0.011150  CPU:   29.341
  Cycle:     18 Energy:     -7726.121021  Gnorm:      0.011216  CPU:   30.719
  Cycle:     19 Energy:     -7726.122637  Gnorm:      0.010404  CPU:   32.097
  Cycle:     20 Energy:     -7726.123628  Gnorm:      0.009213  CPU:   33.630
  ** Hessian calculated **
  Cycle:     21 Energy:     -7726.124208  Gnorm:      0.006457  CPU:   35.860
  Cycle:     22 Energy:     -7726.125021  Gnorm:      0.008958  CPU:   37.238
  Cycle:     23 Energy:     -7726.125749  Gnorm:      0.007719  CPU:   38.747
  Cycle:     24 Energy:     -7726.126625  Gnorm:      0.009515  CPU:   40.125
  Cycle:     25 Energy:     -7726.127699  Gnorm:      0.009621  CPU:   41.503
  Cycle:     26 Energy:     -7726.128699  Gnorm:      0.008247  CPU:   42.882
  Cycle:     27 Energy:     -7726.129458  Gnorm:      0.008347  CPU:   44.411
  Cycle:     28 Energy:     -7726.130771  Gnorm:      0.010988  CPU:   45.789
  Cycle:     29 Energy:     -7726.132077  Gnorm:      0.008957  CPU:   47.167
  Cycle:     30 Energy:     -7726.133310  Gnorm:      0.011719  CPU:   48.546
  ** Hessian calculated **
  Cycle:     31 Energy:     -7726.146727  Gnorm:      0.011187  CPU:   52.256
  Cycle:     32 Energy:     -7726.163015  Gnorm:      0.010270  CPU:   54.295
  Cycle:     33 Energy:     -7726.182605  Gnorm:      0.008386  CPU:   56.664
  Cycle:     34 Energy:     -7726.199252  Gnorm:      0.006007  CPU:   58.703
  Cycle:     35 Energy:     -7726.211846  Gnorm:      0.002903  CPU:   60.744
  Cycle:     36 Energy:     -7726.214685  Gnorm:      0.000852  CPU:   62.123
  Cycle:     37 Energy:     -7726.214716  Gnorm:      0.000201  CPU:   63.504
  Cycle:     38 Energy:     -7726.214721  Gnorm:      0.000145  CPU:   64.884
  Cycle:     39 Energy:     -7726.214722  Gnorm:      0.000046  CPU:   66.264


  **** Optimisation achieved ****


  Final energy =   -7726.21472168 eV
  Final Gnorm  =       0.00001140

  Components of energy : 

--------------------------------------------------------------------------------
  Interatomic potentials     =        2061.33608292 eV
  Three-body potentials      =           0.42690339 eV
  Monopole - monopole (real) =       -6612.68067529 eV
  Monopole - monopole (recip)=       -3168.84210997 eV
  Monopole - monopole (total)=       -9781.52278526 eV
  Neutralising energy        =          -6.45492273 eV
--------------------------------------------------------------------------------
  Total lattice energy       =       -7726.21472168 eV
--------------------------------------------------------------------------------
  Total lattice energy       =         -745461.6146 kJ/(mole unit cells)
--------------------------------------------------------------------------------

  Final fractional coordinates of atoms :

--------------------------------------------------------------------------------
   No.  Atomic        x           y          z          Radius
        Label       (Frac)      (Frac)     (Frac)       (Angs) 
--------------------------------------------------------------------------------
     1  Ge    c     0.699600    0.375700    0.033890    0.000000
     2  Si    c     0.618863    0.319232    0.371488    0.000000
     3  Si    c     0.669081    0.285117    0.702198    0.000000
     4  Si    c     0.293179    0.615281    0.536180    0.000000
     5  Si    c     0.369478    0.661576    0.868116    0.000000
     6  Si    c     0.325320    0.698715    0.205674    0.000000
     7  Si    c     0.373251    0.697076    0.306657    0.000000
     8  Si    c     0.310610    0.608102    0.969873    0.000000
     9  Si    c     0.291586    0.667526    0.636628    0.000000
    10  Si    c     0.612848    0.283671    0.802667    0.000000
    11  Si    c     0.674914    0.376189    0.471384    0.000000
    12  Si    c     0.704415    0.318987    0.137411    0.000000
    13  Si    c     0.517280    0.402216    0.967780    0.000000
    14  Si    c     0.580354    0.110745    0.306644    0.000000
    15  Si    c     0.880930    0.459906    0.637474    0.000000
    16  Si    c     0.467359    0.579363    0.471669    0.000000
    17  Si    c     0.407414    0.872726    0.803120    0.000000
    18  Si    c     0.126715    0.528888    0.137412    0.000000
    19  Si    c     0.413771    0.525591    0.370494    0.000000
    20  Ge    c     0.094373    0.562836    0.037748    0.000000
    21  Si    c     0.462272    0.876256    0.701580    0.000000
    22  Si    c     0.573104    0.454975    0.866972    0.000000
    23  Si    c     0.884190    0.411440    0.535991    0.000000
    24  Si    c     0.535201    0.108887    0.205134    0.000000
    25  Si    c     0.292909    0.384217    0.852900    0.000000
    26  Si    c     0.606465    0.900348    0.192309    0.000000
    27  Si    c     0.092712    0.692461    0.521627    0.000000
    28  Si    c     0.693527    0.595197    0.354827    0.000000
    29  Si    c     0.390706    0.084277    0.687284    0.000000
    30  Si    c     0.900717    0.289366    0.015081    0.000000
    31  Si    c     0.396049    0.299269    0.486852    0.000000
    32  Si    c     0.912349    0.601079    0.150678    0.000000
    33  Si    c     0.688958    0.082348    0.817180    0.000000
    34  Si    c     0.591382    0.681449    0.982840    0.000000
    35  Si    c     0.090162    0.388616    0.651142    0.000000
    36  Si    c     0.298474    0.899467    0.319210    0.000000
    37  Si    c     0.240010    0.327305    0.953528    0.000000
    38  Si    c     0.655247    0.908271    0.293420    0.000000
    39  Si    c     0.082608    0.739454    0.622219    0.000000
    40  Si    c     0.746264    0.656748    0.454842    0.000000
    41  Si    c     0.331085    0.074236    0.787846    0.000000
    42  Si    c     0.919819    0.249023    0.118191    0.000000
    43  Si    c     0.338785    0.248665    0.386533    0.000000
    44  Si    c     0.917335    0.665751    0.048412    0.000000
    45  Si    c     0.741395    0.077410    0.716666    0.000000
    46  Si    c     0.650777    0.732357    0.882358    0.000000
    47  Si    c     0.084410    0.333289    0.550551    0.000000
    48  Si    c     0.253992    0.907943    0.218204    0.000000
    49  Si    c     0.959889    0.105253    0.966824    0.000000
    50  Ge    c     0.876061    0.846143    0.302846    0.000000
    51  Si    c     0.143541    0.018274    0.636676    0.000000
    52  Si    c     0.026144    0.873626    0.470920    0.000000
    53  Si    c     0.113989    0.137206    0.801986    0.000000
    54  Si    c     0.848939    0.966810    0.135543    0.000000
    55  Si    c     0.121735    0.969408    0.370138    0.000000
    56  Si    c     0.835593    0.869107    0.034590    0.000000
    57  Si    c     0.021936    0.139583    0.701354    0.000000
    58  Si    c     0.868439    0.012461    0.866550    0.000000
    59  Si    c     0.145898    0.115487    0.536181    0.000000
    60  Si    c     0.976245    0.849689    0.199478    0.000000
    61  O2    c     0.916122    0.986220    0.000523    0.000000
    62  O3    c     0.008685    0.936032    0.335597    0.000000
    63  O2    c     0.062731    0.059909    0.668585    0.000000
    64  O2    c     0.068590    0.996084    0.502723    0.000000
    65  O2    c     0.989241    0.054915    0.833293    0.000000
    66  O2    c     0.938433    0.925290    0.162870    0.000000
    67  O2    c     0.334371    0.573079    0.338923    0.000000
    68  O2    c     0.414248    0.751608    0.669197    0.000000
    69  O3    c     0.231839    0.647578    0.001694    0.000000
    70  O2    c     0.650535    0.406435    0.834818    0.000000
    71  O2    c     0.588408    0.235210    0.172723    0.000000
    72  O2    c     0.758357    0.336712    0.503816    0.000000
    73  O3    c     0.565499    0.327737    0.000505    0.000000
    74  O2    c     0.754541    0.409539    0.669702    0.000000
    75  O2    c     0.657107    0.234780    0.339016    0.000000
    76  O2    c     0.418032    0.655364    0.503763    0.000000
    77  O2    c     0.241873    0.573238    0.174324    0.000000
    78  O2    c     0.331269    0.746653    0.835487    0.000000
    79  O2    c     0.113187    0.199623    0.973392    0.000000
    80  O3    c     0.778979    0.910492    0.314377    0.000000
    81  O2    c     0.080736    0.864163    0.642244    0.000000
    82  O2    c     0.871308    0.782517    0.475527    0.000000
    83  O2    c     0.204504    0.073978    0.807825    0.000000
    84  O2    c     0.913721    0.121420    0.139725    0.000000
    85  O2    c     0.213855    0.123452    0.366383    0.000000
    86  O2    c     0.910068    0.790278    0.032684    0.000000
    87  O2    c     0.867534    0.076900    0.696555    0.000000
    88  O2    c     0.777040    0.858660    0.861525    0.000000
    89  O2    c     0.083293    0.206668    0.530756    0.000000
    90  O2    c     0.131553    0.912095    0.196657    0.000000
    91  O3    c     0.928511    0.867458    0.247533    0.000000
    92  O2    c     0.130076    0.058051    0.586122    0.000000
    93  O2    c     0.924588    0.051489    0.916519    0.000000
    94  O2    c     0.064078    0.126235    0.751265    0.000000
    95  O2    c     0.840215    0.925355    0.084008    0.000000
    96  O2    c     0.064598    0.924560    0.420071    0.000000
    97  O2    c     0.884359    0.180676    0.978845    0.000000
    98  O3    c     0.789983    0.684165    0.314937    0.000000
    99  O2    c     0.295117    0.087481    0.648869    0.000000
   100  O2    c     0.095254    0.791956    0.483493    0.000000
   101  O2    c     0.194893    0.287960    0.814607    0.000000
   102  O2    c     0.702944    0.896965    0.154581    0.000000
   103  O2    c     0.200721    0.897240    0.357643    0.000000
   104  O2    c     0.685773    0.778965    0.021741    0.000000
   105  O2    c     0.091682    0.291275    0.689156    0.000000
   106  O2    c     0.786326    0.082318    0.855415    0.000000
   107  O2    c     0.298824    0.200159    0.525222    0.000000
   108  O2    c     0.911091    0.697099    0.189004    0.000000
   109  O2    c     0.322048    0.641694    0.256104    0.000000
   110  O2    c     0.350074    0.670606    0.586319    0.000000
   111  O2    c     0.312714    0.659713    0.918105    0.000000
   112  O2    c     0.670052    0.341652    0.752353    0.000000
   113  O3    c     0.647081    0.324735    0.089419    0.000000
   114  O2    c     0.675002    0.318264    0.421544    0.000000
   115  O2    c     0.360808    0.313740    0.971270    0.000000
   116  O2    c     0.666731    0.042049    0.309772    0.000000
   117  O2    c     0.949659    0.615965    0.640324    0.000000
   118  O2    c     0.624092    0.666604    0.473569    0.000000
   119  O2    c     0.320066    0.941355    0.806079    0.000000
   120  O2    c     0.049104    0.370615    0.138368    0.000000
   121  O2    c     0.327297    0.369576    0.367684    0.000000
   122  O3    c     0.049078    0.682932    0.029787    0.000000
   123  O2    c     0.618891    0.945279    0.698375    0.000000
   124  O2    c     0.661201    0.611331    0.863296    0.000000
   125  O2    c     0.952296    0.323888    0.532189    0.000000
   126  O2    c     0.379198    0.039453    0.199863    0.000000
   127  O3    c     0.765202    0.286126    0.013673    0.000000
   128  O2    c     0.693672    0.461494    0.348512    0.000000
   129  O2    c     0.525989    0.217932    0.679729    0.000000
   130  O2    c     0.226219    0.691331    0.513771    0.000000
   131  O2    c     0.296545    0.519507    0.845166    0.000000
   132  O2    c     0.470018    0.769164    0.183813    0.000000
   133  O2    c     0.296131    0.764733    0.327150    0.000000
   134  O2    c     0.457922    0.680909    0.989747    0.000000
   135  O2    c     0.223605    0.523406    0.658540    0.000000
   136  O2    c     0.687907    0.215352    0.824837    0.000000
   137  O2    c     0.531218    0.301837    0.493992    0.000000
   138  O2    c     0.781987    0.463540    0.157995    0.000000
   139  O3    c     0.793337    0.540098    0.027862    0.000000
   140  O2    c     0.462878    0.245361    0.366924    0.000000
   141  O2    c     0.743768    0.204205    0.696955    0.000000
   142  O2    c     0.211593    0.459256    0.530910    0.000000
   143  O2    c     0.525870    0.734990    0.863548    0.000000
   144  O2    c     0.250936    0.779977    0.199855    0.000000
   145  O2    c     0.528422    0.782238    0.312957    0.000000
   146  O2    c     0.241180    0.451223    0.974188    0.000000
   147  O2    c     0.208605    0.740094    0.641638    0.000000
   148  O2    c     0.456458    0.199964    0.807398    0.000000
   149  O2    c     0.748764    0.532270    0.474346    0.000000
   150  O2    c     0.794193    0.254447    0.134475    0.000000
   151  O2    c     0.220190    0.310901    0.899280    0.000000
   152  O2    c     0.676146    0.901009    0.239259    0.000000
   153  O2    c     0.086896    0.760777    0.567980    0.000000
   154  O2    c     0.766068    0.675376    0.400274    0.000000
   155  O2    c     0.314773    0.077664    0.733585    0.000000
   156  O2    c     0.923563    0.237504    0.064089    0.000000
   157  O2    c     0.321133    0.229536    0.440770    0.000000
   158  O2    c     0.909740    0.667106    0.103604    0.000000
   159  O2    c     0.760215    0.079165    0.770870    0.000000
   160  O2    c     0.669407    0.751369    0.936554    0.000000
   161  O2    c     0.085697    0.315158    0.604734    0.000000
   162  O2    c     0.230263    0.904862    0.272374    0.000000
   163  O2    c     0.578885    0.542604    0.992262    0.000000
   164  O2    c     0.437259    0.025078    0.328578    0.000000
   165  O2    c     0.965060    0.402778    0.660193    0.000000
   166  O2    c     0.410916    0.438582    0.495192    0.000000
   167  O2    c     0.548803    0.956958    0.825918    0.000000
   168  O2    c     0.035981    0.584022    0.156843    0.000000
   169  O2    c     0.554484    0.583102    0.346244    0.000000
   170  O3    c     0.021686    0.423866    0.001772    0.000000
   171  O2    c     0.404608    0.959406    0.678257    0.000000
   172  O2    c     0.431557    0.395944    0.843892    0.000000
   173  O2    c     0.967160    0.553156    0.512697    0.000000
   174  O2    c     0.598744    0.029385    0.183418    0.000000
   175  O2    c     0.583158    0.164729    0.255702    0.000000
   176  O2    c     0.829191    0.408414    0.586648    0.000000
   177  O2    c     0.574759    0.401388    0.917635    0.000000
   178  O2    c     0.407870    0.821394    0.752229    0.000000
   179  O3    c     0.185136    0.580796    0.088574    0.000000
   180  O2    c     0.413883    0.578618    0.421024    0.000000
   181  F     c     0.452535    0.903163    0.255053    0.000000
   182  F     c     0.090881    0.539856    0.585735    0.000000
   183  F     c     0.447527    0.528201    0.917849    0.000000
   184  F     c     0.540095    0.082830    0.751705    0.000000
   185  F     c     0.943267    0.470488    0.074284    0.000000
   186  F     c     0.546170    0.450145    0.419995    0.000000
   187  O2    s     0.911851    0.986432    0.000576    0.000000
   188  O3    s     0.009255    0.931725    0.336453    0.000000
   189  O2    s     0.067255    0.064112    0.668654    0.000000
   190  O2    s     0.072434    0.995675    0.502893    0.000000
   191  O2    s     0.989719    0.059421    0.833504    0.000000
   192  O2    s     0.932760    0.921727    0.163813    0.000000
   193  O2    s     0.346461    0.581105    0.338780    0.000000
   194  O2    s     0.406455    0.755680    0.669132    0.000000
   195  O3    s     0.231057    0.637412    0.000671    0.000000
   196  O2    s     0.638756    0.398631    0.834743    0.000000
   197  O2    s     0.595247    0.231076    0.172291    0.000000
   198  O2    s     0.762604    0.348532    0.503731    0.000000
   199  O3    s     0.571704    0.338771    0.000084    0.000000
   200  O2    s     0.758933    0.402040    0.669687    0.000000
   201  O2    s     0.645150    0.230524    0.338987    0.000000
   202  O2    s     0.410422    0.643418    0.503753    0.000000
   203  O2    s     0.238802    0.581660    0.173828    0.000000
   204  O2    s     0.343044    0.751079    0.835455    0.000000
   205  O2    s     0.109817    0.202655    0.970673    0.000000
   206  O3    s     0.774412    0.905015    0.311337    0.000000
   207  O2    s     0.087572    0.867581    0.639612    0.000000
   208  O2    s     0.874842    0.779193    0.472916    0.000000
   209  O2    s     0.208014    0.080698    0.805165    0.000000
   210  O2    s     0.907544    0.118332    0.137087    0.000000
   211  O2    s     0.217304    0.120258    0.368925    0.000000
   212  O2    s     0.902424    0.785637    0.034610    0.000000
   213  O2    s     0.870964    0.083634    0.699115    0.000000
   214  O2    s     0.773824    0.862132    0.864184    0.000000
   215  O2    s     0.090022    0.210027    0.533332    0.000000
   216  O2    s     0.127910    0.905127    0.199152    0.000000
   217  O3    s     0.929175    0.863741    0.247087    0.000000
   218  O2    s     0.133380    0.060110    0.586122    0.000000
   219  O2    s     0.922243    0.053184    0.916582    0.000000
   220  O2    s     0.064905    0.129001    0.751301    0.000000
   221  O2    s     0.840732    0.923862    0.084427    0.000000
   222  O2    s     0.066700    0.923858    0.420193    0.000000
   223  O2    s     0.894074    0.183594    0.981227    0.000000
   224  O3    s     0.787961    0.689143    0.317722    0.000000
   225  O2    s     0.288680    0.079789    0.651464    0.000000
   226  O2    s     0.087649    0.790528    0.486039    0.000000
   227  O2    s     0.196225    0.281654    0.817154    0.000000
   228  O2    s     0.708618    0.904873    0.156500    0.000000
   229  O2    s     0.202583    0.905070    0.354939    0.000000
   230  O2    s     0.692483    0.778888    0.019219    0.000000
   231  O2    s     0.084122    0.285205    0.686532    0.000000
   232  O2    s     0.785046    0.074959    0.852688    0.000000
   233  O2    s     0.292661    0.201407    0.522436    0.000000
   234  O2    s     0.917929    0.703016    0.186189    0.000000
   235  O2    s     0.327670    0.653301    0.256112    0.000000
   236  O2    s     0.338271    0.664615    0.586299    0.000000
   237  O2    s     0.318510    0.654830    0.917890    0.000000
   238  O2    s     0.664117    0.329921    0.752334    0.000000
   239  O3    s     0.656833    0.328022    0.090056    0.000000
   240  O2    s     0.669202    0.324277    0.421464    0.000000
   241  O2    s     0.364374    0.324276    0.969048    0.000000
   242  O2    s     0.656387    0.035174    0.307693    0.000000
   243  O2    s     0.956549    0.612878    0.638118    0.000000
   244  O2    s     0.620702    0.656563    0.471396    0.000000
   245  O2    s     0.330153    0.948187    0.803864    0.000000
   246  O2    s     0.043111    0.373267    0.136162    0.000000
   247  O2    s     0.337479    0.373127    0.369954    0.000000
   248  O3    s     0.038218    0.672986    0.032327    0.000000
   249  O2    s     0.615592    0.952017    0.700631    0.000000
   250  O2    s     0.651094    0.607934    0.865669    0.000000
   251  O2    s     0.959073    0.333852    0.534498    0.000000
   252  O2    s     0.382276    0.032911    0.202326    0.000000
   253  O3    s     0.773278    0.293685    0.015467    0.000000
   254  O2    s     0.685788    0.460668    0.351635    0.000000
   255  O2    s     0.526442    0.210755    0.682864    0.000000
   256  O2    s     0.219075    0.683664    0.516917    0.000000
   257  O2    s     0.303633    0.519766    0.848353    0.000000
   258  O2    s     0.469428    0.775694    0.186986    0.000000
   259  O2    s     0.304354    0.771847    0.324153    0.000000
   260  O2    s     0.457940    0.673746    0.986982    0.000000
   261  O2    s     0.216516    0.524022    0.655466    0.000000
   262  O2    s     0.680353    0.208383    0.821740    0.000000
   263  O2    s     0.531709    0.309243    0.490873    0.000000
   264  O2    s     0.787818    0.463236    0.155110    0.000000
   265  O3    s     0.797582    0.538379    0.030323    0.000000
   266  O2    s     0.465892    0.253619    0.369507    0.000000
   267  O2    s     0.735664    0.198830    0.699595    0.000000
   268  O2    s     0.206233    0.461810    0.533535    0.000000
   269  O2    s     0.523064    0.726943    0.866038    0.000000
   270  O2    s     0.259023    0.785440    0.202403    0.000000
   271  O2    s     0.525722    0.786953    0.310208    0.000000
   272  O2    s     0.248177    0.453204    0.971507    0.000000
   273  O2    s     0.203449    0.732367    0.639032    0.000000
   274  O2    s     0.459184    0.194932    0.804800    0.000000
   275  O2    s     0.740640    0.529354    0.471936    0.000000
   276  O2    s     0.798241    0.260828    0.133023    0.000000
   277  O2    s     0.229939    0.320354    0.900097    0.000000
   278  O2    s     0.666704    0.901611    0.239856    0.000000
   279  O2    s     0.087053    0.751338    0.568839    0.000000
   280  O2    s     0.756758    0.665469    0.401280    0.000000
   281  O2    s     0.324475    0.077986    0.734445    0.000000
   282  O2    s     0.921086    0.243765    0.065329    0.000000
   283  O2    s     0.330878    0.238909    0.439834    0.000000
   284  O2    s     0.910800    0.659717    0.103217    0.000000
   285  O2    s     0.750763    0.079311    0.769956    0.000000
   286  O2    s     0.659397    0.742129    0.935634    0.000000
   287  O2    s     0.086023    0.324782    0.603815    0.000000
   288  O2    s     0.239691    0.904605    0.271521    0.000000
   289  O2    s     0.573946    0.543105    0.988839    0.000000
   290  O2    s     0.437332    0.020344    0.325231    0.000000
   291  O2    s     0.969945    0.407401    0.656834    0.000000
   292  O2    s     0.415385    0.438231    0.491828    0.000000
   293  O2    s     0.549159    0.961873    0.822581    0.000000
   294  O2    s     0.031315    0.580263    0.154202    0.000000
   295  O2    s     0.554675    0.578303    0.349655    0.000000
   296  O3    s     0.013482    0.418985    0.005595    0.000000
   297  O2    s     0.409272    0.964369    0.681651    0.000000
   298  O2    s     0.431402    0.400978    0.847257    0.000000
   299  O2    s     0.972222    0.553413    0.516087    0.000000
   300  O2    s     0.592848    0.023908    0.186624    0.000000
   301  O2    s     0.577829    0.153315    0.255667    0.000000
   302  O2    s     0.840303    0.414069    0.586631    0.000000
   303  O2    s     0.568771    0.407009    0.917530    0.000000
   304  O2    s     0.413466    0.832399    0.752228    0.000000
   305  O3    s     0.172927    0.574077    0.090371    0.000000
   306  O2    s     0.419426    0.573163    0.421002    0.000000
   307  F     s     0.452452    0.903094    0.254980    0.000000
   308  F     s     0.091270    0.540020    0.585653    0.000000
   309  F     s     0.448005    0.527791    0.917827    0.000000
   310  F     s     0.540338    0.083220    0.751632    0.000000
   311  F     s     0.952186    0.476076    0.071817    0.000000
   312  F     s     0.546417    0.450095    0.419874    0.000000
--------------------------------------------------------------------------------

  Final Cartesian lattice vectors (Angstroms) :

       11.972791   -0.003736    0.013511
       -6.047518   10.375630    0.030289
        0.063084    0.123805   29.512730


  Final cell parameters and derivatives :

--------------------------------------------------------------------------------
       a           11.972799 Angstrom     dE/de1(xx)     0.000600 eV/strain
       b           12.009458 Angstrom     dE/de2(yy)     0.000244 eV/strain
       c           29.513057 Angstrom     dE/de3(zz)     0.000602 eV/strain
       alpha       89.709512 Degrees      dE/de4(yz)     0.000287 eV/strain
       beta        89.812950 Degrees      dE/de5(xz)     0.000155 eV/strain
       gamma      120.253674 Degrees      dE/de6(xy)     0.000212 eV/strain
--------------------------------------------------------------------------------

  Primitive cell volume =          3665.495513 Angs**3

  Density of cell =      1.745492 g/cm**3

  Non-primitive cell volume =          3665.495513 Angs**3


  Final internal derivatives :

--------------------------------------------------------------------------------
   No.  Atomic          a             b             c           Radius
        Label          (eV)          (eV)          (eV)        (eV/Angs)
--------------------------------------------------------------------------------
      1 Ge    c       0.000000      0.000000      0.000000      0.000000
      2 Si    c       0.000177     -0.000159     -0.000255      0.000000
      3 Si    c       0.000002      0.000036      0.000156      0.000000
      4 Si    c      -0.000014     -0.000060      0.000058      0.000000
      5 Si    c       0.000102     -0.000252      0.000036      0.000000
      6 Si    c      -0.000108      0.000032      0.000103      0.000000
      7 Si    c      -0.000077      0.000029     -0.000222      0.000000
      8 Si    c      -0.000549     -0.000113      0.000076      0.000000
      9 Si    c       0.000002     -0.000053     -0.000098      0.000000
     10 Si    c      -0.000021      0.000036     -0.000201      0.000000
     11 Si    c       0.000182     -0.000098     -0.000021      0.000000
     12 Si    c      -0.000407      0.000036      0.000788      0.000000
     13 Si    c      -0.001234      0.000195     -0.001157      0.000000
     14 Si    c       0.000055     -0.000053      0.000035      0.000000
     15 Si    c      -0.000080      0.000033     -0.000157      0.000000
     16 Si    c      -0.000180      0.000121      0.000332      0.000000
     17 Si    c       0.000046     -0.000027     -0.000091      0.000000
     18 Si    c      -0.000184      0.000001     -0.001097      0.000000
     19 Si    c      -0.000113      0.000057     -0.000088      0.000000
     20 Ge    c      -0.000461      0.000762      0.001406      0.000000
     21 Si    c      -0.000010      0.000054      0.000062      0.000000
     22 Si    c       0.000100     -0.000141     -0.000619      0.000000
     23 Si    c      -0.000003      0.000035      0.000055      0.000000
     24 Si    c       0.000002     -0.000093     -0.000047      0.000000
     25 Si    c      -0.000175      0.000257      0.000202      0.000000
     26 Si    c      -0.000018      0.000057     -0.000227      0.000000
     27 Si    c      -0.000004     -0.000076     -0.000081      0.000000
     28 Si    c       0.000085      0.000034     -0.000122      0.000000
     29 Si    c      -0.000017     -0.000003     -0.000090      0.000000
     30 Si    c      -0.000047      0.000046      0.000503      0.000000
     31 Si    c      -0.000111     -0.000011      0.000088      0.000000
     32 Si    c       0.000039     -0.000041      0.000273      0.000000
     33 Si    c       0.000053      0.000000     -0.000126      0.000000
     34 Si    c       0.000117     -0.000041      0.000484      0.000000
     35 Si    c       0.000010     -0.000009     -0.000195      0.000000
     36 Si    c       0.000084     -0.000113     -0.000240      0.000000
     37 Si    c      -0.000026     -0.000156      0.000611      0.000000
     38 Si    c      -0.000008      0.000116      0.000175      0.000000
     39 Si    c      -0.000036      0.000125     -0.000084      0.000000
     40 Si    c       0.000072      0.000102     -0.000134      0.000000
     41 Si    c       0.000010      0.000018     -0.000036      0.000000
     42 Si    c       0.000305      0.000033     -0.000429      0.000000
     43 Si    c      -0.000134     -0.000037      0.000015      0.000000
     44 Si    c      -0.000586      0.000253     -0.002148      0.000000
     45 Si    c      -0.000054      0.000024      0.000117      0.000000
     46 Si    c      -0.000138      0.000339     -0.000837      0.000000
     47 Si    c       0.000002     -0.000005     -0.000111      0.000000
     48 Si    c       0.000087     -0.000061      0.000071      0.000000
     49 Si    c       0.000037      0.000329     -0.000992      0.000000
     50 Ge    c      -0.000119      0.000169      0.000397      0.000000
     51 Si    c      -0.000100      0.000025      0.000024      0.000000
     52 Si    c      -0.000042      0.000035     -0.000131      0.000000
     53 Si    c      -0.000014      0.000072      0.000067      0.000000
     54 Si    c       0.000080      0.000025     -0.000111      0.000000
     55 Si    c      -0.000210      0.000093     -0.000262      0.000000
     56 Si    c      -0.000897      0.000413      0.003000      0.000000
     57 Si    c       0.000029     -0.000064      0.000029      0.000000
     58 Si    c      -0.000063      0.000066     -0.000044      0.000000
     59 Si    c       0.000002      0.000032     -0.000249      0.000000
     60 Si    c      -0.000101     -0.000012      0.000725      0.000000
     61 O2    c       0.001037     -0.000003     -0.000906      0.000000
     62 O3    c       0.000267     -0.000091      0.000364      0.000000
     63 O2    c       0.000065     -0.000102     -0.000099      0.000000
     64 O2    c       0.000000     -0.000015      0.000021      0.000000
     65 O2    c      -0.000073      0.000109      0.000011      0.000000
     66 O2    c      -0.000074      0.000187     -0.000172      0.000000
     67 O2    c      -0.000010      0.000030     -0.000016      0.000000
     68 O2    c      -0.000030      0.000093     -0.000017      0.000000
     69 O3    c       0.000734     -0.000354     -0.000688      0.000000
     70 O2    c      -0.000039      0.000028     -0.000289      0.000000
     71 O2    c       0.000098     -0.000089     -0.000219      0.000000
     72 O2    c      -0.000005     -0.000017     -0.000115      0.000000
     73 O3    c       0.000189     -0.000830      0.000879      0.000000
     74 O2    c       0.000024     -0.000011     -0.000128      0.000000
     75 O2    c      -0.000020      0.000021     -0.000055      0.000000
     76 O2    c       0.000043     -0.000053     -0.000098      0.000000
     77 O2    c      -0.000020     -0.000028      0.000075      0.000000
     78 O2    c       0.000093     -0.000082     -0.000185      0.000000
     79 O2    c       0.000235      0.000008      0.000528      0.000000
     80 O3    c       0.000296     -0.000173      0.000187      0.000000
     81 O2    c       0.000026     -0.000060     -0.000078      0.000000
     82 O2    c       0.000056     -0.000031     -0.000019      0.000000
     83 O2    c      -0.000049      0.000055     -0.000159      0.000000
     84 O2    c      -0.000011      0.000157     -0.000221      0.000000
     85 O2    c      -0.000040     -0.000016      0.000053      0.000000
     86 O2    c       0.001947     -0.002567      0.000895      0.000000
     87 O2    c      -0.000011     -0.000061     -0.000019      0.000000
     88 O2    c      -0.000219      0.000114      0.000067      0.000000
     89 O2    c      -0.000002     -0.000014     -0.000009      0.000000
     90 O2    c       0.000031     -0.000024      0.000255      0.000000
     91 O3    c       0.000024      0.000019     -0.001051      0.000000
     92 O2    c      -0.000027      0.000019     -0.000020      0.000000
     93 O2    c      -0.000092      0.000105     -0.000261      0.000000
     94 O2    c       0.000079     -0.000068      0.000007      0.000000
     95 O2    c      -0.000367     -0.000207     -0.000788      0.000000
     96 O2    c       0.000002     -0.000020     -0.000045      0.000000
     97 O2    c      -0.000643      0.001032      0.000112      0.000000
     98 O3    c       0.000029     -0.000101     -0.000061      0.000000
     99 O2    c       0.000034     -0.000051      0.000075      0.000000
    100 O2    c       0.000034     -0.000048      0.000041      0.000000
    101 O2    c       0.000060      0.000019     -0.000050      0.000000
    102 O2    c       0.000118      0.000009     -0.000054      0.000000
    103 O2    c       0.000039      0.000014     -0.000238      0.000000
    104 O2    c      -0.001103     -0.000114     -0.000224      0.000000
    105 O2    c       0.000010     -0.000038     -0.000024      0.000000
    106 O2    c       0.000101     -0.000063      0.000077      0.000000
    107 O2    c      -0.000049      0.000085     -0.000142      0.000000
    108 O2    c       0.000052      0.000049     -0.000280      0.000000
    109 O2    c      -0.000032     -0.000005     -0.000031      0.000000
    110 O2    c       0.000121     -0.000056      0.000071      0.000000
    111 O2    c       0.000158     -0.000201     -0.000271      0.000000
    112 O2    c      -0.000022      0.000065     -0.000043      0.000000
    113 O3    c      -0.000610      0.000441     -0.002599      0.000000
    114 O2    c       0.000129     -0.000130      0.000031      0.000000
    115 O2    c       0.000337     -0.000030      0.000355      0.000000
    116 O2    c      -0.000140      0.000006     -0.000104      0.000000
    117 O2    c       0.000008      0.000034     -0.000077      0.000000
    118 O2    c      -0.000039      0.000092      0.000170      0.000000
    119 O2    c      -0.000005      0.000042      0.000112      0.000000
    120 O2    c       0.000262     -0.000199     -0.000060      0.000000
    121 O2    c      -0.000074      0.000095     -0.000040      0.000000
    122 O3    c       0.000313     -0.000322     -0.000346      0.000000
    123 O2    c      -0.000002      0.000074     -0.000066      0.000000
    124 O2    c       0.000028     -0.000007     -0.000359      0.000000
    125 O2    c       0.000055     -0.000038     -0.000180      0.000000
    126 O2    c       0.000056     -0.000095      0.000096      0.000000
    127 O3    c      -0.000974      0.000819      0.001114      0.000000
    128 O2    c       0.000142     -0.000174     -0.000073      0.000000
    129 O2    c      -0.000032     -0.000003     -0.000049      0.000000
    130 O2    c       0.000070     -0.000058     -0.000196      0.000000
    131 O2    c       0.000075      0.000025      0.000248      0.000000
    132 O2    c      -0.000045      0.000016      0.000028      0.000000
    133 O2    c       0.000067     -0.000026     -0.000117      0.000000
    134 O2    c       0.000233      0.000058      0.000325      0.000000
    135 O2    c      -0.000018     -0.000033     -0.000084      0.000000
    136 O2    c       0.000078     -0.000118     -0.000043      0.000000
    137 O2    c       0.000071     -0.000057     -0.000010      0.000000
    138 O2    c       0.000104      0.000152      0.000550      0.000000
    139 O3    c       0.000859      0.000952      0.001516      0.000000
    140 O2    c       0.000037     -0.000040     -0.000194      0.000000
    141 O2    c      -0.000042     -0.000011     -0.000186      0.000000
    142 O2    c      -0.000015     -0.000056     -0.000003      0.000000
    143 O2    c       0.000234     -0.000078     -0.000069      0.000000
    144 O2    c       0.000040     -0.000060      0.000033      0.000000
    145 O2    c       0.000052      0.000059     -0.000097      0.000000
    146 O2    c      -0.000128      0.000213      0.000496      0.000000
    147 O2    c      -0.000073      0.000049      0.000150      0.000000
    148 O2    c       0.000050     -0.000043     -0.000123      0.000000
    149 O2    c       0.000054     -0.000054      0.000079      0.000000
    150 O2    c       0.000153     -0.000247      0.000757      0.000000
    151 O2    c      -0.000106      0.000119     -0.000671      0.000000
    152 O2    c       0.000030     -0.000007      0.000196      0.000000
    153 O2    c      -0.000088      0.000072      0.000179      0.000000
    154 O2    c       0.000036      0.000014     -0.000114      0.000000
    155 O2    c      -0.000029      0.000027     -0.000149      0.000000
    156 O2    c      -0.000087      0.000038     -0.000414      0.000000
    157 O2    c      -0.000064      0.000097      0.000279      0.000000
    158 O2    c      -0.000106      0.000143      0.000690      0.000000
    159 O2    c      -0.000057      0.000093      0.000025      0.000000
    160 O2    c       0.000121      0.000088      0.000306      0.000000
    161 O2    c      -0.000036     -0.000008      0.000021      0.000000
    162 O2    c       0.000050     -0.000064      0.000072      0.000000
    163 O2    c      -0.000363      0.000463     -0.000184      0.000000
    164 O2    c       0.000192     -0.000109     -0.000429      0.000000
    165 O2    c      -0.000037      0.000027      0.000092      0.000000
    166 O2    c      -0.000086      0.000167     -0.000044      0.000000
    167 O2    c       0.000021      0.000034      0.000019      0.000000
    168 O2    c      -0.000138      0.000210      0.000147      0.000000
    169 O2    c      -0.000032      0.000076     -0.000171      0.000000
    170 O3    c      -0.000232     -0.001183     -0.000584      0.000000
    171 O2    c       0.000050     -0.000044     -0.000146      0.000000
    172 O2    c      -0.000117      0.000079     -0.000149      0.000000
    173 O2    c       0.000016     -0.000035     -0.000031      0.000000
    174 O2    c      -0.000068     -0.000022     -0.000157      0.000000
    175 O2    c       0.000061     -0.000015      0.000035      0.000000
    176 O2    c      -0.000140      0.000091     -0.000059      0.000000
    177 O2    c      -0.000286      0.000098      0.000705      0.000000
    178 O2    c       0.000001     -0.000059     -0.000078      0.000000
    179 O3    c      -0.000097     -0.000345      0.000290      0.000000
    180 O2    c      -0.000156      0.000186      0.000009      0.000000
    181 F     c      -0.000015     -0.000050      0.000029      0.000000
    182 F     c       0.000005     -0.000004     -0.000020      0.000000
    183 F     c      -0.000187      0.000282     -0.000505      0.000000
    184 F     c      -0.000036      0.000032     -0.000002      0.000000
    185 F     c       0.000282     -0.000265     -0.000320      0.000000
    186 F     c      -0.000022      0.000032      0.000032      0.000000
    187 O2    s      -0.000120      0.000264     -0.000695      0.000000
    188 O3    s       0.000019     -0.000107     -0.000303      0.000000
    189 O2    s      -0.000077      0.000098      0.000079      0.000000
    190 O2    s       0.000031      0.000061      0.000013      0.000000
    191 O2    s       0.000122     -0.000148      0.000048      0.000000
    192 O2    s       0.000179     -0.000137     -0.000154      0.000000
    193 O2    s       0.000006     -0.000055      0.000064      0.000000
    194 O2    s      -0.000000     -0.000071      0.000045      0.000000
    195 O3    s      -0.000226      0.000620      0.000078      0.000000
    196 O2    s       0.000087     -0.000018      0.000444      0.000000
    197 O2    s      -0.000253      0.000182      0.000261      0.000000
    198 O2    s      -0.000080      0.000059     -0.000021      0.000000
    199 O3    s      -0.000700      0.001071     -0.002249      0.000000
    200 O2    s       0.000034     -0.000027      0.000025      0.000000
    201 O2    s      -0.000011      0.000018     -0.000025      0.000000
    202 O2    s       0.000077     -0.000000     -0.000100      0.000000
    203 O2    s      -0.000044      0.000071      0.000030      0.000000
    204 O2    s      -0.000122      0.000166      0.000192      0.000000
    205 O2    s       0.000108     -0.000076     -0.000907      0.000000
    206 O3    s      -0.000196      0.000090     -0.000234      0.000000
    207 O2    s       0.000024     -0.000026      0.000089      0.000000
    208 O2    s      -0.000046     -0.000010      0.000189      0.000000
    209 O2    s       0.000113     -0.000081      0.000193      0.000000
    210 O2    s       0.000010     -0.000239      0.000297      0.000000
    211 O2    s       0.000071     -0.000068     -0.000091      0.000000
    212 O2    s       0.000385     -0.000194      0.000254      0.000000
    213 O2    s       0.000029      0.000080     -0.000143      0.000000
    214 O2    s       0.000259     -0.000132     -0.000185      0.000000
    215 O2    s       0.000018     -0.000030     -0.000075      0.000000
    216 O2    s       0.000043      0.000040     -0.000407      0.000000
    217 O3    s       0.000015     -0.000056      0.000448      0.000000
    218 O2    s       0.000027     -0.000048      0.000136      0.000000
    219 O2    s       0.000191     -0.000245     -0.000116      0.000000
    220 O2    s      -0.000103      0.000056     -0.000139      0.000000
    221 O2    s      -0.000081      0.000377      0.001749      0.000000
    222 O2    s       0.000009      0.000006     -0.000180      0.000000
    223 O2    s      -0.000423      0.000232      0.000642      0.000000
    224 O3    s      -0.000070      0.000180     -0.000000      0.000000
    225 O2    s       0.000074      0.000011     -0.000044      0.000000
    226 O2    s      -0.000028      0.000023     -0.000042      0.000000
    227 O2    s      -0.000005     -0.000063     -0.000051      0.000000
    228 O2    s       0.000129      0.000082      0.000356      0.000000
    229 O2    s      -0.000192      0.000220      0.000398      0.000000
    230 O2    s      -0.000440      0.000044     -0.000462      0.000000
    231 O2    s      -0.000032      0.000036      0.000180      0.000000
    232 O2    s      -0.000125      0.000101      0.000001      0.000000
    233 O2    s       0.000057     -0.000058      0.000075      0.000000
    234 O2    s       0.000006     -0.000103      0.000254      0.000000
    235 O2    s       0.000069      0.000086      0.000041      0.000000
    236 O2    s      -0.000211      0.000064     -0.000198      0.000000
    237 O2    s      -0.000130      0.000399      0.000315      0.000000
    238 O2    s       0.000028     -0.000132      0.000006      0.000000
    239 O3    s       0.000772     -0.000323      0.001746      0.000000
    240 O2    s      -0.000233      0.000259     -0.000045      0.000000
    241 O2    s       0.000153     -0.000336     -0.000148      0.000000
    242 O2    s       0.000190     -0.000006      0.000021      0.000000
    243 O2    s       0.000022     -0.000038      0.000108      0.000000
    244 O2    s       0.000124     -0.000190     -0.000128      0.000000
    245 O2    s      -0.000026      0.000013     -0.000149      0.000000
    246 O2    s      -0.000081     -0.000013      0.000652      0.000000
    247 O2    s       0.000072     -0.000019     -0.000018      0.000000
    248 O3    s      -0.000706      0.000090      0.002000      0.000000
    249 O2    s      -0.000012     -0.000023      0.000034      0.000000
    250 O2    s      -0.000035     -0.000110      0.000602      0.000000
    251 O2    s      -0.000039     -0.000018      0.000227      0.000000
    252 O2    s      -0.000063      0.000118     -0.000044      0.000000
    253 O3    s       0.000437     -0.000513     -0.000498      0.000000
    254 O2    s      -0.000196      0.000129      0.000287      0.000000
    255 O2    s       0.000024     -0.000027      0.000004      0.000000
    256 O2    s      -0.000062      0.000088      0.000217      0.000000
    257 O2    s      -0.000280     -0.000017     -0.001133      0.000000
    258 O2    s       0.000042      0.000045     -0.000068      0.000000
    259 O2    s      -0.000074      0.000032      0.000178      0.000000
    260 O2    s       0.000216     -0.000310     -0.000630      0.000000
    261 O2    s      -0.000009      0.000049      0.000127      0.000000
    262 O2    s      -0.000015      0.000094      0.000150      0.000000
    263 O2    s      -0.000139      0.000130      0.000055      0.000000
    264 O2    s      -0.000166     -0.000133      0.000153      0.000000
    265 O3    s       0.000043     -0.000779     -0.001748      0.000000
    266 O2    s      -0.000045      0.000057      0.000048      0.000000
    267 O2    s       0.000062     -0.000024      0.000089      0.000000
    268 O2    s       0.000013      0.000038      0.000047      0.000000
    269 O2    s       0.000110      0.000088      0.000299      0.000000
    270 O2    s       0.000008      0.000020     -0.000174      0.000000
    271 O2    s       0.000032     -0.000125      0.000102      0.000000
    272 O2    s       0.000223     -0.000103     -0.000518      0.000000
    273 O2    s       0.000076     -0.000083     -0.000152      0.000000
    274 O2    s      -0.000096      0.000060      0.000126      0.000000
    275 O2    s      -0.000136      0.000054     -0.000075      0.000000
    276 O2    s      -0.000299     -0.000080     -0.000385      0.000000
    277 O2    s       0.000274     -0.000077      0.000085      0.000000
    278 O2    s       0.000002     -0.000007     -0.000293      0.000000
    279 O2    s       0.000119     -0.000138     -0.000065      0.000000
    280 O2    s      -0.000109     -0.000100      0.000063      0.000000
    281 O2    s       0.000077     -0.000055      0.000190      0.000000
    282 O2    s       0.000037     -0.000028     -0.000721      0.000000
    283 O2    s       0.000129     -0.000065     -0.000108      0.000000
    284 O2    s       0.000366      0.000052     -0.000628      0.000000
    285 O2    s       0.000026     -0.000076     -0.000119      0.000000
    286 O2    s      -0.000357     -0.000159     -0.000001      0.000000
    287 O2    s       0.000016      0.000051      0.000086      0.000000
    288 O2    s      -0.000076      0.000134     -0.000162      0.000000
    289 O2    s       0.000464     -0.000484      0.000356      0.000000
    290 O2    s      -0.000218      0.000188      0.000524      0.000000
    291 O2    s       0.000045     -0.000039     -0.000064      0.000000
    292 O2    s       0.000179     -0.000192     -0.000077      0.000000
    293 O2    s      -0.000028     -0.000004      0.000020      0.000000
    294 O2    s      -0.000131     -0.000061     -0.000038      0.000000
    295 O2    s       0.000099     -0.000127      0.000246      0.000000
    296 O3    s       0.000479      0.000311      0.000043      0.000000
    297 O2    s      -0.000003      0.000035      0.000202      0.000000
    298 O2    s       0.000169     -0.000087      0.000538      0.000000
    299 O2    s      -0.000029      0.000034      0.000092      0.000000
    300 O2    s       0.000078     -0.000030      0.000397      0.000000
    301 O2    s      -0.000095     -0.000055     -0.000320      0.000000
    302 O2    s       0.000250     -0.000134      0.000008      0.000000
    303 O2    s       0.000328     -0.000043     -0.000675      0.000000
    304 O2    s      -0.000009      0.000143     -0.000012      0.000000
    305 O3    s      -0.000274      0.000547     -0.000262      0.000000
    306 O2    s       0.000242     -0.000289     -0.000115      0.000000
    307 F     s       0.000028      0.000029     -0.000115      0.000000
    308 F     s      -0.000009      0.000019      0.000104      0.000000
    309 F     s       0.000446     -0.000471      0.001014      0.000000
    310 F     s       0.000027     -0.000009     -0.000032      0.000000
    311 F     s      -0.000086      0.000591     -0.000149      0.000000
    312 F     s       0.000025     -0.000006      0.000018      0.000000
--------------------------------------------------------------------------------
  Maximum abs         0.001947      0.002567      0.003000      0.000000
--------------------------------------------------------------------------------


  Time to end of optimisation =      67.6453 seconds


  Peak dynamic memory used =      19.13 MB 


  Timing analysis for GULP :

--------------------------------------------------------------------------------
  Task / Subroutine                                          Time (Seconds)
--------------------------------------------------------------------------------
  Calculation of reciprocal space energy and derivatives          2.0379
  Calculation of real space energy and derivatives               57.7297
  Calculation of three-body energy and derivatives                6.5439
  Calculation of matrix inversion                                 0.7795
--------------------------------------------------------------------------------
  Total CPU time                                                 67.6453
--------------------------------------------------------------------------------


  Dump file written as out.res                                                 
  CIF file written as out.cif                                                 


  Job Finished at 14:21.50  2nd December   2016                               

