********************************************************************************
*                       GENERAL UTILITY LATTICE PROGRAM                        *
*                                 Julian Gale                                  *
*                      Nanochemistry Research Institute                        *
*                           Department of Chemistry                            *
*                    Curtin University, Western Australia                      *
********************************************************************************
* Version = 4.2.0 * Last modified =  20th January 2014                         *
********************************************************************************
*  optimise     - perform optimisation run                                     *
*  conp         - constant pressure calculation                                *
*  qok          - running with non charge neutral cell is OK                   *
********************************************************************************

  Job Started  at 13:14.48  2nd December   2016                               

  Number of CPUs =     1


  Total number of configurations input =   1

********************************************************************************
*  Input for Configuration =   1                                               *
********************************************************************************

  Formula = Ge3Si57O120F6                                               

  Number of irreducible atoms/shells =     312


  Total number atoms/shells =     312

  Dimensionality = 3               :  Bulk   


  Charge on solid   =  -6.000000 =>neutralising background added


  Cartesian lattice vectors (Angstroms) :

       11.988860    0.000000    0.000000
       -6.085614   10.356369    0.000000
        0.069693   -0.183969   29.444811

  Cell parameters (Angstroms/Degrees):

  a =      11.9889    alpha =  90.3773
  b =      12.0120    beta  =  89.8644
  c =      29.4455    gamma = 120.4394

  Initial cell volume =        3655.898885 Angs**3

  Temperature of configuration =  0.000     K 

  Pressure of configuration =         0.000 GPa 

  Fractional coordinates of asymmetric unit :

--------------------------------------------------------------------------------
   No.  Atomic       x           y          z         Charge      Occupancy
        Label      (Frac)      (Frac)     (Frac)        (e)         (Frac)  
--------------------------------------------------------------------------------
      1 Ge    c    0.699600    0.375700    0.033890     4.00000    1.000000    
      2 Si    c    0.625626 *  0.319006 *  0.364095 *   4.00000    1.000000    
      3 Si    c    0.678604 *  0.299197 *  0.696583 *   4.00000    1.000000    
      4 Si    c    0.296994 *  0.624271 *  0.530911 *   4.00000    1.000000    
      5 Si    c    0.378847 *  0.675813 *  0.866407 *   4.00000    1.000000    
      6 Si    c    0.319376 *  0.704752 *  0.197007 *   4.00000    1.000000    
      7 Si    c    0.368838 *  0.696699 *  0.297533 *   4.00000    1.000000    
      8 Si    c    0.323213 *  0.619762 *  0.966501 *   4.00000    1.000000    
      9 Si    c    0.306116 *  0.685205 *  0.632739 *   4.00000    1.000000    
     10 Si    c    0.623190 *  0.297953 *  0.798982 *   4.00000    1.000000    
     11 Si    c    0.679275 *  0.383344 *  0.466473 *   4.00000    1.000000    
     12 Si    c    0.687871 *  0.318187 *  0.133070 *   4.00000    1.000000    
     13 Si    c    0.529522 *  0.414734 *  0.966236 *   4.00000    1.000000    
     14 Si    c    0.581405 *  0.102138 *  0.302097 *   4.00000    1.000000    
     15 Si    c    0.891903 *  0.474258 *  0.632929 *   4.00000    1.000000    
     16 Si    c    0.469431 *  0.589774 *  0.463911 *   4.00000    1.000000    
     17 Si    c    0.408914 *  0.877231 *  0.800100 *   4.00000    1.000000    
     18 Si    c    0.107605 *  0.532285 *  0.130886 *   4.00000    1.000000    
     19 Si    c    0.410452 *  0.529684 *  0.360736 *   4.00000    1.000000    
     20 Si    c    0.105100 *  0.581590 *  0.027696 *   4.00000    1.000000    
     21 Ge    c    0.471560 *  0.904666 *  0.700769 *   4.00000    1.000000    
     22 Si    c    0.581965 *  0.469593 *  0.864428 *   4.00000    1.000000    
     23 Si    c    0.888681 *  0.421381 *  0.531801 *   4.00000    1.000000    
     24 Si    c    0.530471 *  0.110938 *  0.201396 *   4.00000    1.000000    
     25 Si    c    0.302095 *  0.399264 *  0.850048 *   4.00000    1.000000    
     26 Si    c    0.600530 *  0.903376 *  0.184249 *   4.00000    1.000000    
     27 Si    c    0.096460 *  0.701292 *  0.516691 *   4.00000    1.000000    
     28 Ge    c    0.684296 *  0.588263 *  0.355069 *   4.00000    1.000000    
     29 Si    c    0.393895 *  0.098044 *  0.678889 *   4.00000    1.000000    
     30 Si    c    0.891655 *  0.294978 *  0.012471 *   4.00000    1.000000    
     31 Si    c    0.397635 *  0.305687 *  0.480073 *   4.00000    1.000000    
     32 Si    c    0.894113 *  0.603601 *  0.144006 *   4.00000    1.000000    
     33 Si    c    0.697956 *  0.092932 *  0.813159 *   4.00000    1.000000    
     34 Si    c    0.601772 *  0.696727 *  0.980595 *   4.00000    1.000000    
     35 Si    c    0.100763 *  0.403861 *  0.646452 *   4.00000    1.000000    
     36 Si    c    0.296675 *  0.899506 *  0.314284 *   4.00000    1.000000    
     37 Si    c    0.250860 *  0.339717 *  0.950307 *   4.00000    1.000000    
     38 Si    c    0.655875 *  0.900819 *  0.284981 *   4.00000    1.000000    
     39 Si    c    0.093028 *  0.753535 *  0.617833 *   4.00000    1.000000    
     40 Si    c    0.753112 *  0.669584 *  0.451379 *   4.00000    1.000000    
     41 Si    c    0.336219 *  0.083012 *  0.781962 *   4.00000    1.000000    
     42 Si    c    0.903465 *  0.249829 *  0.115162 *   4.00000    1.000000    
     43 Si    c    0.339357 *  0.249809 *  0.377974 *   4.00000    1.000000    
     44 Si    c    0.901343 *  0.660146 *  0.041349 *   4.00000    1.000000    
     45 Si    c    0.751968 *  0.087034 *  0.710808 *   4.00000    1.000000    
     46 Si    c    0.659668 *  0.747998 *  0.879694 *   4.00000    1.000000    
     47 Si    c    0.087438 *  0.343376 *  0.545855 *   4.00000    1.000000    
     48 Si    c    0.248182 *  0.912366 *  0.213705 *   4.00000    1.000000    
     49 Si    c    0.972063 *  0.121021 *  0.964263 *   4.00000    1.000000    
     50 Si    c    0.872077 *  0.836407 *  0.300152 *   4.00000    1.000000    
     51 Si    c    0.148372 *  0.033221 *  0.630777 *   4.00000    1.000000    
     52 Si    c    0.030392 *  0.881217 *  0.466285 *   4.00000    1.000000    
     53 Si    c    0.123546 *  0.151729 *  0.797990 *   4.00000    1.000000    
     54 Si    c    0.848459 *  0.973385 *  0.132638 *   4.00000    1.000000    
     55 Si    c    0.117183 *  0.967450 *  0.364355 *   4.00000    1.000000    
     56 Si    c    0.850363 *  0.882008 *  0.031058 *   4.00000    1.000000    
     57 Si    c    0.035767 *  0.158292 *  0.696855 *   4.00000    1.000000    
     58 Si    c    0.879396 *  0.026939 *  0.863246 *   4.00000    1.000000    
     59 Si    c    0.148746 *  0.126619 *  0.530522 *   4.00000    1.000000    
     60 Si    c    0.968408 *  0.852136 *  0.197973 *   4.00000    1.000000    
     61 O2    c    0.926676 *  0.003197 *  0.998380 *   0.87073    1.000000    
     62 O2    c    0.998078 *  0.927437 *  0.331044 *   0.87073    1.000000    
     63 O2    c    0.067193 *  0.072234 *  0.663478 *   0.87073    1.000000    
     64 O2    c    0.076084 *  0.008476 *  0.496177 *   0.87073    1.000000    
     65 O2    c    0.998767 *  0.068882 *  0.829275 *   0.87073    1.000000    
     66 O2    c    0.930422 *  0.936139 *  0.165865 *   0.87073    1.000000    
     67 O2    c    0.325176 *  0.572260 *  0.330011 *   0.87073    1.000000    
     68 O3    c    0.424356 *  0.768546 *  0.664332 *   1.33043    1.000000    
     69 O2    c    0.236114 *  0.657916 *  0.998022 *   0.87073    1.000000    
     70 O2    c    0.658175 *  0.419537 *  0.831666 *   0.87073    1.000000    
     71 O2    c    0.580430 *  0.240001 *  0.171588 *   0.87073    1.000000    
     72 O2    c    0.760984 *  0.344707 *  0.499685 *   0.87073    1.000000    
     73 O3    c    0.568277 *  0.334411 *  0.997980 *   1.33043    1.000000    
     74 O2    c    0.766076 *  0.424519 *  0.665769 *   0.87073    1.000000    
     75 O2    c    0.658974 *  0.222775 *  0.336559 *   0.87073    1.000000    
     76 O2    c    0.418529 *  0.662436 *  0.496977 *   0.87073    1.000000    
     77 O2    c    0.233386 *  0.583377 *  0.162911 *   0.87073    1.000000    
     78 O2    c    0.337535 *  0.762572 *  0.836918 *   0.87073    1.000000    
     79 O2    c    0.126154 *  0.211661 *  0.970336 *   0.87073    1.000000    
     80 O2    c    0.778099 *  0.897382 *  0.305762 *   0.87073    1.000000    
     81 O2    c    0.093089 *  0.880565 *  0.637426 *   0.87073    1.000000    
     82 O2    c    0.877408 *  0.790743 *  0.475927 *   0.87073    1.000000    
     83 O2    c    0.214709 *  0.089202 *  0.803206 *   0.87073    1.000000    
     84 O2    c    0.907970 *  0.127954 *  0.136307 *   0.87073    1.000000    
     85 O2    c    0.212264 *  0.122162 *  0.359227 *   0.87073    1.000000    
     86 O2    c    0.919444 *  0.797851 *  0.025089 *   0.87073    1.000000    
     87 O2    c    0.883356 *  0.098940 *  0.691980 *   0.87073    1.000000    
     88 O2    c    0.786561 *  0.872606 *  0.858622 *   0.87073    1.000000    
     89 O2    c    0.085451 *  0.216352 *  0.525318 *   0.87073    1.000000    
     90 O2    c    0.123441 *  0.914435 *  0.193447 *   0.87073    1.000000    
     91 O2    c    0.925453 *  0.857966 *  0.248536 *   0.87073    1.000000    
     92 O2    c    0.130942 *  0.067617 *  0.580036 *   0.87073    1.000000    
     93 O2    c    0.935071 *  0.065899 *  0.913531 *   0.87073    1.000000    
     94 O2    c    0.075828 *  0.142065 *  0.746940 *   0.87073    1.000000    
     95 O2    c    0.861693 *  0.933132 *  0.082079 *   0.87073    1.000000    
     96 O2    c    0.064844 *  0.928799 *  0.415048 *   0.87073    1.000000    
     97 O2    c    0.903275 *  0.203162 *  0.974484 *   0.87073    1.000000    
     98 O3    c    0.797204 *  0.690632 *  0.312457 *   1.33043    1.000000    
     99 O2    c    0.300497 *  0.114931 *  0.642965 *   0.87073    1.000000    
    100 O2    c    0.101072 *  0.801116 *  0.478665 *   0.87073    1.000000    
    101 O2    c    0.204177 *  0.302505 *  0.811271 *   0.87073    1.000000    
    102 O2    c    0.696889 *  0.902618 *  0.145416 *   0.87073    1.000000    
    103 O2    c    0.199752 *  0.898294 *  0.352991 *   0.87073    1.000000    
    104 O2    c    0.698115 *  0.795256 *  0.019269 *   0.87073    1.000000    
    105 O2    c    0.107324 *  0.309695 *  0.684657 *   0.87073    1.000000    
    106 O2    c    0.796075 *  0.095200 *  0.851515 *   0.87073    1.000000    
    107 O2    c    0.301855 *  0.212593 *  0.519238 *   0.87073    1.000000    
    108 O2    c    0.898019 *  0.702208 *  0.182468 *   0.87073    1.000000    
    109 O2    c    0.315271 *  0.642574 *  0.246420 *   0.87073    1.000000    
    110 O2    c    0.354836 *  0.682427 *  0.580714 *   0.87073    1.000000    
    111 O2    c    0.321038 *  0.674615 *  0.916475 *   0.87073    1.000000    
    112 O2    c    0.677131 *  0.347769 *  0.748226 *   0.87073    1.000000    
    113 O3    c    0.616079 *  0.304371 *  0.085888 *   1.33043    1.000000    
    114 O2    c    0.677782 *  0.327365 *  0.416149 *   0.87073    1.000000    
    115 O2    c    0.372181 *  0.328395 *  0.966882 *   0.87073    1.000000    
    116 O2    c    0.667985 *  0.033749 *  0.303808 *   0.87073    1.000000    
    117 O2    c    0.959197 *  0.630347 *  0.635956 *   0.87073    1.000000    
    118 O2    c    0.625874 *  0.676519 *  0.466820 *   0.87073    1.000000    
    119 O2    c    0.325484 *  0.951532 *  0.800413 *   0.87073    1.000000    
    120 O2    c    0.035686 *  0.376351 *  0.132209 *   0.87073    1.000000    
    121 O2    c    0.329557 *  0.371840 *  0.360204 *   0.87073    1.000000    
    122 O2    c    0.034428 *  0.665619 *  0.024776 *   0.87073    1.000000    
    123 O3    c    0.638556 *  0.955884 *  0.691335 *   1.33043    1.000000    
    124 O2    c    0.668556 *  0.625746 *  0.860365 *   0.87073    1.000000    
    125 O2    c    0.955184 *  0.332591 *  0.526923 *   0.87073    1.000000    
    126 O2    c    0.374097 *  0.043779 *  0.196477 *   0.87073    1.000000    
    127 O3    c    0.757448 *  0.285103 *  0.002900 *   1.33043    1.000000    
    128 O3    c    0.701261 *  0.454403 *  0.339409 *   1.33043    1.000000    
    129 O2    c    0.533618 *  0.231155 *  0.675911 *   0.87073    1.000000    
    130 O2    c    0.227735 *  0.696987 *  0.508339 *   0.87073    1.000000    
    131 O2    c    0.305567 *  0.534262 *  0.841900 *   0.87073    1.000000    
    132 O2    c    0.463055 *  0.772469 *  0.174732 *   0.87073    1.000000    
    133 O2    c    0.293528 *  0.764191 *  0.319775 *   0.87073    1.000000    
    134 O2    c    0.467530 *  0.696711 *  0.988295 *   0.87073    1.000000    
    135 O2    c    0.234125 *  0.538167 *  0.652646 *   0.87073    1.000000    
    136 O2    c    0.695706 *  0.226106 *  0.819145 *   0.87073    1.000000    
    137 O2    c    0.532840 *  0.309416 *  0.486398 *   0.87073    1.000000    
    138 O2    c    0.761557 *  0.467989 *  0.151321 *   0.87073    1.000000    
    139 O3    c    0.773520 *  0.546863 *  0.020133 *   1.33043    1.000000    
    140 O2    c    0.468082 *  0.253560 *  0.360181 *   0.87073    1.000000    
    141 O2    c    0.743870 *  0.210719 *  0.692860 *   0.87073    1.000000    
    142 O2    c    0.216121 *  0.467579 *  0.526380 *   0.87073    1.000000    
    143 O2    c    0.535684 *  0.752629 *  0.860837 *   0.87073    1.000000    
    144 O2    c    0.244186 *  0.785012 *  0.193203 *   0.87073    1.000000    
    145 O2    c    0.524730 *  0.777572 *  0.303165 *   0.87073    1.000000    
    146 O2    c    0.250167 *  0.463941 *  0.971448 *   0.87073    1.000000    
    147 O2    c    0.216252 *  0.751356 *  0.637479 *   0.87073    1.000000    
    148 O2    c    0.468488 *  0.205747 *  0.799907 *   0.87073    1.000000    
    149 O2    c    0.744404 *  0.538197 *  0.469862 *   0.87073    1.000000    
    150 O2    c    0.780476 *  0.254670 *  0.134220 *   0.87073    1.000000    
    151 O2    c    0.228233 *  0.324926 *  0.895924 *   0.87073    1.000000    
    152 O2    c    0.672576 *  0.901583 *  0.230353 *   0.87073    1.000000    
    153 O2    c    0.094931 *  0.771786 *  0.563455 *   0.87073    1.000000    
    154 O3    c    0.784652 *  0.695575 *  0.398866 *   1.33043    1.000000    
    155 O2    c    0.322633 *  0.085425 *  0.727706 *   0.87073    1.000000    
    156 O2    c    0.900334 *  0.233473 *  0.060792 *   0.87073    1.000000    
    157 O2    c    0.329533 *  0.239559 *  0.432597 *   0.87073    1.000000    
    158 O2    c    0.898360 *  0.671022 *  0.096611 *   0.87073    1.000000    
    159 O2    c    0.764347 *  0.090115 *  0.765938 *   0.87073    1.000000    
    160 O2    c    0.677582 *  0.766503 *  0.934119 *   0.87073    1.000000    
    161 O2    c    0.089947 *  0.325234 *  0.600066 *   0.87073    1.000000    
    162 O2    c    0.229132 *  0.909182 *  0.268067 *   0.87073    1.000000    
    163 O2    c    0.583084 *  0.556488 *  0.989150 *   0.87073    1.000000    
    164 O2    c    0.438630 *  0.020795 *  0.324538 *   0.87073    1.000000    
    165 O2    c    0.974576 *  0.416459 *  0.656230 *   0.87073    1.000000    
    166 O2    c    0.418938 *  0.448052 *  0.484874 *   0.87073    1.000000    
    167 O2    c    0.555120 *  0.971661 *  0.820012 *   0.87073    1.000000    
    168 O2    c    0.015910 *  0.582993 *  0.150759 *   0.87073    1.000000    
    169 O3    c    0.546181 *  0.590542 *  0.335364 *   1.33043    1.000000    
    170 O2    c    0.016333 *  0.439449 *  0.006047 *   0.87073    1.000000    
    171 O3    c    0.398653 *  0.973306 *  0.665736 *   1.33043    1.000000    
    172 O2    c    0.439928 *  0.408489 *  0.841301 *   0.87073    1.000000    
    173 O2    c    0.968247 *  0.562231 *  0.507831 *   0.87073    1.000000    
    174 O2    c    0.591158 *  0.031577 *  0.176863 *   0.87073    1.000000    
    175 O2    c    0.583289 *  0.161622 *  0.252468 *   0.87073    1.000000    
    176 O2    c    0.833255 *  0.417847 *  0.582640 *   0.87073    1.000000    
    177 O2    c    0.584761 *  0.419168 *  0.914961 *   0.87073    1.000000    
    178 O3    c    0.401248 *  0.814100 *  0.751823 *   1.33043    1.000000    
    179 O2    c    0.150900 *  0.579942 *  0.079372 *   0.87073    1.000000    
    180 O2    c    0.417005 *  0.583681 *  0.412668 *   0.87073    1.000000    
    181 F     c    0.448551 *  0.902673 *  0.247933 *   0.56000    1.000000    
    182 F     c    0.088388 *  0.544553 *  0.580002 *   0.56000    1.000000    
    183 F     c    0.450790 *  0.548619 *  0.913500 *   0.56000    1.000000    
    184 F     c    0.527827 *  0.052956 *  0.737852 *   0.56000    1.000000    
    185 F     c    0.854502 *  0.436310 *  0.070131 *   0.56000    1.000000    
    186 F     c    0.573951 *  0.482234 *  0.403561 *   0.56000    1.000000    
    187 O2    s    0.923144 *  0.002857 *  0.998200 *  -2.87073    1.000000    
    188 O2    s    0.998487 *  0.922485 *  0.331613 *  -2.87073    1.000000    
    189 O2    s    0.072920 *  0.077492 *  0.663514 *  -2.87073    1.000000    
    190 O2    s    0.079370 *  0.007755 *  0.496770 *  -2.87073    1.000000    
    191 O2    s    0.999318 *  0.073381 *  0.829586 *  -2.87073    1.000000    
    192 O2    s    0.925521 *  0.931218 *  0.165670 *  -2.87073    1.000000    
    193 O2    s    0.337964 *  0.580498 *  0.329779 *  -2.87073    1.000000    
    194 O3    s    0.414362 *  0.768471 *  0.663281 *  -3.33043    1.000000    
    195 O2    s    0.231292 *  0.645987 *  0.997889 *  -2.87073    1.000000    
    196 O2    s    0.646881 *  0.411488 *  0.831416 *  -2.87073    1.000000    
    197 O2    s    0.586462 *  0.234610 *  0.170669 *  -2.87073    1.000000    
    198 O2    s    0.765191 *  0.356563 *  0.499398 *  -2.87073    1.000000    
    199 O3    s    0.574135 *  0.345998 *  0.997377 *  -3.33043    1.000000    
    200 O2    s    0.769466 *  0.416245 *  0.665747 *  -2.87073    1.000000    
    201 O2    s    0.647310 *  0.220249 *  0.335873 *  -2.87073    1.000000    
    202 O2    s    0.411654 *  0.650926 *  0.496913 *  -2.87073    1.000000    
    203 O2    s    0.228596 *  0.590103 *  0.162936 *  -2.87073    1.000000    
    204 O2    s    0.349176 *  0.765434 *  0.836174 *  -2.87073    1.000000    
    205 O2    s    0.122493 *  0.215204 *  0.967610 *  -2.87073    1.000000    
    206 O2    s    0.774277 *  0.891644 *  0.302983 *  -2.87073    1.000000    
    207 O2    s    0.098945 *  0.883752 *  0.634745 *  -2.87073    1.000000    
    208 O2    s    0.880978 *  0.788045 *  0.472493 *  -2.87073    1.000000    
    209 O2    s    0.217791 *  0.095116 *  0.800468 *  -2.87073    1.000000    
    210 O2    s    0.901264 *  0.124488 *  0.133753 *  -2.87073    1.000000    
    211 O2    s    0.215999 *  0.119751 *  0.361730 *  -2.87073    1.000000    
    212 O2    s    0.910160 *  0.793124 *  0.027340 *  -2.87073    1.000000    
    213 O2    s    0.886243 *  0.104442 *  0.694576 *  -2.87073    1.000000    
    214 O2    s    0.783440 *  0.876293 *  0.861256 *  -2.87073    1.000000    
    215 O2    s    0.092489 *  0.219690 *  0.527960 *  -2.87073    1.000000    
    216 O2    s    0.120111 *  0.907709 *  0.195991 *  -2.87073    1.000000    
    217 O2    s    0.924827 *  0.855029 *  0.248064 *  -2.87073    1.000000    
    218 O2    s    0.134972 *  0.070499 *  0.580115 *  -2.87073    1.000000    
    219 O2    s    0.932854 *  0.067598 *  0.913448 *  -2.87073    1.000000    
    220 O2    s    0.076775 *  0.145023 *  0.747109 *  -2.87073    1.000000    
    221 O2    s    0.858931 *  0.932014 *  0.082114 *  -2.87073    1.000000    
    222 O2    s    0.066878 *  0.927805 *  0.415134 *  -2.87073    1.000000    
    223 O2    s    0.909687 *  0.203586 *  0.977280 *  -2.87073    1.000000    
    224 O3    s    0.798332 *  0.700463 *  0.313830 *  -3.33043    1.000000    
    225 O2    s    0.293862 *  0.104674 *  0.645288 *  -2.87073    1.000000    
    226 O2    s    0.093145 *  0.799429 *  0.481236 *  -2.87073    1.000000    
    227 O2    s    0.205495 *  0.296121 *  0.813822 *  -2.87073    1.000000    
    228 O2    s    0.703183 *  0.910198 *  0.148013 *  -2.87073    1.000000    
    229 O2    s    0.201071 *  0.905679 *  0.350167 *  -2.87073    1.000000    
    230 O2    s    0.704278 *  0.794301 *  0.016537 *  -2.87073    1.000000    
    231 O2    s    0.099055 *  0.303005 *  0.682126 *  -2.87073    1.000000    
    232 O2    s    0.794595 *  0.087856 *  0.848785 *  -2.87073    1.000000    
    233 O2    s    0.296126 *  0.213567 *  0.516281 *  -2.87073    1.000000    
    234 O2    s    0.904977 *  0.707580 *  0.180037 *  -2.87073    1.000000    
    235 O2    s    0.321077 *  0.654389 *  0.246509 *  -2.87073    1.000000    
    236 O2    s    0.344001 *  0.676570 *  0.580506 *  -2.87073    1.000000    
    237 O2    s    0.327286 *  0.668935 *  0.916493 *  -2.87073    1.000000    
    238 O2    s    0.671651 *  0.337641 *  0.748272 *  -2.87073    1.000000    
    239 O3    s    0.628884 *  0.310562 *  0.087064 *  -3.33043    1.000000    
    240 O2    s    0.672803 *  0.332491 *  0.416291 *  -2.87073    1.000000    
    241 O2    s    0.374833 *  0.338473 *  0.964952 *  -2.87073    1.000000    
    242 O2    s    0.657557 *  0.027053 *  0.301642 *  -2.87073    1.000000    
    243 O2    s    0.965969 *  0.626877 *  0.633774 *  -2.87073    1.000000    
    244 O2    s    0.622436 *  0.666824 *  0.464944 *  -2.87073    1.000000    
    245 O2    s    0.334691 *  0.958231 *  0.798419 *  -2.87073    1.000000    
    246 O2    s    0.029456 *  0.379525 *  0.130310 *  -2.87073    1.000000    
    247 O2    s    0.338682 *  0.374802 *  0.362123 *  -2.87073    1.000000    
    248 O2    s    0.028642 *  0.656138 *  0.026721 *  -2.87073    1.000000    
    249 O3    s    0.639435 *  0.966548 *  0.694111 *  -3.33043    1.000000    
    250 O2    s    0.658660 *  0.622238 *  0.862793 *  -2.87073    1.000000    
    251 O2    s    0.962174 *  0.342833 *  0.529413 *  -2.87073    1.000000    
    252 O2    s    0.376699 *  0.036673 *  0.198811 *  -2.87073    1.000000    
    253 O3    s    0.767830 *  0.292101 *  0.006032 *  -3.33043    1.000000    
    254 O3    s    0.692187 *  0.449825 *  0.343127 *  -3.33043    1.000000    
    255 O2    s    0.534667 *  0.224799 *  0.678404 *  -2.87073    1.000000    
    256 O2    s    0.221019 *  0.689920 *  0.511577 *  -2.87073    1.000000    
    257 O2    s    0.312691 *  0.534458 *  0.845280 *  -2.87073    1.000000    
    258 O2    s    0.462462 *  0.779058 *  0.178049 *  -2.87073    1.000000    
    259 O2    s    0.301622 *  0.771554 *  0.316835 *  -2.87073    1.000000    
    260 O2    s    0.466448 *  0.688763 *  0.985210 *  -2.87073    1.000000    
    261 O2    s    0.226608 *  0.538005 *  0.649938 *  -2.87073    1.000000    
    262 O2    s    0.688377 *  0.219799 *  0.816425 *  -2.87073    1.000000    
    263 O2    s    0.533329 *  0.316629 *  0.483665 *  -2.87073    1.000000    
    264 O2    s    0.768395 *  0.467702 *  0.148705 *  -2.87073    1.000000    
    265 O3    s    0.782884 *  0.548440 *  0.023259 *  -3.33043    1.000000    
    266 O2    s    0.469527 *  0.259725 *  0.362479 *  -2.87073    1.000000    
    267 O2    s    0.737473 *  0.207500 *  0.695078 *  -2.87073    1.000000    
    268 O2    s    0.210604 *  0.470411 *  0.528913 *  -2.87073    1.000000    
    269 O2    s    0.532911 *  0.744166 *  0.863402 *  -2.87073    1.000000    
    270 O2    s    0.252471 *  0.790177 *  0.195751 *  -2.87073    1.000000    
    271 O2    s    0.522381 *  0.782478 *  0.300618 *  -2.87073    1.000000    
    272 O2    s    0.257920 *  0.466990 *  0.968708 *  -2.87073    1.000000    
    273 O2    s    0.211225 *  0.744815 *  0.634831 *  -2.87073    1.000000    
    274 O2    s    0.470994 *  0.202405 *  0.797887 *  -2.87073    1.000000    
    275 O2    s    0.738194 *  0.535217 *  0.467578 *  -2.87073    1.000000    
    276 O2    s    0.784831 *  0.260599 *  0.131989 *  -2.87073    1.000000    
    277 O2    s    0.238362 *  0.334323 *  0.896806 *  -2.87073    1.000000    
    278 O2    s    0.663166 *  0.901652 *  0.231189 *  -2.87073    1.000000    
    279 O2    s    0.094891 *  0.762429 *  0.564269 *  -2.87073    1.000000    
    280 O3    s    0.774434 *  0.685471 *  0.401295 *  -3.33043    1.000000    
    281 O2    s    0.331101 *  0.086341 *  0.728771 *  -2.87073    1.000000    
    282 O2    s    0.899736 *  0.241284 *  0.061835 *  -2.87073    1.000000    
    283 O2    s    0.337911 *  0.247780 *  0.431944 *  -2.87073    1.000000    
    284 O2    s    0.898077 *  0.662473 *  0.096259 *  -2.87073    1.000000    
    285 O2    s    0.755920 *  0.090077 *  0.765443 *  -2.87073    1.000000    
    286 O2    s    0.667873 *  0.757354 *  0.933145 *  -2.87073    1.000000    
    287 O2    s    0.090781 *  0.335278 *  0.599100 *  -2.87073    1.000000    
    288 O2    s    0.238208 *  0.908507 *  0.267115 *  -2.87073    1.000000    
    289 O2    s    0.579353 *  0.557369 *  0.985829 *  -2.87073    1.000000    
    290 O2    s    0.438137 *  0.015975 *  0.321070 *  -2.87073    1.000000    
    291 O2    s    0.979448 *  0.421253 *  0.652794 *  -2.87073    1.000000    
    292 O2    s    0.422043 *  0.447251 *  0.482127 *  -2.87073    1.000000    
    293 O2    s    0.556420 *  0.975850 *  0.817256 *  -2.87073    1.000000    
    294 O2    s    0.012644 *  0.579599 *  0.147904 *  -2.87073    1.000000    
    295 O3    s    0.542409 *  0.583931 *  0.339407 *  -3.33043    1.000000    
    296 O2    s    0.012959 *  0.439987 *  0.009013 *  -2.87073    1.000000    
    297 O3    s    0.403203 *  0.982423 *  0.669481 *  -3.33043    1.000000    
    298 O2    s    0.440195 *  0.413974 *  0.844633 *  -2.87073    1.000000    
    299 O2    s    0.973813 *  0.562507 *  0.511238 *  -2.87073    1.000000    
    300 O2    s    0.585771 *  0.025897 *  0.180165 *  -2.87073    1.000000    
    301 O2    s    0.577504 *  0.150087 *  0.252282 *  -2.87073    1.000000    
    302 O2    s    0.845031 *  0.424013 *  0.582558 *  -2.87073    1.000000    
    303 O2    s    0.579007 *  0.424131 *  0.914687 *  -2.87073    1.000000    
    304 O3    s    0.406754 *  0.826756 *  0.753410 *  -3.33043    1.000000    
    305 O2    s    0.141481 *  0.574994 *  0.079517 *  -2.87073    1.000000    
    306 O2    s    0.421881 *  0.579046 *  0.412909 *  -2.87073    1.000000    
    307 F     s    0.448303 *  0.902465 *  0.247783 *  -1.56000    1.000000    
    308 F     s    0.087571 *  0.543849 *  0.579781 *  -1.56000    1.000000    
    309 F     s    0.450414 *  0.548973 *  0.913270 *  -1.56000    1.000000    
    310 F     s    0.523951 *  0.043228 *  0.735402 *  -1.56000    1.000000    
    311 F     s    0.845399 *  0.432744 *  0.068077 *  -1.56000    1.000000    
    312 F     s    0.580520 *  0.488535 *  0.400753 *  -1.56000    1.000000    
--------------------------------------------------------------------------------



********************************************************************************
*  General input information                                                   *
********************************************************************************

  Species output for all configurations : 

--------------------------------------------------------------------------------
  Species    Type    Atomic    Atomic    Charge       Radii (Angs)     Library
                     Number     Mass       (e)     Cova   Ionic  VDW   Symbol
--------------------------------------------------------------------------------
    Si       Core       14      28.09   4.000000   1.200  0.000  2.100          
    O1       Core        8      16.00   1.733957   0.730  0.000  1.360          
    O1       Shell       8       0.00  -3.733957   0.730  0.000  1.360          
    O2       Core        8      16.00   0.870733   0.730  0.000  1.360          
    O2       Shell       8       0.00  -2.870733   0.730  0.000  1.360          
    O3       Core        8      16.00   1.330431   0.730  0.000  1.360          
    O3       Shell       8       0.00  -3.330431   0.730  0.000  1.360          
    F        Core        9      19.00   0.560000   0.710  0.000  1.300          
    F        Shell       9       0.00  -1.560000   0.710  0.000  1.300          
    Ge       Core       32      72.61   4.000000   1.170  0.000  1.750          
--------------------------------------------------------------------------------


  Lattice summation method               =    Ewald          (3-D)
                                         =    Parry          (2-D)
                                         =    Saunders et al (1-D)
  Accuracy factor for lattice sums       =   12.000


  Time limit = Infinity

  Maximum range for interatomic potentials =        16.000000 Angstroms

  Taper potentials to zero over   1.0000 Angstroms using polynomial

  General interatomic potentials :

--------------------------------------------------------------------------------
Atom  Types   Potential         A         B         C         D     Cutoffs(Ang)
  1     2                                                            Min    Max 
--------------------------------------------------------------------------------
Si   c O1   s Buckingham    0.132E+04 0.318      10.1      0.00     0.000 16.000
Si   c O2   s Buckingham    0.132E+04 0.318      10.1      0.00     0.000 16.000
Si   c O3   s Buckingham    0.132E+04 0.318      10.1      0.00     0.000 16.000
Ge   c O1   s Buckingham    0.150E+04 0.326      16.8      0.00     0.000 16.000
Ge   c O2   s Buckingham    0.150E+04 0.326      16.8      0.00     0.000 16.000
Ge   c O3   s Buckingham    0.150E+04 0.326      16.8      0.00     0.000 16.000
O1   s O1   s Buckingham    0.228E+05 0.149      10.9      0.00     0.000 16.000
O1   s O2   s Buckingham    0.228E+05 0.149      10.9      0.00     0.000 16.000
O1   s O3   s Buckingham    0.228E+05 0.149      10.9      0.00     0.000 16.000
O2   s O2   s Buckingham    0.228E+05 0.149      10.9      0.00     0.000 16.000
O2   s O3   s Buckingham    0.228E+05 0.149      10.9      0.00     0.000 16.000
O3   s O3   s Buckingham    0.228E+05 0.149      10.9      0.00     0.000 16.000
Si   c F    s Buckingham     977.     0.282      0.00      0.00     0.000 16.000
Ge   c F    s Buckingham     681.     0.320      0.00      0.00     0.000 16.000
F    s F    s Buckingham     540.     0.262      0.00      0.00     0.000 16.000
O1   s F    s Buckingham    0.168E+04 0.268      0.00      0.00     0.000 16.000
O2   s F    s Buckingham    0.168E+04 0.268      0.00      0.00     0.000 16.000
O3   s F    s Buckingham    0.168E+04 0.268      0.00      0.00     0.000 16.000
O2   c O2   s Spring (c-s)   76.0      0.00      0.00      0.00     0.000  0.800
O3   c O3   s Spring (c-s)   128.      0.00      0.00      0.00     0.000  0.800
O1   c O1   s Spring (c-s)   180.      0.00      0.00      0.00     0.000  0.800
F    c F    s Spring (c-s)   33.5      0.00      0.00      0.00     0.000  0.800
--------------------------------------------------------------------------------

  General Three-body potentials :

  Harmonic form:

--------------------------------------------------------------------------------
Atom    Atom    Atom           Force Constants            Theta     Cutoffs  
  1       2       3     (eVrad**-2/eVrad**-3/eVrad**-4)   (deg)  1-2  1-3  2-3
--------------------------------------------------------------------------------
Si    c O1    s O1    s  1.261        0.0000    0.0000   109.470 0.00 0.00 0.00
                                                                 1.90 1.90 3.50
Si    c O1    s O2    s  1.261        0.0000    0.0000   109.470 0.00 0.00 0.00
                                                                 1.90 1.90 3.50
Si    c O2    s O2    s  1.261        0.0000    0.0000   109.470 0.00 0.00 0.00
                                                                 1.90 1.90 3.50
--------------------------------------------------------------------------------

********************************************************************************
*  Output for configuration   1                                                *
********************************************************************************


  Components of energy : 

--------------------------------------------------------------------------------
  Interatomic potentials     =        2066.10246806 eV
  Three-body potentials      =           0.47483537 eV
  Monopole - monopole (real) =       -6615.84594232 eV
  Monopole - monopole (recip)=       -3171.61049752 eV
  Monopole - monopole (total)=       -9787.45643984 eV
  Neutralising energy        =          -6.46056579 eV
--------------------------------------------------------------------------------
  Total lattice energy       =       -7727.33970220 eV
--------------------------------------------------------------------------------
  Total lattice energy       =         -745570.1581 kJ/(mole unit cells)
--------------------------------------------------------------------------------


  Number of variables =      939

  Maximum number of calculations  =          1000
  Maximum Hessian update interval =            10
  Maximum step size               =   1.000000000
  Maximum parameter tolerance     =   0.000010000
  Maximum function  tolerance     =   0.000010000
  Maximum gradient  tolerance     =   0.001000000
  Maximum gradient  component     =   0.010000000

  Symmetry not applied to optimisation

  Cell parameters to be optimised using strains

  Newton-Raphson optimiser to be used

  BFGS hessian update to be used

  Dumpfile to be written after every cycle

  Start of bulk optimisation :

  Cycle:      0 Energy:     -7727.339702  Gnorm:      0.012429  CPU:    1.053
  ** Hessian calculated **
  Cycle:      1 Energy:     -7727.522269  Gnorm:      0.012973  CPU:    3.286
  Cycle:      2 Energy:     -7727.524781  Gnorm:      0.006921  CPU:    4.666
  Cycle:      3 Energy:     -7727.533521  Gnorm:      0.001022  CPU:    6.046
  Cycle:      4 Energy:     -7727.533633  Gnorm:      0.000347  CPU:    7.426
  Cycle:      5 Energy:     -7727.533637  Gnorm:      0.000050  CPU:    8.805


  **** Optimisation achieved ****


  Final energy =   -7727.53363684 eV
  Final Gnorm  =       0.00001393

  Components of energy : 

--------------------------------------------------------------------------------
  Interatomic potentials     =        2066.99684173 eV
  Three-body potentials      =           0.49215462 eV
  Monopole - monopole (real) =       -6616.47607822 eV
  Monopole - monopole (recip)=       -3172.08501851 eV
  Monopole - monopole (total)=       -9788.56109672 eV
  Neutralising energy        =          -6.46153647 eV
--------------------------------------------------------------------------------
  Total lattice energy       =       -7727.53363684 eV
--------------------------------------------------------------------------------
  Total lattice energy       =         -745588.8698 kJ/(mole unit cells)
--------------------------------------------------------------------------------

  Final fractional coordinates of atoms :

--------------------------------------------------------------------------------
   No.  Atomic        x           y          z          Radius
        Label       (Frac)      (Frac)     (Frac)       (Angs) 
--------------------------------------------------------------------------------
     1  Ge    c     0.699600    0.375700    0.033890    0.000000
     2  Si    c     0.608567    0.307785    0.362236    0.000000
     3  Si    c     0.669775    0.298513    0.695186    0.000000
     4  Si    c     0.282828    0.623796    0.526521    0.000000
     5  Si    c     0.366167    0.664874    0.863167    0.000000
     6  Si    c     0.296831    0.692786    0.194546    0.000000
     7  Si    c     0.341699    0.680849    0.294843    0.000000
     8  Si    c     0.309094    0.610372    0.963602    0.000000
     9  Si    c     0.298330    0.686980    0.628382    0.000000
    10  Si    c     0.608683    0.286670    0.797684    0.000000
    11  Si    c     0.664866    0.381002    0.464231    0.000000
    12  Si    c     0.668389    0.306975    0.132276    0.000000
    13  Si    c     0.520538    0.406947    0.966741    0.000000
    14  Si    c     0.556139    0.085518    0.301442    0.000000
    15  Si    c     0.883701    0.476909    0.631848    0.000000
    16  Si    c     0.453079    0.585646    0.459331    0.000000
    17  Si    c     0.395733    0.865251    0.795617    0.000000
    18  Si    c     0.087930    0.520649    0.128546    0.000000
    19  Si    c     0.391713    0.518154    0.356454    0.000000
    20  Si    c     0.091301    0.573684    0.025337    0.000000
    21  Ge    c     0.464507    0.903850    0.696438    0.000000
    22  Si    c     0.570234    0.458737    0.864035    0.000000
    23  Si    c     0.874861    0.422419    0.530354    0.000000
    24  Si    c     0.508179    0.097771    0.200249    0.000000
    25  Si    c     0.291075    0.388241    0.848801    0.000000
    26  Si    c     0.578247    0.890062    0.182384    0.000000
    27  Si    c     0.082424    0.701653    0.514326    0.000000
    28  Ge    c     0.665590    0.575896    0.352078    0.000000
    29  Si    c     0.386697    0.097561    0.675239    0.000000
    30  Si    c     0.879995    0.285504    0.009664    0.000000
    31  Si    c     0.382145    0.302528    0.476899    0.000000
    32  Si    c     0.875122    0.592866    0.142671    0.000000
    33  Si    c     0.683936    0.081046    0.810128    0.000000
    34  Si    c     0.587255    0.688236    0.978353    0.000000
    35  Si    c     0.093558    0.406761    0.643987    0.000000
    36  Si    c     0.270270    0.882971    0.312256    0.000000
    37  Si    c     0.241188    0.331348    0.949318    0.000000
    38  Si    c     0.629459    0.883120    0.283502    0.000000
    39  Si    c     0.084674    0.755432    0.615623    0.000000
    40  Si    c     0.737671    0.666570    0.447603    0.000000
    41  Si    c     0.323135    0.072103    0.778414    0.000000
    42  Si    c     0.884338    0.238785    0.113105    0.000000
    43  Si    c     0.321669    0.239312    0.375231    0.000000
    44  Si    c     0.891737    0.658378    0.039874    0.000000
    45  Si    c     0.744076    0.086136    0.707626    0.000000
    46  Si    c     0.646795    0.737204    0.877397    0.000000
    47  Si    c     0.074143    0.343953    0.543272    0.000000
    48  Si    c     0.225554    0.899363    0.211456    0.000000
    49  Si    c     0.961384    0.113172    0.961160    0.000000
    50  Si    c     0.850464    0.824524    0.298116    0.000000
    51  Si    c     0.141199    0.035264    0.628131    0.000000
    52  Si    c     0.012997    0.879928    0.464180    0.000000
    53  Si    c     0.111668    0.142605    0.795328    0.000000
    54  Si    c     0.827537    0.962754    0.130607    0.000000
    55  Si    c     0.095926    0.958425    0.361573    0.000000
    56  Si    c     0.834969    0.875817    0.028789    0.000000
    57  Si    c     0.029552    0.161430    0.694280    0.000000
    58  Si    c     0.866516    0.015878    0.860363    0.000000
    59  Si    c     0.133644    0.125775    0.528008    0.000000
    60  Si    c     0.946929    0.840945    0.195944    0.000000
    61  O2    c     0.911808    0.995378    0.995537    0.000000
    62  O2    c     0.976052    0.919447    0.328645    0.000000
    63  O2    c     0.062194    0.076220    0.661082    0.000000
    64  O2    c     0.058003    0.007094    0.494042    0.000000
    65  O2    c     0.984677    0.057591    0.825633    0.000000
    66  O2    c     0.908970    0.923766    0.163252    0.000000
    67  O2    c     0.300979    0.555399    0.326508    0.000000
    68  O3    c     0.418835    0.770680    0.658906    0.000000
    69  O2    c     0.221372    0.648491    0.995047    0.000000
    70  O2    c     0.644527    0.405813    0.831547    0.000000
    71  O2    c     0.560757    0.228201    0.170823    0.000000
    72  O2    c     0.746376    0.345139    0.498708    0.000000
    73  O3    c     0.563697    0.331939    0.998526    0.000000
    74  O2    c     0.759085    0.426439    0.665569    0.000000
    75  O2    c     0.636044    0.205540    0.335917    0.000000
    76  O2    c     0.402008    0.659945    0.491535    0.000000
    77  O2    c     0.213145    0.571365    0.160510    0.000000
    78  O2    c     0.324622    0.749341    0.832220    0.000000
    79  O2    c     0.114917    0.202504    0.968693    0.000000
    80  O2    c     0.750804    0.878688    0.304498    0.000000
    81  O2    c     0.086386    0.882997    0.635422    0.000000
    82  O2    c     0.859608    0.788155    0.472835    0.000000
    83  O2    c     0.199687    0.076210    0.799159    0.000000
    84  O2    c     0.887155    0.116856    0.134932    0.000000
    85  O2    c     0.195886    0.111940    0.355790    0.000000
    86  O2    c     0.908608    0.795320    0.024140    0.000000
    87  O2    c     0.877527    0.102933    0.688797    0.000000
    88  O2    c     0.775037    0.861447    0.856603    0.000000
    89  O2    c     0.070500    0.215781    0.523148    0.000000
    90  O2    c     0.101875    0.903394    0.191216    0.000000
    91  O2    c     0.903261    0.848965    0.246267    0.000000
    92  O2    c     0.119340    0.067353    0.577530    0.000000
    93  O2    c     0.925516    0.058852    0.910266    0.000000
    94  O2    c     0.067395    0.142766    0.744388    0.000000
    95  O2    c     0.842474    0.926678    0.079601    0.000000
    96  O2    c     0.046095    0.926929    0.412790    0.000000
    97  O2    c     0.893309    0.196370    0.971252    0.000000
    98  O3    c     0.780111    0.678364    0.309746    0.000000
    99  O2    c     0.293978    0.116512    0.639477    0.000000
   100  O2    c     0.084925    0.801197    0.476557    0.000000
   101  O2    c     0.193373    0.291248    0.810335    0.000000
   102  O2    c     0.675873    0.891308    0.143532    0.000000
   103  O2    c     0.172701    0.882916    0.350605    0.000000
   104  O2    c     0.683658    0.787891    0.016742    0.000000
   105  O2    c     0.101650    0.313088    0.682207    0.000000
   106  O2    c     0.780591    0.081300    0.848705    0.000000
   107  O2    c     0.286491    0.211139    0.516438    0.000000
   108  O2    c     0.877668    0.690680    0.181164    0.000000
   109  O2    c     0.289492    0.627500    0.243678    0.000000
   110  O2    c     0.343913    0.683327    0.575866    0.000000
   111  O2    c     0.306657    0.664008    0.913150    0.000000
   112  O2    c     0.665105    0.341508    0.747401    0.000000
   113  O3    c     0.604597    0.299026    0.084382    0.000000
   114  O2    c     0.663209    0.321531    0.414368    0.000000
   115  O2    c     0.362318    0.321133    0.966828    0.000000
   116  O2    c     0.641382    0.015805    0.302312    0.000000
   117  O2    c     0.951280    0.632946    0.634581    0.000000
   118  O2    c     0.609282    0.672396    0.462400    0.000000
   119  O2    c     0.312205    0.939846    0.796220    0.000000
   120  O2    c     0.015885    0.365045    0.130201    0.000000
   121  O2    c     0.311779    0.360627    0.357070    0.000000
   122  O2    c     0.023872    0.661205    0.023580    0.000000
   123  O3    c     0.632215    0.956251    0.687098    0.000000
   124  O2    c     0.656076    0.614643    0.858761    0.000000
   125  O2    c     0.941462    0.333775    0.525192    0.000000
   126  O2    c     0.352220    0.030895    0.194550    0.000000
   127  O3    c     0.747331    0.279112    0.001340    0.000000
   128  O3    c     0.683784    0.441787    0.336729    0.000000
   129  O2    c     0.525612    0.231941    0.673932    0.000000
   130  O2    c     0.212799    0.696538    0.504476    0.000000
   131  O2    c     0.294111    0.522576    0.839504    0.000000
   132  O2    c     0.440684    0.760660    0.172171    0.000000
   133  O2    c     0.264536    0.746212    0.317520    0.000000
   134  O2    c     0.453096    0.689036    0.985480    0.000000
   135  O2    c     0.227612    0.540641    0.648908    0.000000
   136  O2    c     0.679601    0.212591    0.817216    0.000000
   137  O2    c     0.517932    0.307874    0.483807    0.000000
   138  O2    c     0.743188    0.457165    0.150296    0.000000
   139  O3    c     0.766685    0.543678    0.018041    0.000000
   140  O2    c     0.451216    0.243117    0.358413    0.000000
   141  O2    c     0.735102    0.210301    0.690841    0.000000
   142  O2    c     0.201607    0.467173    0.522655    0.000000
   143  O2    c     0.523243    0.741893    0.857982    0.000000
   144  O2    c     0.220621    0.772253    0.190302    0.000000
   145  O2    c     0.497330    0.760948    0.301496    0.000000
   146  O2    c     0.237345    0.454890    0.969582    0.000000
   147  O2    c     0.208876    0.753422    0.634372    0.000000
   148  O2    c     0.453916    0.194185    0.797510    0.000000
   149  O2    c     0.729857    0.535684    0.466386    0.000000
   150  O2    c     0.760999    0.243195    0.132062    0.000000
   151  O2    c     0.218010    0.314938    0.894959    0.000000
   152  O2    c     0.646857    0.884466    0.228797    0.000000
   153  O2    c     0.084049    0.773353    0.561203    0.000000
   154  O3    c     0.767427    0.688486    0.394911    0.000000
   155  O2    c     0.312471    0.078341    0.724073    0.000000
   156  O2    c     0.884636    0.223524    0.058580    0.000000
   157  O2    c     0.312667    0.232255    0.430028    0.000000
   158  O2    c     0.880471    0.661407    0.095215    0.000000
   159  O2    c     0.753173    0.083304    0.762855    0.000000
   160  O2    c     0.664034    0.757213    0.931816    0.000000
   161  O2    c     0.079729    0.327477    0.597517    0.000000
   162  O2    c     0.204657    0.894857    0.265863    0.000000
   163  O2    c     0.569783    0.549544    0.988264    0.000000
   164  O2    c     0.412670    0.002595    0.323308    0.000000
   165  O2    c     0.968376    0.420583    0.654560    0.000000
   166  O2    c     0.402443    0.444500    0.480843    0.000000
   167  O2    c     0.541596    0.958356    0.815894    0.000000
   168  O2    c     0.996732    0.571828    0.148651    0.000000
   169  O3    c     0.527063    0.576170    0.330924    0.000000
   170  O2    c     0.001445    0.432116    0.003704    0.000000
   171  O3    c     0.394858    0.975681    0.661032    0.000000
   172  O2    c     0.428663    0.396771    0.840586    0.000000
   173  O2    c     0.953277    0.563112    0.506216    0.000000
   174  O2    c     0.569792    0.019058    0.176032    0.000000
   175  O2    c     0.557432    0.145183    0.251805    0.000000
   176  O2    c     0.822766    0.420158    0.581771    0.000000
   177  O2    c     0.574110    0.411469    0.914904    0.000000
   178  O3    c     0.390754    0.807323    0.746631    0.000000
   179  O2    c     0.134068    0.568806    0.077148    0.000000
   180  O2    c     0.401270    0.576668    0.407871    0.000000
   181  F     c     0.419983    0.883778    0.245983    0.000000
   182  F     c     0.078445    0.547504    0.577305    0.000000
   183  F     c     0.437912    0.540133    0.911770    0.000000
   184  F     c     0.517378    0.047129    0.734694    0.000000
   185  F     c     0.845387    0.430965    0.069449    0.000000
   186  F     c     0.558041    0.474181    0.400474    0.000000
   187  O2    s     0.908652    0.995174    0.995408    0.000000
   188  O2    s     0.976623    0.914057    0.329209    0.000000
   189  O2    s     0.067581    0.081195    0.661070    0.000000
   190  O2    s     0.061617    0.006355    0.494571    0.000000
   191  O2    s     0.985588    0.062327    0.826138    0.000000
   192  O2    s     0.904039    0.919127    0.163165    0.000000
   193  O2    s     0.314070    0.564336    0.326286    0.000000
   194  O3    s     0.408511    0.770406    0.658062    0.000000
   195  O2    s     0.216600    0.636738    0.995034    0.000000
   196  O2    s     0.633318    0.398298    0.831129    0.000000
   197  O2    s     0.566588    0.222832    0.169835    0.000000
   198  O2    s     0.750684    0.356714    0.498243    0.000000
   199  O3    s     0.568389    0.343297    0.997484    0.000000
   200  O2    s     0.762155    0.418026    0.665327    0.000000
   201  O2    s     0.624853    0.203773    0.335105    0.000000
   202  O2    s     0.395362    0.648449    0.491671    0.000000
   203  O2    s     0.208103    0.578187    0.160513    0.000000
   204  O2    s     0.336187    0.752590    0.831647    0.000000
   205  O2    s     0.111245    0.206026    0.965921    0.000000
   206  O2    s     0.747615    0.873795    0.301615    0.000000
   207  O2    s     0.092007    0.886057    0.632662    0.000000
   208  O2    s     0.863487    0.785578    0.469440    0.000000
   209  O2    s     0.203235    0.082765    0.796621    0.000000
   210  O2    s     0.880596    0.113409    0.132215    0.000000
   211  O2    s     0.198945    0.109597    0.358435    0.000000
   212  O2    s     0.899031    0.789836    0.026244    0.000000
   213  O2    s     0.880078    0.107778    0.691476    0.000000
   214  O2    s     0.771727    0.865286    0.859102    0.000000
   215  O2    s     0.077673    0.219185    0.525698    0.000000
   216  O2    s     0.098432    0.896445    0.193775    0.000000
   217  O2    s     0.902818    0.845493    0.245845    0.000000
   218  O2    s     0.123465    0.070428    0.577581    0.000000
   219  O2    s     0.922871    0.060051    0.910321    0.000000
   220  O2    s     0.068159    0.144863    0.744522    0.000000
   221  O2    s     0.839932    0.925066    0.079686    0.000000
   222  O2    s     0.048026    0.925185    0.412815    0.000000
   223  O2    s     0.899378    0.196686    0.974198    0.000000
   224  O3    s     0.780611    0.688178    0.311166    0.000000
   225  O2    s     0.287234    0.106159    0.641851    0.000000
   226  O2    s     0.077037    0.799422    0.479093    0.000000
   227  O2    s     0.194564    0.285009    0.812696    0.000000
   228  O2    s     0.682021    0.898747    0.146112    0.000000
   229  O2    s     0.174739    0.890828    0.347784    0.000000
   230  O2    s     0.690015    0.787127    0.014105    0.000000
   231  O2    s     0.093213    0.306362    0.679682    0.000000
   232  O2    s     0.779613    0.074465    0.845960    0.000000
   233  O2    s     0.280743    0.211983    0.513437    0.000000
   234  O2    s     0.884661    0.696142    0.178652    0.000000
   235  O2    s     0.295597    0.639701    0.243860    0.000000
   236  O2    s     0.333021    0.677401    0.575771    0.000000
   237  O2    s     0.313035    0.658510    0.913230    0.000000
   238  O2    s     0.659722    0.331436    0.747298    0.000000
   239  O3    s     0.617345    0.304776    0.086127    0.000000
   240  O2    s     0.658065    0.326405    0.414457    0.000000
   241  O2    s     0.364600    0.330761    0.964866    0.000000
   242  O2    s     0.631094    0.009341    0.300237    0.000000
   243  O2    s     0.957903    0.629363    0.632359    0.000000
   244  O2    s     0.605909    0.662751    0.460569    0.000000
   245  O2    s     0.321354    0.946633    0.794274    0.000000
   246  O2    s     0.009694    0.368204    0.128231    0.000000
   247  O2    s     0.320861    0.363541    0.358950    0.000000
   248  O2    s     0.017800    0.651784    0.025387    0.000000
   249  O3    s     0.633019    0.966736    0.689969    0.000000
   250  O2    s     0.646288    0.611298    0.861231    0.000000
   251  O2    s     0.948495    0.343917    0.527613    0.000000
   252  O2    s     0.354860    0.023872    0.196919    0.000000
   253  O3    s     0.758501    0.286134    0.004431    0.000000
   254  O3    s     0.674689    0.437037    0.340476    0.000000
   255  O2    s     0.526672    0.225350    0.676314    0.000000
   256  O2    s     0.206270    0.689567    0.507808    0.000000
   257  O2    s     0.301188    0.523029    0.842925    0.000000
   258  O2    s     0.440242    0.767208    0.175569    0.000000
   259  O2    s     0.273069    0.753920    0.314589    0.000000
   260  O2    s     0.452043    0.680847    0.982457    0.000000
   261  O2    s     0.219852    0.540405    0.646286    0.000000
   262  O2    s     0.672655    0.206642    0.814430    0.000000
   263  O2    s     0.518397    0.314811    0.481034    0.000000
   264  O2    s     0.750014    0.457085    0.147699    0.000000
   265  O3    s     0.776125    0.545436    0.021367    0.000000
   266  O2    s     0.452517    0.249187    0.360609    0.000000
   267  O2    s     0.728772    0.207048    0.693012    0.000000
   268  O2    s     0.196223    0.470058    0.525239    0.000000
   269  O2    s     0.520409    0.733441    0.860561    0.000000
   270  O2    s     0.229077    0.777547    0.192951    0.000000
   271  O2    s     0.495311    0.765937    0.298880    0.000000
   272  O2    s     0.245242    0.457968    0.966858    0.000000
   273  O2    s     0.203691    0.746856    0.631722    0.000000
   274  O2    s     0.456604    0.190985    0.795478    0.000000
   275  O2    s     0.723522    0.532486    0.464207    0.000000
   276  O2    s     0.765519    0.249179    0.129966    0.000000
   277  O2    s     0.228184    0.324472    0.895786    0.000000
   278  O2    s     0.637747    0.884909    0.229584    0.000000
   279  O2    s     0.083933    0.763881    0.562007    0.000000
   280  O3    s     0.757514    0.678713    0.397583    0.000000
   281  O2    s     0.320869    0.079481    0.725175    0.000000
   282  O2    s     0.884140    0.231240    0.059560    0.000000
   283  O2    s     0.321035    0.240507    0.429261    0.000000
   284  O2    s     0.880963    0.653627    0.094817    0.000000
   285  O2    s     0.744779    0.083323    0.762370    0.000000
   286  O2    s     0.654290    0.747984    0.930841    0.000000
   287  O2    s     0.080538    0.337417    0.596568    0.000000
   288  O2    s     0.213745    0.894107    0.264934    0.000000
   289  O2    s     0.566458    0.550537    0.984948    0.000000
   290  O2    s     0.412407    0.998297    0.319823    0.000000
   291  O2    s     0.972904    0.425077    0.651100    0.000000
   292  O2    s     0.405655    0.443642    0.478124    0.000000
   293  O2    s     0.542937    0.962885    0.813223    0.000000
   294  O2    s     0.993360    0.568467    0.145840    0.000000
   295  O3    s     0.523110    0.570003    0.335043    0.000000
   296  O2    s     0.998640    0.432506    0.006637    0.000000
   297  O3    s     0.398740    0.984444    0.664882    0.000000
   298  O2    s     0.428794    0.402416    0.843891    0.000000
   299  O2    s     0.959030    0.563296    0.509562    0.000000
   300  O2    s     0.564187    0.013316    0.179209    0.000000
   301  O2    s     0.552080    0.134007    0.251531    0.000000
   302  O2    s     0.834373    0.426175    0.581584    0.000000
   303  O2    s     0.568463    0.416168    0.914490    0.000000
   304  O3    s     0.396079    0.819713    0.748467    0.000000
   305  O2    s     0.124655    0.564169    0.077221    0.000000
   306  O2    s     0.405847    0.571911    0.408255    0.000000
   307  F     s     0.419341    0.883110    0.245821    0.000000
   308  F     s     0.077751    0.546966    0.577077    0.000000
   309  F     s     0.437465    0.540585    0.911535    0.000000
   310  F     s     0.513560    0.037204    0.732037    0.000000
   311  F     s     0.834447    0.426927    0.066811    0.000000
   312  F     s     0.565132    0.480802    0.397368    0.000000
--------------------------------------------------------------------------------

  Final Cartesian lattice vectors (Angstroms) :

       11.985873    0.002174    0.010443
       -6.082220   10.367572    0.007389
        0.095289   -0.148095   29.403839


  Final cell parameters and derivatives :

--------------------------------------------------------------------------------
       a           11.985878 Angstrom     dE/de1(xx)     0.000731 eV/strain
       b           12.019984 Angstrom     dE/de2(yy)     0.000928 eV/strain
       c           29.404366 Angstrom     dE/de3(zz)     0.000652 eV/strain
       alpha       90.307633 Degrees      dE/de4(yz)     0.000224 eV/strain
       beta        89.764459 Degrees      dE/de5(xz)     0.000049 eV/strain
       gamma      120.387916 Degrees      dE/de6(xy)     0.000005 eV/strain
--------------------------------------------------------------------------------

  Primitive cell volume =          3654.251513 Angs**3

  Density of cell =      1.750863 g/cm**3

  Non-primitive cell volume =          3654.251513 Angs**3


  Final internal derivatives :

--------------------------------------------------------------------------------
   No.  Atomic          a             b             c           Radius
        Label          (eV)          (eV)          (eV)        (eV/Angs)
--------------------------------------------------------------------------------
      1 Ge    c       0.000000      0.000000      0.000000      0.000000
      2 Si    c       0.000074     -0.000158      0.000017      0.000000
      3 Si    c       0.000042     -0.000000     -0.000292      0.000000
      4 Si    c      -0.000017      0.000001      0.000044      0.000000
      5 Si    c       0.000074      0.000016      0.000364      0.000000
      6 Si    c      -0.000053      0.000090      0.000274      0.000000
      7 Si    c      -0.000029     -0.000101     -0.000123      0.000000
      8 Si    c      -0.000079      0.000129     -0.000215      0.000000
      9 Si    c      -0.000004     -0.000009     -0.000158      0.000000
     10 Si    c       0.000094     -0.000068      0.000346      0.000000
     11 Si    c       0.000002      0.000017      0.000106      0.000000
     12 Si    c       0.000277      0.000665     -0.006862      0.000000
     13 Si    c       0.000905     -0.000369      0.001437      0.000000
     14 Si    c       0.000065     -0.000017     -0.000063      0.000000
     15 Si    c       0.000019     -0.000010      0.000127      0.000000
     16 Si    c       0.000023      0.000016      0.000004      0.000000
     17 Si    c      -0.000027      0.000023      0.000290      0.000000
     18 Si    c       0.000418     -0.000136      0.000620      0.000000
     19 Si    c      -0.000221      0.000159     -0.000199      0.000000
     20 Si    c       0.000413     -0.000257     -0.000340      0.000000
     21 Ge    c       0.000111     -0.000126     -0.000370      0.000000
     22 Si    c      -0.000004     -0.000007     -0.000127      0.000000
     23 Si    c       0.000027      0.000012     -0.000110      0.000000
     24 Si    c       0.000067      0.000078     -0.000236      0.000000
     25 Si    c       0.000056     -0.000228      0.000172      0.000000
     26 Si    c       0.000109     -0.000020     -0.000231      0.000000
     27 Si    c      -0.000048      0.000067     -0.000142      0.000000
     28 Ge    c       0.000228      0.000227     -0.000500      0.000000
     29 Si    c      -0.000195      0.000061     -0.000580      0.000000
     30 Si    c      -0.000494      0.000212      0.002234      0.000000
     31 Si    c      -0.000066     -0.000018      0.000112      0.000000
     32 Si    c      -0.000491      0.000185     -0.000489      0.000000
     33 Si    c       0.000116     -0.000080      0.000594      0.000000
     34 Si    c       0.000158      0.000120      0.000232      0.000000
     35 Si    c       0.000001     -0.000043      0.000046      0.000000
     36 Si    c      -0.000160      0.000076      0.000188      0.000000
     37 Si    c      -0.000067     -0.000117     -0.000438      0.000000
     38 Si    c       0.000079     -0.000019      0.000047      0.000000
     39 Si    c      -0.000014      0.000086     -0.000028      0.000000
     40 Si    c      -0.000029      0.000013     -0.000472      0.000000
     41 Si    c      -0.000040     -0.000034     -0.000045      0.000000
     42 Si    c      -0.000447      0.000004     -0.000567      0.000000
     43 Si    c      -0.000034     -0.000007      0.000055      0.000000
     44 Si    c      -0.000200      0.000315      0.001098      0.000000
     45 Si    c       0.000077     -0.000054     -0.000094      0.000000
     46 Si    c       0.000043      0.000079     -0.000059      0.000000
     47 Si    c       0.000046     -0.000047     -0.000008      0.000000
     48 Si    c      -0.000055     -0.000028      0.000079      0.000000
     49 Si    c      -0.000145     -0.000039      0.000172      0.000000
     50 Si    c       0.000056      0.000040      0.000378      0.000000
     51 Si    c       0.000087     -0.000083      0.000354      0.000000
     52 Si    c       0.000119     -0.000015     -0.000013      0.000000
     53 Si    c       0.000101      0.000090      0.002790      0.000000
     54 Si    c      -0.000019     -0.000003     -0.000269      0.000000
     55 Si    c       0.000092      0.000032     -0.000928      0.000000
     56 Si    c       0.000243     -0.000443      0.000517      0.000000
     57 Si    c       0.000007      0.000080     -0.000293      0.000000
     58 Si    c      -0.000032      0.000063     -0.000385      0.000000
     59 Si    c      -0.000008      0.000047     -0.000052      0.000000
     60 Si    c      -0.000025     -0.000051      0.000076      0.000000
     61 O2    c      -0.000003      0.000233     -0.000644      0.000000
     62 O2    c      -0.000100     -0.000176     -0.000357      0.000000
     63 O2    c      -0.000017     -0.000002     -0.000181      0.000000
     64 O2    c       0.000035     -0.000027      0.000059      0.000000
     65 O2    c       0.000008      0.000022     -0.000150      0.000000
     66 O2    c      -0.000067      0.000062     -0.000025      0.000000
     67 O2    c       0.000181     -0.000212      0.000401      0.000000
     68 O3    c       0.000132      0.000017      0.000378      0.000000
     69 O2    c      -0.000056     -0.000017     -0.000088      0.000000
     70 O2    c       0.000009      0.000148      0.000242      0.000000
     71 O2    c      -0.000032     -0.000009      0.000133      0.000000
     72 O2    c       0.000085     -0.000071      0.000213      0.000000
     73 O3    c      -0.000887      0.001695     -0.001408      0.000000
     74 O2    c      -0.000010      0.000029     -0.000038      0.000000
     75 O2    c      -0.000016      0.000040     -0.000080      0.000000
     76 O2    c       0.000024      0.000036      0.000035      0.000000
     77 O2    c       0.000004      0.000002      0.000266      0.000000
     78 O2    c      -0.000161      0.000153     -0.000223      0.000000
     79 O2    c       0.000126      0.000081     -0.000118      0.000000
     80 O2    c       0.000110     -0.000051     -0.000114      0.000000
     81 O2    c       0.000000      0.000036     -0.000104      0.000000
     82 O2    c      -0.000080      0.000015      0.000093      0.000000
     83 O2    c       0.000196     -0.000142      0.000336      0.000000
     84 O2    c      -0.000113      0.000123     -0.000038      0.000000
     85 O2    c      -0.000088     -0.000003     -0.000117      0.000000
     86 O2    c      -0.000807      0.000812     -0.000126      0.000000
     87 O2    c      -0.000127      0.000031     -0.000048      0.000000
     88 O2    c      -0.000018     -0.000051      0.000023      0.000000
     89 O2    c       0.000037     -0.000045      0.000067      0.000000
     90 O2    c      -0.000036      0.000008      0.000051      0.000000
     91 O2    c       0.000053     -0.000027     -0.000416      0.000000
     92 O2    c      -0.000010      0.000077     -0.000541      0.000000
     93 O2    c       0.000020     -0.000026      0.000098      0.000000
     94 O2    c      -0.000498     -0.000135     -0.004368      0.000000
     95 O2    c      -0.000041     -0.000051     -0.000490      0.000000
     96 O2    c      -0.000163     -0.000124      0.001671      0.000000
     97 O2    c       0.000047     -0.000050     -0.000169      0.000000
     98 O3    c      -0.000064      0.000026      0.000268      0.000000
     99 O2    c       0.000103      0.000001      0.000141      0.000000
    100 O2    c      -0.000017      0.000027      0.000114      0.000000
    101 O2    c      -0.000044      0.000321     -0.000093      0.000000
    102 O2    c       0.000007     -0.000001      0.000084      0.000000
    103 O2    c       0.000024      0.000010     -0.000102      0.000000
    104 O2    c       0.000204     -0.000020     -0.000068      0.000000
    105 O2    c       0.000023     -0.000030      0.000019      0.000000
    106 O2    c       0.000022     -0.000038     -0.000004      0.000000
    107 O2    c       0.000007      0.000000      0.000063      0.000000
    108 O2    c      -0.000036      0.000027     -0.000033      0.000000
    109 O2    c      -0.000005     -0.000032      0.000094      0.000000
    110 O2    c       0.000054      0.000005      0.000043      0.000000
    111 O2    c      -0.000033      0.000013     -0.000012      0.000000
    112 O2    c       0.000031      0.000100     -0.000317      0.000000
    113 O3    c       0.002594      0.000108      0.001166      0.000000
    114 O2    c      -0.000010     -0.000028     -0.000489      0.000000
    115 O2    c       0.000022     -0.000034     -0.000122      0.000000
    116 O2    c      -0.000028      0.000004     -0.000056      0.000000
    117 O2    c      -0.000024     -0.000004      0.000012      0.000000
    118 O2    c       0.000026      0.000004      0.000017      0.000000
    119 O2    c      -0.000079      0.000116      0.000058      0.000000
    120 O2    c       0.000041     -0.000131      0.000177      0.000000
    121 O2    c      -0.000017     -0.000020     -0.000068      0.000000
    122 O2    c      -0.000353      0.000322     -0.000069      0.000000
    123 O3    c       0.000006     -0.000022      0.000116      0.000000
    124 O2    c       0.000052     -0.000031     -0.000058      0.000000
    125 O2    c      -0.000047      0.000026      0.000001      0.000000
    126 O2    c       0.000012      0.000025     -0.000035      0.000000
    127 O3    c      -0.000022      0.000654      0.001151      0.000000
    128 O3    c       0.000108     -0.000113      0.000149      0.000000
    129 O2    c       0.000332      0.000255     -0.000074      0.000000
    130 O2    c       0.000096     -0.000043     -0.000018      0.000000
    131 O2    c      -0.000095      0.000058     -0.000243      0.000000
    132 O2    c      -0.000012     -0.000035      0.000066      0.000000
    133 O2    c      -0.000005     -0.000066     -0.000071      0.000000
    134 O2    c      -0.000028      0.000061      0.000046      0.000000
    135 O2    c       0.000068      0.000045     -0.000036      0.000000
    136 O2    c      -0.000084      0.000204      0.000094      0.000000
    137 O2    c       0.000069     -0.000039      0.000106      0.000000
    138 O2    c      -0.000087     -0.000081     -0.000398      0.000000
    139 O3    c      -0.000985     -0.000408     -0.001151      0.000000
    140 O2    c       0.000040     -0.000050     -0.000122      0.000000
    141 O2    c       0.000040     -0.000006     -0.000119      0.000000
    142 O2    c       0.000035      0.000005     -0.000002      0.000000
    143 O2    c      -0.000053      0.000055     -0.000067      0.000000
    144 O2    c       0.000099     -0.000079      0.000213      0.000000
    145 O2    c       0.000028     -0.000024      0.000034      0.000000
    146 O2    c      -0.000091      0.000053      0.000093      0.000000
    147 O2    c       0.000003      0.000062      0.000045      0.000000
    148 O2    c      -0.000268      0.000037      0.000159      0.000000
    149 O2    c       0.000017      0.000056      0.000063      0.000000
    150 O2    c      -0.000006      0.000009     -0.000395      0.000000
    151 O2    c       0.000005     -0.000012     -0.000069      0.000000
    152 O2    c       0.000042     -0.000035      0.000072      0.000000
    153 O2    c      -0.000026      0.000079      0.000141      0.000000
    154 O3    c      -0.000077     -0.000148      0.000302      0.000000
    155 O2    c      -0.000293      0.000065      0.001714      0.000000
    156 O2    c      -0.000304      0.000419     -0.001620      0.000000
    157 O2    c       0.000005      0.000029     -0.000098      0.000000
    158 O2    c       0.000067     -0.000014     -0.000511      0.000000
    159 O2    c       0.000189     -0.000075     -0.000893      0.000000
    160 O2    c       0.000045      0.000012      0.000169      0.000000
    161 O2    c       0.000046     -0.000059     -0.000071      0.000000
    162 O2    c      -0.000053      0.000017     -0.000035      0.000000
    163 O2    c       0.000202     -0.000128      0.000385      0.000000
    164 O2    c       0.000034     -0.000004     -0.000049      0.000000
    165 O2    c      -0.000052      0.000038      0.000006      0.000000
    166 O2    c      -0.000024      0.000068      0.000121      0.000000
    167 O2    c      -0.000130     -0.000114      0.000127      0.000000
    168 O2    c      -0.000110      0.000081      0.000492      0.000000
    169 O3    c      -0.000030      0.000024      0.000044      0.000000
    170 O2    c      -0.000080      0.000137     -0.000290      0.000000
    171 O3    c       0.000073     -0.000290     -0.000569      0.000000
    172 O2    c       0.000060     -0.000044     -0.000070      0.000000
    173 O2    c      -0.000032     -0.000023     -0.000001      0.000000
    174 O2    c      -0.000002      0.000074     -0.000085      0.000000
    175 O2    c       0.000004     -0.000009      0.000124      0.000000
    176 O2    c      -0.000058      0.000004     -0.000037      0.000000
    177 O2    c       0.000038     -0.000021      0.000643      0.000000
    178 O3    c      -0.000001     -0.000241      0.000142      0.000000
    179 O2    c      -0.000006     -0.000001     -0.000049      0.000000
    180 O2    c      -0.000010     -0.000011     -0.000110      0.000000
    181 F     c      -0.000030      0.000005      0.000016      0.000000
    182 F     c       0.000005      0.000004     -0.000005      0.000000
    183 F     c      -0.000037      0.000051     -0.000072      0.000000
    184 F     c      -0.000035      0.000081      0.000015      0.000000
    185 F     c       0.000133     -0.000362      0.001561      0.000000
    186 F     c      -0.000028     -0.000016      0.000270      0.000000
    187 O2    s      -0.000023     -0.000142      0.000688      0.000000
    188 O2    s      -0.000005     -0.000020      0.000036      0.000000
    189 O2    s      -0.000094      0.000065      0.000155      0.000000
    190 O2    s      -0.000043      0.000036     -0.000122      0.000000
    191 O2    s      -0.000069     -0.000125      0.000666      0.000000
    192 O2    s       0.000042      0.000004     -0.000119      0.000000
    193 O2    s      -0.000059      0.000062      0.000014      0.000000
    194 O3    s      -0.000010     -0.000016     -0.000186      0.000000
    195 O2    s      -0.000064      0.000148      0.000375      0.000000
    196 O2    s       0.000042     -0.000019      0.000086      0.000000
    197 O2    s      -0.000186      0.000009      0.000250      0.000000
    198 O2    s       0.000007     -0.000038     -0.000110      0.000000
    199 O3    s       0.000343     -0.001499     -0.000044      0.000000
    200 O2    s      -0.000050      0.000076      0.000006      0.000000
    201 O2    s       0.000049     -0.000046      0.000076      0.000000
    202 O2    s      -0.000001      0.000023     -0.000166      0.000000
    203 O2    s      -0.000076      0.000009     -0.000391      0.000000
    204 O2    s      -0.000014     -0.000027     -0.000039      0.000000
    205 O2    s      -0.000027     -0.000096      0.000337      0.000000
    206 O2    s       0.000014     -0.000016      0.000206      0.000000
    207 O2    s      -0.000020     -0.000039      0.000277      0.000000
    208 O2    s       0.000042      0.000029      0.000086      0.000000
    209 O2    s       0.000286     -0.000421      0.000217      0.000000
    210 O2    s       0.000147     -0.000157     -0.000052      0.000000
    211 O2    s      -0.000006      0.000132      0.000027      0.000000
    212 O2    s       0.000117     -0.000126      0.000448      0.000000
    213 O2    s       0.000052     -0.000015      0.000097      0.000000
    214 O2    s       0.000029     -0.000029     -0.000206      0.000000
    215 O2    s      -0.000025     -0.000011     -0.000222      0.000000
    216 O2    s       0.000018      0.000002     -0.000191      0.000000
    217 O2    s      -0.000013     -0.000020      0.000234      0.000000
    218 O2    s      -0.000052     -0.000020      0.000022      0.000000
    219 O2    s       0.000064      0.000006      0.000056      0.000000
    220 O2    s       0.000118     -0.000021      0.000886      0.000000
    221 O2    s       0.000096     -0.000104     -0.000327      0.000000
    222 O2    s       0.000016      0.000007     -0.000418      0.000000
    223 O2    s      -0.000005     -0.000090      0.000225      0.000000
    224 O3    s      -0.000056      0.000091     -0.000239      0.000000
    225 O2    s      -0.000077      0.000054     -0.000482      0.000000
    226 O2    s      -0.000014      0.000033     -0.000360      0.000000
    227 O2    s      -0.000142      0.000363     -0.000047      0.000000
    228 O2    s      -0.000013     -0.000000     -0.000227      0.000000
    229 O2    s       0.000063     -0.000088     -0.000098      0.000000
    230 O2    s       0.000097      0.000090      0.000607      0.000000
    231 O2    s       0.000032     -0.000025      0.000138      0.000000
    232 O2    s       0.000005      0.000018      0.000242      0.000000
    233 O2    s       0.000012      0.000054     -0.000054      0.000000
    234 O2    s       0.000036      0.000018      0.000002      0.000000
    235 O2    s       0.000024     -0.000185      0.000036      0.000000
    236 O2    s       0.000023      0.000012     -0.000036      0.000000
    237 O2    s      -0.000078      0.000072      0.000183      0.000000
    238 O2    s       0.000004      0.000009     -0.000158      0.000000
    239 O3    s      -0.002858     -0.000269     -0.000176      0.000000
    240 O2    s      -0.000019      0.000008      0.000089      0.000000
    241 O2    s       0.000138     -0.000068      0.000350      0.000000
    242 O2    s       0.000053     -0.000037      0.000184      0.000000
    243 O2    s      -0.000002      0.000031      0.000074      0.000000
    244 O2    s      -0.000057      0.000059      0.000045      0.000000
    245 O2    s      -0.000004      0.000044     -0.000186      0.000000
    246 O2    s      -0.000159      0.000365     -0.000619      0.000000
    247 O2    s       0.000023      0.000018      0.000004      0.000000
    248 O2    s       0.000099     -0.000288      0.000115      0.000000
    249 O3    s       0.000095      0.000008     -0.000143      0.000000
    250 O2    s       0.000001     -0.000001     -0.000118      0.000000
    251 O2    s      -0.000012     -0.000022     -0.000133      0.000000
    252 O2    s       0.000000     -0.000051      0.000022      0.000000
    253 O3    s      -0.000444     -0.000333     -0.001494      0.000000
    254 O3    s      -0.000090     -0.000025     -0.000267      0.000000
    255 O2    s      -0.000036      0.000174     -0.000244      0.000000
    256 O2    s      -0.000000      0.000034     -0.000225      0.000000
    257 O2    s       0.000003     -0.000030     -0.000180      0.000000
    258 O2    s      -0.000007      0.000032     -0.000265      0.000000
    259 O2    s       0.000010      0.000034      0.000170      0.000000
    260 O2    s      -0.000059      0.000034      0.000152      0.000000
    261 O2    s       0.000014     -0.000006      0.000252      0.000000
    262 O2    s       0.000052     -0.000004      0.000266      0.000000
    263 O2    s      -0.000033      0.000021     -0.000081      0.000000
    264 O2    s       0.000082      0.000407      0.002012      0.000000
    265 O3    s       0.001224     -0.000051      0.001273      0.000000
    266 O2    s      -0.000009      0.000078      0.000186      0.000000
    267 O2    s       0.000006     -0.000047      0.000092      0.000000
    268 O2    s       0.000003     -0.000024     -0.000190      0.000000
    269 O2    s       0.000051     -0.000044     -0.000106      0.000000
    270 O2    s      -0.000176      0.000057     -0.000598      0.000000
    271 O2    s      -0.000072      0.000058     -0.000112      0.000000
    272 O2    s       0.000064     -0.000072      0.000213      0.000000
    273 O2    s      -0.000060     -0.000020      0.000077      0.000000
    274 O2    s       0.000063     -0.000189     -0.000379      0.000000
    275 O2    s      -0.000031     -0.000010     -0.000013      0.000000
    276 O2    s       0.000579     -0.000598      0.001838      0.000000
    277 O2    s      -0.000018     -0.000001      0.000092      0.000000
    278 O2    s      -0.000071     -0.000008      0.000040      0.000000
    279 O2    s      -0.000024     -0.000001      0.000033      0.000000
    280 O3    s       0.000066      0.000226     -0.000268      0.000000
    281 O2    s      -0.000081      0.000050      0.000213      0.000000
    282 O2    s       0.000510     -0.000533      0.000832      0.000000
    283 O2    s      -0.000023     -0.000019     -0.000024      0.000000
    284 O2    s       0.000170      0.000113      0.000112      0.000000
    285 O2    s       0.000021     -0.000022     -0.000189      0.000000
    286 O2    s      -0.000076      0.000026     -0.000140      0.000000
    287 O2    s      -0.000040      0.000019      0.000004      0.000000
    288 O2    s       0.000028      0.000011     -0.000005      0.000000
    289 O2    s      -0.000397      0.000096     -0.000379      0.000000
    290 O2    s      -0.000040     -0.000027      0.000185      0.000000
    291 O2    s      -0.000009      0.000015      0.000160      0.000000
    292 O2    s       0.000012      0.000002     -0.000124      0.000000
    293 O2    s      -0.000065     -0.000032      0.000221      0.000000
    294 O2    s       0.000126     -0.000244     -0.001446      0.000000
    295 O3    s      -0.000086      0.000037     -0.000166      0.000000
    296 O2    s       0.000382     -0.000055      0.000209      0.000000
    297 O3    s       0.000028     -0.000272     -0.000844      0.000000
    298 O2    s       0.000001     -0.000024     -0.000009      0.000000
    299 O2    s      -0.000040      0.000009     -0.000186      0.000000
    300 O2    s      -0.000088     -0.000085      0.000133      0.000000
    301 O2    s      -0.000070      0.000056     -0.000122      0.000000
    302 O2    s      -0.000007      0.000006      0.000014      0.000000
    303 O2    s      -0.000098     -0.000080      0.000072      0.000000
    304 O3    s      -0.000044      0.000069     -0.000229      0.000000
    305 O2    s      -0.000429      0.000031      0.000348      0.000000
    306 O2    s      -0.000020      0.000016     -0.000031      0.000000
    307 F     s       0.000051      0.000025      0.000036      0.000000
    308 F     s      -0.000019      0.000007      0.000012      0.000000
    309 F     s       0.000089     -0.000108      0.000169      0.000000
    310 F     s       0.000088      0.000060      0.000696      0.000000
    311 F     s       0.000938      0.000286     -0.000354      0.000000
    312 F     s      -0.000082     -0.000103      0.000415      0.000000
--------------------------------------------------------------------------------
  Maximum abs         0.002858      0.001695      0.006862      0.000000
--------------------------------------------------------------------------------


  Time to end of optimisation =      10.1944 seconds


  Peak dynamic memory used =      19.13 MB 


  Timing analysis for GULP :

--------------------------------------------------------------------------------
  Task / Subroutine                                          Time (Seconds)
--------------------------------------------------------------------------------
  Calculation of reciprocal space energy and derivatives          0.3457
  Calculation of real space energy and derivatives                8.6404
  Calculation of three-body energy and derivatives                0.9681
  Calculation of matrix inversion                                 0.1920
--------------------------------------------------------------------------------
  Total CPU time                                                 10.1945
--------------------------------------------------------------------------------


  Dump file written as out.res                                                 
  CIF file written as out.cif                                                 


  Job Finished at 13:14.58  2nd December   2016                               

