********************************************************************************
*                       GENERAL UTILITY LATTICE PROGRAM                        *
*                                 Julian Gale                                  *
*                      Nanochemistry Research Institute                        *
*                           Department of Chemistry                            *
*                    Curtin University, Western Australia                      *
********************************************************************************
* Version = 4.2.0 * Last modified =  20th January 2014                         *
********************************************************************************
*  optimise     - perform optimisation run                                     *
*  conp         - constant pressure calculation                                *
*  qok          - running with non charge neutral cell is OK                   *
********************************************************************************

  Job Started  at 13:43.34  2nd December   2016                               

  Number of CPUs =     1


  Total number of configurations input =   1

********************************************************************************
*  Input for Configuration =   1                                               *
********************************************************************************

  Formula = Ge3Si57O120F6                                               

  Number of irreducible atoms/shells =     312


  Total number atoms/shells =     312

  Dimensionality = 3               :  Bulk   


  Charge on solid   =  -6.000000 =>neutralising background added


  Cartesian lattice vectors (Angstroms) :

       11.954391    0.000000    0.000000
       -5.996982   10.357555    0.000000
        0.073779   -0.291517   29.530839

  Cell parameters (Angstroms/Degrees):

  a =      11.9544    alpha =  90.5612
  b =      11.9684    beta  =  89.8569
  c =      29.5324    gamma = 120.0707

  Initial cell volume =        3656.457136 Angs**3

  Temperature of configuration =  0.000     K 

  Pressure of configuration =         0.000 GPa 

  Fractional coordinates of asymmetric unit :

--------------------------------------------------------------------------------
   No.  Atomic       x           y          z         Charge      Occupancy
        Label      (Frac)      (Frac)     (Frac)        (e)         (Frac)  
--------------------------------------------------------------------------------
      1 Ge    c    0.699600    0.375700    0.033890     4.00000    1.000000    
      2 Si    c    0.621362 *  0.324335 *  0.364089 *   4.00000    1.000000    
      3 Si    c    0.674515 *  0.303146 *  0.693732 *   4.00000    1.000000    
      4 Si    c    0.296771 *  0.625296 *  0.528766 *   4.00000    1.000000    
      5 Si    c    0.376465 *  0.678411 *  0.861906 *   4.00000    1.000000    
      6 Si    c    0.322029 *  0.703715 *  0.195907 *   4.00000    1.000000    
      7 Si    c    0.376690 *  0.697768 *  0.295977 *   4.00000    1.000000    
      8 Si    c    0.323034 *  0.618424 *  0.963426 *   4.00000    1.000000    
      9 Si    c    0.305218 *  0.685926 *  0.630259 *   4.00000    1.000000    
     10 Si    c    0.621088 *  0.308008 *  0.796311 *   4.00000    1.000000    
     11 Si    c    0.675487 *  0.381019 *  0.464406 *   4.00000    1.000000    
     12 Si    c    0.687710 *  0.317735 *  0.132509 *   4.00000    1.000000    
     13 Si    c    0.531006 *  0.405890 *  0.963918 *   4.00000    1.000000    
     14 Si    c    0.583236 *  0.110661 *  0.300695 *   4.00000    1.000000    
     15 Si    c    0.889396 *  0.475275 *  0.630122 *   4.00000    1.000000    
     16 Si    c    0.466722 *  0.584912 *  0.462841 *   4.00000    1.000000    
     17 Si    c    0.407638 *  0.883418 *  0.796945 *   4.00000    1.000000    
     18 Si    c    0.110440 *  0.531948 *  0.129439 *   4.00000    1.000000    
     19 Si    c    0.416844 *  0.528357 *  0.361155 *   4.00000    1.000000    
     20 Si    c    0.106763 *  0.580286 *  0.026735 *   4.00000    1.000000    
     21 Ge    c    0.468089 *  0.906719 *  0.697984 *   4.00000    1.000000    
     22 Ge    c    0.566484 *  0.472467 *  0.865382 *   4.00000    1.000000    
     23 Si    c    0.887196 *  0.421767 *  0.529043 *   4.00000    1.000000    
     24 Si    c    0.529020 *  0.111140 *  0.199812 *   4.00000    1.000000    
     25 Si    c    0.293882 *  0.395165 *  0.842328 *   4.00000    1.000000    
     26 Si    c    0.601283 *  0.904515 *  0.182166 *   4.00000    1.000000    
     27 Si    c    0.094916 *  0.701579 *  0.514295 *   4.00000    1.000000    
     28 Si    c    0.698237 *  0.600832 *  0.347736 *   4.00000    1.000000    
     29 Si    c    0.390408 *  0.101530 *  0.676097 *   4.00000    1.000000    
     30 Si    c    0.891797 *  0.294338 *  0.011586 *   4.00000    1.000000    
     31 Si    c    0.395872 *  0.303859 *  0.477563 *   4.00000    1.000000    
     32 Si    c    0.894635 *  0.602338 *  0.142247 *   4.00000    1.000000    
     33 Si    c    0.695480 *  0.099460 *  0.809250 *   4.00000    1.000000    
     34 Si    c    0.604730 *  0.694482 *  0.976985 *   4.00000    1.000000    
     35 Si    c    0.099966 *  0.405280 *  0.643402 *   4.00000    1.000000    
     36 Si    c    0.300725 *  0.899928 *  0.312418 *   4.00000    1.000000    
     37 Si    c    0.251259 *  0.334093 *  0.944602 *   4.00000    1.000000    
     38 Si    c    0.659312 *  0.908854 *  0.282516 *   4.00000    1.000000    
     39 Si    c    0.091361 *  0.753875 *  0.615055 *   4.00000    1.000000    
     40 Si    c    0.746258 *  0.661212 *  0.448243 *   4.00000    1.000000    
     41 Si    c    0.334969 *  0.090050 *  0.779074 *   4.00000    1.000000    
     42 Si    c    0.904104 *  0.249790 *  0.113948 *   4.00000    1.000000    
     43 Si    c    0.339662 *  0.250161 *  0.376981 *   4.00000    1.000000    
     44 Si    c    0.902156 *  0.660032 *  0.040092 *   4.00000    1.000000    
     45 Si    c    0.748032 *  0.089551 *  0.707532 *   4.00000    1.000000    
     46 Si    c    0.664567 *  0.752342 *  0.875222 *   4.00000    1.000000    
     47 Si    c    0.087855 *  0.344484 *  0.543080 *   4.00000    1.000000    
     48 Si    c    0.248664 *  0.910805 *  0.212311 *   4.00000    1.000000    
     49 Si    c    0.971507 *  0.120997 *  0.960960 *   4.00000    1.000000    
     50 Si    c    0.877219 *  0.847029 *  0.296460 *   4.00000    1.000000    
     51 Si    c    0.145026 *  0.033148 *  0.626819 *   4.00000    1.000000    
     52 Si    c    0.026259 *  0.879171 *  0.462372 *   4.00000    1.000000    
     53 Si    c    0.114415 *  0.150712 *  0.792956 *   4.00000    1.000000    
     54 Si    c    0.847780 *  0.972705 *  0.129716 *   4.00000    1.000000    
     55 Si    c    0.120555 *  0.968976 *  0.361769 *   4.00000    1.000000    
     56 Si    c    0.851176 *  0.882416 *  0.027940 *   4.00000    1.000000    
     57 Si    c    0.030328 *  0.157500 *  0.692205 *   4.00000    1.000000    
     58 Si    c    0.877052 *  0.035313 *  0.859632 *   4.00000    1.000000    
     59 Si    c    0.146364 *  0.124358 *  0.526655 *   4.00000    1.000000    
     60 Si    c    0.969265 *  0.851954 *  0.194878 *   4.00000    1.000000    
     61 O2    c    0.926308 *  0.000763 *  0.994143 *   0.87073    1.000000    
     62 O2    c    0.002520 *  0.929145 *  0.327348 *   0.87073    1.000000    
     63 O2    c    0.060131 *  0.071927 *  0.657874 *   0.87073    1.000000    
     64 O2    c    0.068437 *  0.006210 *  0.492186 *   0.87073    1.000000    
     65 O2    c    0.993014 *  0.068692 *  0.825300 *   0.87073    1.000000    
     66 O2    c    0.931070 *  0.933590 *  0.161711 *   0.87073    1.000000    
     67 O2    c    0.339620 *  0.574866 *  0.327898 *   0.87073    1.000000    
     68 O3    c    0.422411 *  0.769461 *  0.662220 *   1.33043    1.000000    
     69 O2    c    0.236012 *  0.654073 *  0.995937 *   0.87073    1.000000    
     70 O3    c    0.654623 *  0.424064 *  0.828540 *   1.33043    1.000000    
     71 O2    c    0.579248 *  0.240707 *  0.170481 *   0.87073    1.000000    
     72 O2    c    0.759610 *  0.343685 *  0.497130 *   0.87073    1.000000    
     73 O3    c    0.563037 *  0.331473 *  0.001123 *   1.33043    1.000000    
     74 O2    c    0.763376 *  0.426881 *  0.662519 *   0.87073    1.000000    
     75 O2    c    0.660722 *  0.236301 *  0.332989 *   0.87073    1.000000    
     76 O2    c    0.418517 *  0.662451 *  0.495081 *   0.87073    1.000000    
     77 O2    c    0.235243 *  0.581852 *  0.161857 *   0.87073    1.000000    
     78 O2    c    0.336867 *  0.768554 *  0.834200 *   0.87073    1.000000    
     79 O2    c    0.126035 *  0.210527 *  0.966029 *   0.87073    1.000000    
     80 O2    c    0.785391 *  0.909219 *  0.302722 *   0.87073    1.000000    
     81 O2    c    0.091560 *  0.881339 *  0.634695 *   0.87073    1.000000    
     82 O2    c    0.872119 *  0.788223 *  0.468484 *   0.87073    1.000000    
     83 O2    c    0.212371 *  0.096135 *  0.800049 *   0.87073    1.000000    
     84 O2    c    0.908494 *  0.127227 *  0.134744 *   0.87073    1.000000    
     85 O2    c    0.212949 *  0.123043 *  0.356879 *   0.87073    1.000000    
     86 O2    c    0.922160 *  0.798745 *  0.023814 *   0.87073    1.000000    
     87 O2    c    0.878626 *  0.101653 *  0.687555 *   0.87073    1.000000    
     88 O2    c    0.783298 *  0.882766 *  0.855592 *   0.87073    1.000000    
     89 O2    c    0.085457 *  0.217109 *  0.522254 *   0.87073    1.000000    
     90 O2    c    0.123994 *  0.913691 *  0.191891 *   0.87073    1.000000    
     91 O2    c    0.923959 *  0.859631 *  0.244989 *   0.87073    1.000000    
     92 O2    c    0.127881 *  0.062993 *  0.575615 *   0.87073    1.000000    
     93 O2    c    0.933744 *  0.072314 *  0.909942 *   0.87073    1.000000    
     94 O2    c    0.067285 *  0.134257 *  0.741838 *   0.87073    1.000000    
     95 O2    c    0.858823 *  0.935395 *  0.078494 *   0.87073    1.000000    
     96 O2    c    0.062581 *  0.925857 *  0.411186 *   0.87073    1.000000    
     97 O2    c    0.903491 *  0.202946 *  0.973561 *   0.87073    1.000000    
     98 O2    c    0.797052 *  0.696063 *  0.309168 *   0.87073    1.000000    
     99 O2    c    0.296124 *  0.117306 *  0.640157 *   0.87073    1.000000    
    100 O2    c    0.097243 *  0.799997 *  0.476036 *   0.87073    1.000000    
    101 O2    c    0.183597 *  0.302211 *  0.806011 *   0.87073    1.000000    
    102 O2    c    0.696926 *  0.902242 *  0.143244 *   0.87073    1.000000    
    103 O2    c    0.202571 *  0.898213 *  0.350693 *   0.87073    1.000000    
    104 O2    c    0.699409 *  0.792324 *  0.015974 *   0.87073    1.000000    
    105 O2    c    0.105092 *  0.309925 *  0.681500 *   0.87073    1.000000    
    106 O2    c    0.795400 *  0.105531 *  0.848031 *   0.87073    1.000000    
    107 O2    c    0.299177 *  0.206936 *  0.515789 *   0.87073    1.000000    
    108 O2    c    0.899213 *  0.701348 *  0.180819 *   0.87073    1.000000    
    109 O2    c    0.320759 *  0.642400 *  0.245095 *   0.87073    1.000000    
    110 O2    c    0.354992 *  0.683428 *  0.578488 *   0.87073    1.000000    
    111 O2    c    0.323561 *  0.670409 *  0.913218 *   0.87073    1.000000    
    112 O2    c    0.671380 *  0.352876 *  0.744628 *   0.87073    1.000000    
    113 O3    c    0.616443 *  0.303572 *  0.085568 *   1.33043    1.000000    
    114 O2    c    0.677679 *  0.324383 *  0.414142 *   0.87073    1.000000    
    115 O2    c    0.372347 *  0.321769 *  0.960802 *   0.87073    1.000000    
    116 O2    c    0.669940 *  0.040837 *  0.301909 *   0.87073    1.000000    
    117 O2    c    0.957714 *  0.631626 *  0.633130 *   0.87073    1.000000    
    118 O2    c    0.623377 *  0.672138 *  0.465447 *   0.87073    1.000000    
    119 O2    c    0.323184 *  0.957099 *  0.797498 *   0.87073    1.000000    
    120 O2    c    0.037647 *  0.375852 *  0.130155 *   0.87073    1.000000    
    121 O2    c    0.329795 *  0.371791 *  0.357905 *   0.87073    1.000000    
    122 O2    c    0.035561 *  0.664357 *  0.023944 *   0.87073    1.000000    
    123 O3    c    0.634901 *  0.958216 *  0.688195 *   1.33043    1.000000    
    124 O3    c    0.681062 *  0.639008 *  0.855101 *   1.33043    1.000000    
    125 O2    c    0.955113 *  0.333616 *  0.524435 *   0.87073    1.000000    
    126 O2    c    0.372695 *  0.042602 *  0.194842 *   0.87073    1.000000    
    127 O3    c    0.758644 *  0.286755 *  0.001945 *   1.33043    1.000000    
    128 O2    c    0.697130 *  0.465734 *  0.340442 *   0.87073    1.000000    
    129 O2    c    0.529898 *  0.233787 *  0.672496 *   0.87073    1.000000    
    130 O2    c    0.227539 *  0.698813 *  0.506148 *   0.87073    1.000000    
    131 O2    c    0.303167 *  0.535517 *  0.839226 *   0.87073    1.000000    
    132 O2    c    0.465043 *  0.772002 *  0.173149 *   0.87073    1.000000    
    133 O2    c    0.300270 *  0.765279 *  0.318067 *   0.87073    1.000000    
    134 O2    c    0.468951 *  0.693323 *  0.983033 *   0.87073    1.000000    
    135 O2    c    0.233346 *  0.538974 *  0.650116 *   0.87073    1.000000    
    136 O2    c    0.693653 *  0.232116 *  0.814399 *   0.87073    1.000000    
    137 O2    c    0.530612 *  0.305678 *  0.485511 *   0.87073    1.000000    
    138 O2    c    0.762187 *  0.468255 *  0.150286 *   0.87073    1.000000    
    139 O3    c    0.774329 *  0.547008 *  0.019147 *   1.33043    1.000000    
    140 O2    c    0.464952 *  0.247451 *  0.357773 *   0.87073    1.000000    
    141 O2    c    0.739741 *  0.213791 *  0.690427 *   0.87073    1.000000    
    142 O2    c    0.215557 *  0.468824 *  0.523772 *   0.87073    1.000000    
    143 O2    c    0.531651 *  0.746359 *  0.858992 *   0.87073    1.000000    
    144 O2    c    0.244540 *  0.782640 *  0.191976 *   0.87073    1.000000    
    145 O2    c    0.532781 *  0.781792 *  0.300629 *   0.87073    1.000000    
    146 O2    c    0.260160 *  0.464162 *  0.965048 *   0.87073    1.000000    
    147 O2    c    0.215422 *  0.752909 *  0.634792 *   0.87073    1.000000    
    148 O2    c    0.465979 *  0.210504 *  0.797550 *   0.87073    1.000000    
    149 O2    c    0.746784 *  0.537095 *  0.468505 *   0.87073    1.000000    
    150 O2    c    0.781963 *  0.255191 *  0.133932 *   0.87073    1.000000    
    151 O2    c    0.231092 *  0.325113 *  0.890626 *   0.87073    1.000000    
    152 O2    c    0.676235 *  0.907565 *  0.228125 *   0.87073    1.000000    
    153 O2    c    0.092868 *  0.772686 *  0.560801 *   0.87073    1.000000    
    154 O2    c    0.768076 *  0.677038 *  0.394007 *   0.87073    1.000000    
    155 O2    c    0.320757 *  0.091532 *  0.724910 *   0.87073    1.000000    
    156 O2    c    0.898259 *  0.231746 *  0.059775 *   0.87073    1.000000    
    157 O2    c    0.321698 *  0.232216 *  0.431082 *   0.87073    1.000000    
    158 O2    c    0.898051 *  0.670497 *  0.095235 *   0.87073    1.000000    
    159 O2    c    0.761383 *  0.091317 *  0.762546 *   0.87073    1.000000    
    160 O2    c    0.676362 *  0.762038 *  0.930393 *   0.87073    1.000000    
    161 O2    c    0.090751 *  0.326721 *  0.597141 *   0.87073    1.000000    
    162 O2    c    0.230636 *  0.907627 *  0.266502 *   0.87073    1.000000    
    163 O2    c    0.580153 *  0.551800 *  0.984102 *   0.87073    1.000000    
    164 O2    c    0.441170 *  0.023000 *  0.322574 *   0.87073    1.000000    
    165 O2    c    0.973115 *  0.417609 *  0.653057 *   0.87073    1.000000    
    166 O2    c    0.410291 *  0.443844 *  0.485372 *   0.87073    1.000000    
    167 O2    c    0.553841 *  0.976033 *  0.817084 *   0.87073    1.000000    
    168 O2    c    0.017369 *  0.582430 *  0.148651 *   0.87073    1.000000    
    169 O2    c    0.558966 *  0.587474 *  0.338300 *   0.87073    1.000000    
    170 O2    c    0.018776 *  0.437454 *  0.005849 *   0.87073    1.000000    
    171 O3    c    0.394402 *  0.975361 *  0.663374 *   1.33043    1.000000    
    172 O3    c    0.423498 *  0.397174 *  0.830315 *   1.33043    1.000000    
    173 O2    c    0.967510 *  0.562591 *  0.505374 *   0.87073    1.000000    
    174 O2    c    0.590005 *  0.032023 *  0.174625 *   0.87073    1.000000    
    175 O2    c    0.581742 *  0.163552 *  0.250462 *   0.87073    1.000000    
    176 O2    c    0.832395 *  0.419589 *  0.579731 *   0.87073    1.000000    
    177 O3    c    0.590517 *  0.404098 *  0.915634 *   1.33043    1.000000    
    178 O3    c    0.398632 *  0.816852 *  0.749384 *   1.33043    1.000000    
    179 O2    c    0.155072 *  0.580520 *  0.078095 *   0.87073    1.000000    
    180 O2    c    0.414812 *  0.582848 *  0.411617 *   0.87073    1.000000    
    181 F     c    0.449958 *  0.902167 *  0.245515 *   0.56000    1.000000    
    182 F     c    0.089445 *  0.547169 *  0.577628 *   0.56000    1.000000    
    183 F     c    0.473774 *  0.527884 *  0.901990 *   0.56000    1.000000    
    184 F     c    0.523827 *  0.054636 *  0.735280 *   0.56000    1.000000    
    185 F     c    0.854528 *  0.436038 *  0.069510 *   0.56000    1.000000    
    186 F     c    0.546866 *  0.451725 *  0.411006 *   0.56000    1.000000    
    187 O2    s    0.922888 *  0.000854 *  0.994252 *  -2.87073    1.000000    
    188 O2    s    0.001414 *  0.924268 *  0.327658 *  -2.87073    1.000000    
    189 O2    s    0.066447 *  0.077245 *  0.658222 *  -2.87073    1.000000    
    190 O2    s    0.072402 *  0.005058 *  0.492658 *  -2.87073    1.000000    
    191 O2    s    0.993486 *  0.074072 *  0.825544 *  -2.87073    1.000000    
    192 O2    s    0.926125 *  0.929022 *  0.161802 *  -2.87073    1.000000    
    193 O2    s    0.351238 *  0.582998 *  0.327894 *  -2.87073    1.000000    
    194 O3    s    0.412460 *  0.769481 *  0.661095 *  -3.33043    1.000000    
    195 O2    s    0.231802 *  0.642726 *  0.995705 *  -2.87073    1.000000    
    196 O3    s    0.644987 *  0.414022 *  0.827323 *  -3.33043    1.000000    
    197 O2    s    0.585415 *  0.235171 *  0.169554 *  -2.87073    1.000000    
    198 O2    s    0.763649 *  0.355542 *  0.496896 *  -2.87073    1.000000    
    199 O3    s    0.570371 *  0.342608 *  0.999813 *  -3.33043    1.000000    
    200 O2    s    0.766813 *  0.418829 *  0.662517 *  -2.87073    1.000000    
    201 O2    s    0.648577 *  0.231946 *  0.332733 *  -2.87073    1.000000    
    202 O2    s    0.411330 *  0.650599 *  0.495089 *  -2.87073    1.000000    
    203 O2    s    0.230539 *  0.588583 *  0.161779 *  -2.87073    1.000000    
    204 O2    s    0.348059 *  0.770187 *  0.833528 *  -2.87073    1.000000    
    205 O2    s    0.122523 *  0.213818 *  0.963276 *  -2.87073    1.000000    
    206 O2    s    0.781958 *  0.902552 *  0.299967 *  -2.87073    1.000000    
    207 O2    s    0.097223 *  0.884392 *  0.631864 *  -2.87073    1.000000    
    208 O2    s    0.875399 *  0.784665 *  0.465744 *  -2.87073    1.000000    
    209 O2    s    0.214627 *  0.101264 *  0.797155 *  -2.87073    1.000000    
    210 O2    s    0.901668 *  0.123777 *  0.132070 *  -2.87073    1.000000    
    211 O2    s    0.216149 *  0.119711 *  0.359440 *  -2.87073    1.000000    
    212 O2    s    0.912489 *  0.793865 *  0.025870 *  -2.87073    1.000000    
    213 O2    s    0.881656 *  0.106794 *  0.690259 *  -2.87073    1.000000    
    214 O2    s    0.780863 *  0.885753 *  0.858175 *  -2.87073    1.000000    
    215 O2    s    0.092277 *  0.220201 *  0.524836 *  -2.87073    1.000000    
    216 O2    s    0.120305 *  0.906820 *  0.194276 *  -2.87073    1.000000    
    217 O2    s    0.923957 *  0.857377 *  0.244976 *  -2.87073    1.000000    
    218 O2    s    0.131960 *  0.066648 *  0.575823 *  -2.87073    1.000000    
    219 O2    s    0.931709 *  0.073711 *  0.910115 *  -2.87073    1.000000    
    220 O2    s    0.068618 *  0.138783 *  0.742196 *  -2.87073    1.000000    
    221 O2    s    0.856785 *  0.933756 *  0.078625 *  -2.87073    1.000000    
    222 O2    s    0.065193 *  0.925602 *  0.411206 *  -2.87073    1.000000    
    223 O2    s    0.909877 *  0.203420 *  0.976188 *  -2.87073    1.000000    
    224 O2    s    0.795692 *  0.702588 *  0.311666 *  -2.87073    1.000000    
    225 O2    s    0.289658 *  0.106912 *  0.642348 *  -2.87073    1.000000    
    226 O2    s    0.089398 *  0.798569 *  0.478409 *  -2.87073    1.000000    
    227 O2    s    0.187473 *  0.295714 *  0.808334 *  -2.87073    1.000000    
    228 O2    s    0.703313 *  0.909953 *  0.145728 *  -2.87073    1.000000    
    229 O2    s    0.204126 *  0.905833 *  0.347870 *  -2.87073    1.000000    
    230 O2    s    0.705554 *  0.791694 *  0.013206 *  -2.87073    1.000000    
    231 O2    s    0.096662 *  0.303225 *  0.678857 *  -2.87073    1.000000    
    232 O2    s    0.794045 *  0.097479 *  0.845385 *  -2.87073    1.000000    
    233 O2    s    0.293064 *  0.208260 *  0.512987 *  -2.87073    1.000000    
    234 O2    s    0.906223 *  0.707050 *  0.178249 *  -2.87073    1.000000    
    235 O2    s    0.326457 *  0.654168 *  0.245123 *  -2.87073    1.000000    
    236 O2    s    0.344011 *  0.677544 *  0.578285 *  -2.87073    1.000000    
    237 O2    s    0.328901 *  0.665634 *  0.913332 *  -2.87073    1.000000    
    238 O2    s    0.666667 *  0.343193 *  0.744455 *  -2.87073    1.000000    
    239 O3    s    0.629406 *  0.309908 *  0.086854 *  -3.33043    1.000000    
    240 O2    s    0.671608 *  0.330193 *  0.414066 *  -2.87073    1.000000    
    241 O2    s    0.374233 *  0.331300 *  0.959275 *  -2.87073    1.000000    
    242 O2    s    0.659867 *  0.034099 *  0.299727 *  -2.87073    1.000000    
    243 O2    s    0.964402 *  0.628094 *  0.630949 *  -2.87073    1.000000    
    244 O2    s    0.620199 *  0.662000 *  0.463342 *  -2.87073    1.000000    
    245 O2    s    0.332655 *  0.963522 *  0.795530 *  -2.87073    1.000000    
    246 O2    s    0.031414 *  0.379111 *  0.128395 *  -2.87073    1.000000    
    247 O2    s    0.339762 *  0.375254 *  0.360221 *  -2.87073    1.000000    
    248 O2    s    0.029989 *  0.654917 *  0.025830 *  -2.87073    1.000000    
    249 O3    s    0.635683 *  0.968850 *  0.690970 *  -3.33043    1.000000    
    250 O3    s    0.671476 *  0.639838 *  0.858011 *  -3.33043    1.000000    
    251 O2    s    0.961984 *  0.343854 *  0.526862 *  -2.87073    1.000000    
    252 O2    s    0.375580 *  0.035638 *  0.197202 *  -2.87073    1.000000    
    253 O3    s    0.769025 *  0.293421 *  0.005109 *  -3.33043    1.000000    
    254 O2    s    0.689520 *  0.465443 *  0.343634 *  -2.87073    1.000000    
    255 O2    s    0.530753 *  0.227563 *  0.675087 *  -2.87073    1.000000    
    256 O2    s    0.220632 *  0.691570 *  0.509337 *  -2.87073    1.000000    
    257 O2    s    0.309941 *  0.536281 *  0.841941 *  -2.87073    1.000000    
    258 O2    s    0.464407 *  0.778664 *  0.176442 *  -2.87073    1.000000    
    259 O2    s    0.308195 *  0.772492 *  0.315149 *  -2.87073    1.000000    
    260 O2    s    0.467400 *  0.685556 *  0.980356 *  -2.87073    1.000000    
    261 O2    s    0.225835 *  0.538865 *  0.647371 *  -2.87073    1.000000    
    262 O2    s    0.686606 *  0.225153 *  0.812014 *  -2.87073    1.000000    
    263 O2    s    0.531283 *  0.313271 *  0.482459 *  -2.87073    1.000000    
    264 O2    s    0.769091 *  0.467902 *  0.147637 *  -2.87073    1.000000    
    265 O3    s    0.783808 *  0.548864 *  0.022249 *  -3.33043    1.000000    
    266 O2    s    0.467616 *  0.255741 *  0.360438 *  -2.87073    1.000000    
    267 O2    s    0.733380 *  0.210436 *  0.692542 *  -2.87073    1.000000    
    268 O2    s    0.210107 *  0.471628 *  0.526337 *  -2.87073    1.000000    
    269 O2    s    0.528555 *  0.739502 *  0.860958 *  -2.87073    1.000000    
    270 O2    s    0.253042 *  0.788073 *  0.194505 *  -2.87073    1.000000    
    271 O2    s    0.530153 *  0.786916 *  0.298175 *  -2.87073    1.000000    
    272 O2    s    0.266059 *  0.467170 *  0.962751 *  -2.87073    1.000000    
    273 O2    s    0.210303 *  0.746094 *  0.632150 *  -2.87073    1.000000    
    274 O2    s    0.467340 *  0.206941 *  0.795359 *  -2.87073    1.000000    
    275 O2    s    0.739098 *  0.534253 *  0.465874 *  -2.87073    1.000000    
    276 O2    s    0.786129 *  0.260972 *  0.131573 *  -2.87073    1.000000    
    277 O2    s    0.239463 *  0.332974 *  0.891747 *  -2.87073    1.000000    
    278 O2    s    0.666556 *  0.907360 *  0.228985 *  -2.87073    1.000000    
    279 O2    s    0.092901 *  0.763159 *  0.561546 *  -2.87073    1.000000    
    280 O2    s    0.758401 *  0.667321 *  0.394785 *  -2.87073    1.000000    
    281 O2    s    0.329128 *  0.092289 *  0.725934 *  -2.87073    1.000000    
    282 O2    s    0.898187 *  0.239886 *  0.060821 *  -2.87073    1.000000    
    283 O2    s    0.331355 *  0.241622 *  0.430145 *  -2.87073    1.000000    
    284 O2    s    0.897993 *  0.661960 *  0.094846 *  -2.87073    1.000000    
    285 O2    s    0.753026 *  0.091947 *  0.762003 *  -2.87073    1.000000    
    286 O2    s    0.667573 *  0.753869 *  0.929834 *  -2.87073    1.000000    
    287 O2    s    0.091375 *  0.336703 *  0.596187 *  -2.87073    1.000000    
    288 O2    s    0.239807 *  0.907176 *  0.265429 *  -2.87073    1.000000    
    289 O2    s    0.577913 *  0.553701 *  0.981311 *  -2.87073    1.000000    
    290 O2    s    0.440898 *  0.018689 *  0.319164 *  -2.87073    1.000000    
    291 O2    s    0.977941 *  0.422432 *  0.649669 *  -2.87073    1.000000    
    292 O2    s    0.414839 *  0.443483 *  0.482142 *  -2.87073    1.000000    
    293 O2    s    0.554596 *  0.980205 *  0.814237 *  -2.87073    1.000000    
    294 O2    s    0.014149 *  0.578966 *  0.145879 *  -2.87073    1.000000    
    295 O2    s    0.559107 *  0.582595 *  0.341673 *  -2.87073    1.000000    
    296 O2    s    0.015375 *  0.438521 *  0.008694 *  -2.87073    1.000000    
    297 O3    s    0.399129 *  0.984481 *  0.667042 *  -3.33043    1.000000    
    298 O3    s    0.419158 *  0.402095 *  0.833957 *  -3.33043    1.000000    
    299 O2    s    0.973000 *  0.562940 *  0.508758 *  -2.87073    1.000000    
    300 O2    s    0.584812 *  0.026305 *  0.177985 *  -2.87073    1.000000    
    301 O2    s    0.576217 *  0.152323 *  0.250349 *  -2.87073    1.000000    
    302 O2    s    0.843957 *  0.425571 *  0.579679 *  -2.87073    1.000000    
    303 O3    s    0.582921 *  0.408961 *  0.917073 *  -3.33043    1.000000    
    304 O3    s    0.404094 *  0.829676 *  0.751006 *  -3.33043    1.000000    
    305 O2    s    0.145385 *  0.575387 *  0.078155 *  -2.87073    1.000000    
    306 O2    s    0.420297 *  0.577400 *  0.411590 *  -2.87073    1.000000    
    307 F     s    0.449651 *  0.901734 *  0.245270 *  -1.56000    1.000000    
    308 F     s    0.088916 *  0.546692 *  0.577434 *  -1.56000    1.000000    
    309 F     s    0.479738 *  0.524099 *  0.899497 *  -1.56000    1.000000    
    310 F     s    0.519890 *  0.044649 *  0.732864 *  -1.56000    1.000000    
    311 F     s    0.845267 *  0.432475 *  0.067449 *  -1.56000    1.000000    
    312 F     s    0.547099 *  0.451404 *  0.410791 *  -1.56000    1.000000    
--------------------------------------------------------------------------------



********************************************************************************
*  General input information                                                   *
********************************************************************************

  Species output for all configurations : 

--------------------------------------------------------------------------------
  Species    Type    Atomic    Atomic    Charge       Radii (Angs)     Library
                     Number     Mass       (e)     Cova   Ionic  VDW   Symbol
--------------------------------------------------------------------------------
    Si       Core       14      28.09   4.000000   1.200  0.000  2.100          
    O1       Core        8      16.00   1.733957   0.730  0.000  1.360          
    O1       Shell       8       0.00  -3.733957   0.730  0.000  1.360          
    O2       Core        8      16.00   0.870733   0.730  0.000  1.360          
    O2       Shell       8       0.00  -2.870733   0.730  0.000  1.360          
    O3       Core        8      16.00   1.330431   0.730  0.000  1.360          
    O3       Shell       8       0.00  -3.330431   0.730  0.000  1.360          
    F        Core        9      19.00   0.560000   0.710  0.000  1.300          
    F        Shell       9       0.00  -1.560000   0.710  0.000  1.300          
    Ge       Core       32      72.61   4.000000   1.170  0.000  1.750          
--------------------------------------------------------------------------------


  Lattice summation method               =    Ewald          (3-D)
                                         =    Parry          (2-D)
                                         =    Saunders et al (1-D)
  Accuracy factor for lattice sums       =   12.000


  Time limit = Infinity

  Maximum range for interatomic potentials =        16.000000 Angstroms

  Taper potentials to zero over   1.0000 Angstroms using polynomial

  General interatomic potentials :

--------------------------------------------------------------------------------
Atom  Types   Potential         A         B         C         D     Cutoffs(Ang)
  1     2                                                            Min    Max 
--------------------------------------------------------------------------------
Si   c O1   s Buckingham    0.132E+04 0.318      10.1      0.00     0.000 16.000
Si   c O2   s Buckingham    0.132E+04 0.318      10.1      0.00     0.000 16.000
Si   c O3   s Buckingham    0.132E+04 0.318      10.1      0.00     0.000 16.000
Ge   c O1   s Buckingham    0.150E+04 0.326      16.8      0.00     0.000 16.000
Ge   c O2   s Buckingham    0.150E+04 0.326      16.8      0.00     0.000 16.000
Ge   c O3   s Buckingham    0.150E+04 0.326      16.8      0.00     0.000 16.000
O1   s O1   s Buckingham    0.228E+05 0.149      10.9      0.00     0.000 16.000
O1   s O2   s Buckingham    0.228E+05 0.149      10.9      0.00     0.000 16.000
O1   s O3   s Buckingham    0.228E+05 0.149      10.9      0.00     0.000 16.000
O2   s O2   s Buckingham    0.228E+05 0.149      10.9      0.00     0.000 16.000
O2   s O3   s Buckingham    0.228E+05 0.149      10.9      0.00     0.000 16.000
O3   s O3   s Buckingham    0.228E+05 0.149      10.9      0.00     0.000 16.000
Si   c F    s Buckingham     977.     0.282      0.00      0.00     0.000 16.000
Ge   c F    s Buckingham     681.     0.320      0.00      0.00     0.000 16.000
F    s F    s Buckingham     540.     0.262      0.00      0.00     0.000 16.000
O1   s F    s Buckingham    0.168E+04 0.268      0.00      0.00     0.000 16.000
O2   s F    s Buckingham    0.168E+04 0.268      0.00      0.00     0.000 16.000
O3   s F    s Buckingham    0.168E+04 0.268      0.00      0.00     0.000 16.000
O2   c O2   s Spring (c-s)   76.0      0.00      0.00      0.00     0.000  0.800
O3   c O3   s Spring (c-s)   128.      0.00      0.00      0.00     0.000  0.800
O1   c O1   s Spring (c-s)   180.      0.00      0.00      0.00     0.000  0.800
F    c F    s Spring (c-s)   33.5      0.00      0.00      0.00     0.000  0.800
--------------------------------------------------------------------------------

  General Three-body potentials :

  Harmonic form:

--------------------------------------------------------------------------------
Atom    Atom    Atom           Force Constants            Theta     Cutoffs  
  1       2       3     (eVrad**-2/eVrad**-3/eVrad**-4)   (deg)  1-2  1-3  2-3
--------------------------------------------------------------------------------
Si    c O1    s O1    s  1.261        0.0000    0.0000   109.470 0.00 0.00 0.00
                                                                 1.90 1.90 3.50
Si    c O1    s O2    s  1.261        0.0000    0.0000   109.470 0.00 0.00 0.00
                                                                 1.90 1.90 3.50
Si    c O2    s O2    s  1.261        0.0000    0.0000   109.470 0.00 0.00 0.00
                                                                 1.90 1.90 3.50
--------------------------------------------------------------------------------

********************************************************************************
*  Output for configuration   1                                                *
********************************************************************************


  Components of energy : 

--------------------------------------------------------------------------------
  Interatomic potentials     =        2066.79944512 eV
  Three-body potentials      =           0.46289572 eV
  Monopole - monopole (real) =       -6616.87818517 eV
  Monopole - monopole (recip)=       -3171.44378805 eV
  Monopole - monopole (total)=       -9788.32197322 eV
  Neutralising energy        =          -6.46023698 eV
--------------------------------------------------------------------------------
  Total lattice energy       =       -7727.51986936 eV
--------------------------------------------------------------------------------
  Total lattice energy       =         -745587.5414 kJ/(mole unit cells)
--------------------------------------------------------------------------------


  Number of variables =      939

  Maximum number of calculations  =          1000
  Maximum Hessian update interval =            10
  Maximum step size               =   1.000000000
  Maximum parameter tolerance     =   0.000010000
  Maximum function  tolerance     =   0.000010000
  Maximum gradient  tolerance     =   0.001000000
  Maximum gradient  component     =   0.010000000

  Symmetry not applied to optimisation

  Cell parameters to be optimised using strains

  Newton-Raphson optimiser to be used

  BFGS hessian update to be used

  Dumpfile to be written after every cycle

  Start of bulk optimisation :

  Cycle:      0 Energy:     -7727.519869  Gnorm:      0.015702  CPU:    1.061
  ** Hessian calculated **
  Cycle:      1 Energy:     -7727.520401  Gnorm:      0.003051  CPU:    2.638
  Cycle:      2 Energy:     -7727.520534  Gnorm:      0.003834  CPU:    4.020
  Cycle:      3 Energy:     -7727.521023  Gnorm:      0.009091  CPU:    6.061
  Cycle:      4 Energy:     -7727.522486  Gnorm:      0.010285  CPU:    8.182
  Cycle:      5 Energy:     -7727.524876  Gnorm:      0.008756  CPU:   10.222
  Cycle:      6 Energy:     -7727.527565  Gnorm:      0.010659  CPU:   12.262
  Cycle:      7 Energy:     -7727.529929  Gnorm:      0.012195  CPU:   13.973
  Cycle:      8 Energy:     -7727.532316  Gnorm:      0.012727  CPU:   15.355
  Cycle:      9 Energy:     -7727.535387  Gnorm:      0.015384  CPU:   16.736
  Cycle:     10 Energy:     -7727.537462  Gnorm:      0.011088  CPU:   18.118
  ** Hessian calculated **
  Cycle:     11 Energy:     -7727.538412  Gnorm:      0.007152  CPU:   20.524
  Cycle:     12 Energy:     -7727.539329  Gnorm:      0.009008  CPU:   21.905
  Cycle:     13 Energy:     -7727.540669  Gnorm:      0.008083  CPU:   23.287
  Cycle:     14 Energy:     -7727.541516  Gnorm:      0.009027  CPU:   24.817
  Cycle:     15 Energy:     -7727.542645  Gnorm:      0.010900  CPU:   26.199
  Cycle:     16 Energy:     -7727.543508  Gnorm:      0.006433  CPU:   27.581
  Cycle:     17 Energy:     -7727.543951  Gnorm:      0.006219  CPU:   28.962
  Cycle:     18 Energy:     -7727.544413  Gnorm:      0.006246  CPU:   30.510
  Cycle:     19 Energy:     -7727.544845  Gnorm:      0.005526  CPU:   31.892
  Cycle:     20 Energy:     -7727.545214  Gnorm:      0.006033  CPU:   33.273
  ** Hessian calculated **
  Cycle:     21 Energy:     -7727.548163  Gnorm:      0.005966  CPU:   36.821
  Cycle:     22 Energy:     -7727.552787  Gnorm:      0.005860  CPU:   39.190
  Cycle:     23 Energy:     -7727.559691  Gnorm:      0.005698  CPU:   41.559
  Cycle:     24 Energy:     -7727.568092  Gnorm:      0.005494  CPU:   43.599
  Cycle:     25 Energy:     -7727.581693  Gnorm:      0.005148  CPU:   45.968
  Cycle:     26 Energy:     -7727.597956  Gnorm:      0.004701  CPU:   48.007
  Cycle:     27 Energy:     -7727.622444  Gnorm:      0.003939  CPU:   50.376
  Cycle:     28 Energy:     -7727.647380  Gnorm:      0.002982  CPU:   52.416
  Cycle:     29 Energy:     -7727.669315  Gnorm:      0.001768  CPU:   54.456
  Cycle:     30 Energy:     -7727.675327  Gnorm:      0.000647  CPU:   55.838
  ** Hessian calculated **
  Cycle:     31 Energy:     -7727.675332  Gnorm:      0.000364  CPU:   58.071
  Cycle:     32 Energy:     -7727.675333  Gnorm:      0.000228  CPU:   59.453
  Cycle:     33 Energy:     -7727.675334  Gnorm:      0.000251  CPU:   60.989
  Cycle:     34 Energy:     -7727.675334  Gnorm:      0.000195  CPU:   62.371
  Cycle:     35 Energy:     -7727.675335  Gnorm:      0.000173  CPU:   63.753
  Cycle:     36 Energy:     -7727.675335  Gnorm:      0.000183  CPU:   65.135
  Cycle:     37 Energy:     -7727.675336  Gnorm:      0.000151  CPU:   66.614
  Cycle:     38 Energy:     -7727.675336  Gnorm:      0.000154  CPU:   68.001
  Cycle:     39 Energy:     -7727.675336  Gnorm:      0.000116  CPU:   69.383
  Cycle:     40 Energy:     -7727.675336  Gnorm:      0.000129  CPU:   70.765
  ** Hessian calculated **
  Cycle:     41 Energy:     -7727.675336  Gnorm:      0.000077  CPU:   72.998
  Cycle:     42 Energy:     -7727.675337  Gnorm:      0.000101  CPU:   74.380
  Cycle:     43 Energy:     -7727.675337  Gnorm:      0.000082  CPU:   75.762
  Cycle:     44 Energy:     -7727.675337  Gnorm:      0.000090  CPU:   77.144
  Cycle:     45 Energy:     -7727.675337  Gnorm:      0.000089  CPU:   78.527
  Cycle:     46 Energy:     -7727.675337  Gnorm:      0.000083  CPU:   79.909
  Cycle:     47 Energy:     -7727.675337  Gnorm:      0.000093  CPU:   81.291
  Cycle:     48 Energy:     -7727.675337  Gnorm:      0.000085  CPU:   82.673
  Cycle:     49 Energy:     -7727.675337  Gnorm:      0.000104  CPU:   84.186
  Cycle:     50 Energy:     -7727.675338  Gnorm:      0.000114  CPU:   85.567
  ** Hessian calculated **
  Cycle:     51 Energy:     -7727.675338  Gnorm:      0.000066  CPU:   87.804
  Cycle:     52 Energy:     -7727.675338  Gnorm:      0.000053  CPU:   89.359
  Cycle:     53 Energy:     -7727.675338  Gnorm:      0.000053  CPU:   90.741
  Cycle:     54 Energy:     -7727.675338  Gnorm:      0.000052  CPU:   92.123
  Cycle:     55 Energy:     -7727.675338  Gnorm:      0.000052  CPU:   93.505
  Cycle:     56 Energy:     -7727.675338  Gnorm:      0.000056  CPU:   94.887
  Cycle:     57 Energy:     -7727.675338  Gnorm:      0.000049  CPU:   96.269
  Cycle:     58 Energy:     -7727.675338  Gnorm:      0.000066  CPU:   97.651
  Cycle:     59 Energy:     -7727.675338  Gnorm:      0.000050  CPU:   99.033
  Cycle:     60 Energy:     -7727.675338  Gnorm:      0.000074  CPU:  100.582
  ** Hessian calculated **
  Cycle:     61 Energy:     -7727.675338  Gnorm:      0.000074  CPU:  102.830
  Cycle:     62 Energy:     -7727.675338  Gnorm:      0.000074  CPU:  104.212
  Cycle:     63 Energy:     -7727.675338  Gnorm:      0.000073  CPU:  105.742
  Cycle:     64 Energy:     -7727.675339  Gnorm:      0.000073  CPU:  107.124
  Cycle:     65 Energy:     -7727.675339  Gnorm:      0.000072  CPU:  108.506
  Cycle:     66 Energy:     -7727.675339  Gnorm:      0.000071  CPU:  109.888
  Cycle:     67 Energy:     -7727.675339  Gnorm:      0.000070  CPU:  111.422
  Cycle:     68 Energy:     -7727.675340  Gnorm:      0.000067  CPU:  112.804
  Cycle:     69 Energy:     -7727.675342  Gnorm:      0.000060  CPU:  114.186
  Cycle:     70 Energy:     -7727.675344  Gnorm:      0.000049  CPU:  115.568
  ** Hessian calculated **


  **** Optimisation achieved ****


  Final energy =   -7727.67534599 eV
  Final Gnorm  =       0.00003196

  Components of energy : 

--------------------------------------------------------------------------------
  Interatomic potentials     =        2066.82309669 eV
  Three-body potentials      =           0.47194517 eV
  Monopole - monopole (real) =       -6619.09367809 eV
  Monopole - monopole (recip)=       -3169.42059115 eV
  Monopole - monopole (total)=       -9788.51426924 eV
  Neutralising energy        =          -6.45611861 eV
--------------------------------------------------------------------------------
  Total lattice energy       =       -7727.67534599 eV
--------------------------------------------------------------------------------
  Total lattice energy       =         -745602.5426 kJ/(mole unit cells)
--------------------------------------------------------------------------------

  Final fractional coordinates of atoms :

--------------------------------------------------------------------------------
   No.  Atomic        x           y          z          Radius
        Label       (Frac)      (Frac)     (Frac)       (Angs) 
--------------------------------------------------------------------------------
     1  Ge    c     0.699600    0.375700    0.033890    0.000000
     2  Si    c     0.594636    0.312563    0.362261    0.000000
     3  Si    c     0.649776    0.291044    0.692312    0.000000
     4  Si    c     0.266670    0.614383    0.525702    0.000000
     5  Si    c     0.357549    0.663401    0.859756    0.000000
     6  Si    c     0.301787    0.695116    0.193798    0.000000
     7  Si    c     0.351745    0.686412    0.293969    0.000000
     8  Si    c     0.307209    0.606010    0.961832    0.000000
     9  Si    c     0.279190    0.677433    0.627337    0.000000
    10  Si    c     0.594578    0.290261    0.795222    0.000000
    11  Si    c     0.647800    0.372450    0.462684    0.000000
    12  Si    c     0.670218    0.307868    0.131827    0.000000
    13  Si    c     0.520554    0.396877    0.964488    0.000000
    14  Si    c     0.557434    0.097863    0.299514    0.000000
    15  Si    c     0.863624    0.467313    0.629043    0.000000
    16  Si    c     0.437616    0.574338    0.459813    0.000000
    17  Si    c     0.384221    0.866278    0.794246    0.000000
    18  Si    c     0.091974    0.520834    0.128196    0.000000
    19  Si    c     0.389603    0.514790    0.358175    0.000000
    20  Si    c     0.092409    0.571177    0.025348    0.000000
    21  Ge    c     0.446492    0.896021    0.695075    0.000000
    22  Ge    c     0.548496    0.459502    0.865074    0.000000
    23  Si    c     0.858742    0.412739    0.527745    0.000000
    24  Si    c     0.506516    0.099798    0.198160    0.000000
    25  Si    c     0.276731    0.380555    0.841149    0.000000
    26  Si    c     0.580275    0.894448    0.180104    0.000000
    27  Si    c     0.064949    0.691013    0.512352    0.000000
    28  Si    c     0.670661    0.587788    0.344919    0.000000
    29  Si    c     0.367315    0.089505    0.673398    0.000000
    30  Si    c     0.880683    0.284725    0.009708    0.000000
    31  Si    c     0.367864    0.294548    0.474942    0.000000
    32  Si    c     0.877123    0.592116    0.141549    0.000000
    33  Si    c     0.670606    0.082674    0.807348    0.000000
    34  Si    c     0.589114    0.684334    0.975403    0.000000
    35  Si    c     0.075003    0.398032    0.641484    0.000000
    36  Si    c     0.275198    0.887669    0.310708    0.000000
    37  Si    c     0.239480    0.322968    0.944019    0.000000
    38  Si    c     0.633877    0.896566    0.280995    0.000000
    39  Si    c     0.064454    0.744821    0.613253    0.000000
    40  Si    c     0.717485    0.651578    0.445536    0.000000
    41  Si    c     0.310193    0.072249    0.776683    0.000000
    42  Si    c     0.887186    0.240053    0.112850    0.000000
    43  Si    c     0.312590    0.237814    0.374293    0.000000
    44  Si    c     0.892819    0.657579    0.039306    0.000000
    45  Si    c     0.725368    0.078674    0.705259    0.000000
    46  Si    c     0.645820    0.738722    0.873148    0.000000
    47  Si    c     0.059156    0.334615    0.541035    0.000000
    48  Si    c     0.226813    0.900348    0.210171    0.000000
    49  Si    c     0.958430    0.111018    0.958165    0.000000
    50  Si    c     0.851076    0.833909    0.294393    0.000000
    51  Si    c     0.122130    0.025004    0.624538    0.000000
    52  Si    c     0.997021    0.869329    0.460313    0.000000
    53  Si    c     0.093231    0.137922    0.790752    0.000000
    54  Si    c     0.827850    0.963106    0.127857    0.000000
    55  Si    c     0.094320    0.956834    0.359662    0.000000
    56  Si    c     0.835705    0.875219    0.026021    0.000000
    57  Si    c     0.009465    0.151583    0.690185    0.000000
    58  Si    c     0.855807    0.021854    0.857380    0.000000
    59  Si    c     0.118523    0.114917    0.524357    0.000000
    60  Si    c     0.947581    0.840994    0.193253    0.000000
    61  O2    c     0.910533    0.990282    0.991143    0.000000
    62  O2    c     0.975833    0.914898    0.325409    0.000000
    63  O2    c     0.040172    0.067859    0.655354    0.000000
    64  O2    c     0.039234    0.996334    0.490157    0.000000
    65  O2    c     0.968885    0.055539    0.821708    0.000000
    66  O2    c     0.909092    0.920526    0.159264    0.000000
    67  O2    c     0.312885    0.561956    0.325034    0.000000
    68  O3    c     0.398287    0.760138    0.658538    0.000000
    69  O2    c     0.221168    0.642984    0.994436    0.000000
    70  O3    c     0.631417    0.405763    0.827929    0.000000
    71  O2    c     0.559908    0.230334    0.169167    0.000000
    72  O2    c     0.730824    0.335409    0.496053    0.000000
    73  O3    c     0.559130    0.328938    0.001460    0.000000
    74  O2    c     0.738333    0.416833    0.661951    0.000000
    75  O2    c     0.634054    0.223185    0.331870    0.000000
    76  O2    c     0.387568    0.651199    0.491574    0.000000
    77  O2    c     0.217035    0.572137    0.160237    0.000000
    78  O2    c     0.315592    0.751029    0.831480    0.000000
    79  O2    c     0.112594    0.198111    0.964211    0.000000
    80  O2    c     0.759209    0.895798    0.301227    0.000000
    81  O2    c     0.066296    0.873163    0.632777    0.000000
    82  O2    c     0.842599    0.779407    0.465469    0.000000
    83  O2    c     0.186819    0.078007    0.797260    0.000000
    84  O2    c     0.889601    0.117023    0.133948    0.000000
    85  O2    c     0.186771    0.110326    0.354235    0.000000
    86  O2    c     0.910905    0.795138    0.023592    0.000000
    87  O2    c     0.857628    0.093847    0.685795    0.000000
    88  O2    c     0.764862    0.869312    0.854048    0.000000
    89  O2    c     0.056223    0.206634    0.520626    0.000000
    90  O2    c     0.102161    0.903858    0.190158    0.000000
    91  O2    c     0.899729    0.849364    0.242963    0.000000
    92  O2    c     0.104318    0.054234    0.573254    0.000000
    93  O2    c     0.918258    0.063718    0.907009    0.000000
    94  O2    c     0.049644    0.129395    0.739417    0.000000
    95  O2    c     0.840630    0.930218    0.076104    0.000000
    96  O2    c     0.036412    0.916246    0.409230    0.000000
    97  O2    c     0.892334    0.194333    0.971540    0.000000
    98  O2    c     0.770292    0.682733    0.306400    0.000000
    99  O2    c     0.273271    0.106354    0.637638    0.000000
   100  O2    c     0.066297    0.789025    0.474219    0.000000
   101  O2    c     0.164746    0.287590    0.805554    0.000000
   102  O2    c     0.677052    0.893391    0.141279    0.000000
   103  O2    c     0.176332    0.885878    0.348802    0.000000
   104  O2    c     0.685035    0.783634    0.013837    0.000000
   105  O2    c     0.081495    0.303653    0.679649    0.000000
   106  O2    c     0.770056    0.087949    0.846259    0.000000
   107  O2    c     0.270577    0.198054    0.513006    0.000000
   108  O2    c     0.880065    0.690313    0.180087    0.000000
   109  O2    c     0.298522    0.632684    0.242856    0.000000
   110  O2    c     0.326227    0.673346    0.575207    0.000000
   111  O2    c     0.306419    0.656711    0.911423    0.000000
   112  O2    c     0.644972    0.337034    0.743621    0.000000
   113  O3    c     0.606774    0.298825    0.084069    0.000000
   114  O2    c     0.650907    0.315004    0.412573    0.000000
   115  O2    c     0.361008    0.312945    0.961310    0.000000
   116  O2    c     0.644243    0.028178    0.300490    0.000000
   117  O2    c     0.931353    0.623412    0.631962    0.000000
   118  O2    c     0.594019    0.662044    0.462424    0.000000
   119  O2    c     0.298973    0.939481    0.794953    0.000000
   120  O2    c     0.020089    0.365264    0.129382    0.000000
   121  O2    c     0.302424    0.358673    0.354738    0.000000
   122  O2    c     0.024707    0.658820    0.023153    0.000000
   123  O3    c     0.613517    0.948010    0.685229    0.000000
   124  O3    c     0.662758    0.625350    0.853535    0.000000
   125  O2    c     0.926149    0.324128    0.522915    0.000000
   126  O2    c     0.350610    0.031939    0.192589    0.000000
   127  O3    c     0.749366    0.280888    0.000888    0.000000
   128  O2    c     0.670244    0.452994    0.338131    0.000000
   129  O2    c     0.505816    0.222533    0.670731    0.000000
   130  O2    c     0.196854    0.687541    0.503316    0.000000
   131  O2    c     0.284341    0.520049    0.837867    0.000000
   132  O2    c     0.444423    0.762843    0.170773    0.000000
   133  O2    c     0.274462    0.753087    0.316111    0.000000
   134  O2    c     0.452741    0.681894    0.981532    0.000000
   135  O2    c     0.208185    0.531291    0.647532    0.000000
   136  O2    c     0.666597    0.213649    0.813081    0.000000
   137  O2    c     0.502725    0.297294    0.483446    0.000000
   138  O2    c     0.745071    0.458479    0.149476    0.000000
   139  O3    c     0.767413    0.543614    0.017725    0.000000
   140  O2    c     0.438536    0.235307    0.355633    0.000000
   141  O2    c     0.715627    0.202306    0.688458    0.000000
   142  O2    c     0.185646    0.458214    0.521000    0.000000
   143  O2    c     0.512627    0.731642    0.856479    0.000000
   144  O2    c     0.223149    0.772990    0.189324    0.000000
   145  O2    c     0.507418    0.770426    0.299248    0.000000
   146  O2    c     0.245109    0.452103    0.963944    0.000000
   147  O2    c     0.189020    0.743873    0.632476    0.000000
   148  O2    c     0.439801    0.192445    0.795814    0.000000
   149  O2    c     0.718026    0.528156    0.466303    0.000000
   150  O2    c     0.765201    0.245947    0.132683    0.000000
   151  O2    c     0.218714    0.311936    0.890031    0.000000
   152  O2    c     0.652339    0.895747    0.226566    0.000000
   153  O2    c     0.063921    0.762563    0.558934    0.000000
   154  O2    c     0.739097    0.665095    0.391193    0.000000
   155  O2    c     0.296602    0.074974    0.722456    0.000000
   156  O2    c     0.884479    0.223126    0.058520    0.000000
   157  O2    c     0.294408    0.221980    0.428490    0.000000
   158  O2    c     0.882609    0.661693    0.094505    0.000000
   159  O2    c     0.737065    0.077351    0.760326    0.000000
   160  O2    c     0.657953    0.750305    0.928319    0.000000
   161  O2    c     0.064062    0.318905    0.595175    0.000000
   162  O2    c     0.207399    0.896606    0.264394    0.000000
   163  O2    c     0.567124    0.543548    0.983247    0.000000
   164  O2    c     0.415501    0.009632    0.321219    0.000000
   165  O2    c     0.948981    0.411217    0.651650    0.000000
   166  O2    c     0.381796    0.434099    0.482651    0.000000
   167  O2    c     0.529772    0.958550    0.814607    0.000000
   168  O2    c     0.999088    0.571213    0.147766    0.000000
   169  O2    c     0.531238    0.573245    0.334952    0.000000
   170  O2    c     0.004627    0.429247    0.004093    0.000000
   171  O3    c     0.374336    0.965742    0.660006    0.000000
   172  O3    c     0.406606    0.384029    0.829132    0.000000
   173  O2    c     0.937493    0.552676    0.503643    0.000000
   174  O2    c     0.568417    0.021583    0.172965    0.000000
   175  O2    c     0.556110    0.150428    0.249181    0.000000
   176  O2    c     0.805593    0.411680    0.578709    0.000000
   177  O3    c     0.576241    0.394479    0.915283    0.000000
   178  O3    c     0.376743    0.803069    0.746160    0.000000
   179  O2    c     0.137563    0.568672    0.076865    0.000000
   180  O2    c     0.386420    0.570358    0.408367    0.000000
   181  F     c     0.425233    0.889783    0.243344    0.000000
   182  F     c     0.061614    0.538805    0.575320    0.000000
   183  F     c     0.456629    0.515738    0.900912    0.000000
   184  F     c     0.500007    0.040727    0.732935    0.000000
   185  F     c     0.846850    0.431491    0.069121    0.000000
   186  F     c     0.518414    0.440436    0.408173    0.000000
   187  O2    s     0.907395    0.990751    0.991410    0.000000
   188  O2    s     0.974875    0.910385    0.325702    0.000000
   189  O2    s     0.046100    0.072498    0.655798    0.000000
   190  O2    s     0.043289    0.995213    0.490599    0.000000
   191  O2    s     0.970046    0.060976    0.822279    0.000000
   192  O2    s     0.904303    0.916544    0.159504    0.000000
   193  O2    s     0.324698    0.570253    0.325105    0.000000
   194  O3    s     0.388363    0.760222    0.657572    0.000000
   195  O2    s     0.216787    0.631662    0.994234    0.000000
   196  O3    s     0.621704    0.396132    0.826656    0.000000
   197  O2    s     0.565994    0.224858    0.168243    0.000000
   198  O2    s     0.734997    0.347145    0.495725    0.000000
   199  O3    s     0.565038    0.339651    0.999785    0.000000
   200  O2    s     0.741801    0.408876    0.661789    0.000000
   201  O2    s     0.622031    0.218981    0.331525    0.000000
   202  O2    s     0.380714    0.639448    0.491665    0.000000
   203  O2    s     0.211990    0.578854    0.160129    0.000000
   204  O2    s     0.326760    0.753022    0.830864    0.000000
   205  O2    s     0.109080    0.201570    0.961513    0.000000
   206  O2    s     0.755857    0.889300    0.298407    0.000000
   207  O2    s     0.072008    0.876093    0.629942    0.000000
   208  O2    s     0.845981    0.775680    0.462878    0.000000
   209  O2    s     0.189558    0.083742    0.794493    0.000000
   210  O2    s     0.882865    0.113667    0.131129    0.000000
   211  O2    s     0.189875    0.107112    0.356841    0.000000
   212  O2    s     0.901045    0.789608    0.025453    0.000000
   213  O2    s     0.860420    0.098834    0.688428    0.000000
   214  O2    s     0.762122    0.872334    0.856499    0.000000
   215  O2    s     0.063217    0.209893    0.523088    0.000000
   216  O2    s     0.098468    0.896796    0.192519    0.000000
   217  O2    s     0.899821    0.846706    0.242983    0.000000
   218  O2    s     0.107962    0.057874    0.573475    0.000000
   219  O2    s     0.915924    0.064447    0.907335    0.000000
   220  O2    s     0.050164    0.132885    0.739820    0.000000
   221  O2    s     0.838661    0.927782    0.076331    0.000000
   222  O2    s     0.038695    0.915690    0.409219    0.000000
   223  O2    s     0.898489    0.194812    0.974182    0.000000
   224  O2    s     0.768948    0.689295    0.308951    0.000000
   225  O2    s     0.266763    0.096141    0.639838    0.000000
   226  O2    s     0.058687    0.787784    0.476569    0.000000
   227  O2    s     0.168587    0.281205    0.807642    0.000000
   228  O2    s     0.683298    0.900879    0.143766    0.000000
   229  O2    s     0.177974    0.893515    0.345986    0.000000
   230  O2    s     0.691167    0.783157    0.011183    0.000000
   231  O2    s     0.073216    0.296899    0.676984    0.000000
   232  O2    s     0.769263    0.080434    0.843585    0.000000
   233  O2    s     0.264573    0.199277    0.510253    0.000000
   234  O2    s     0.886991    0.696071    0.177417    0.000000
   235  O2    s     0.304253    0.644591    0.242949    0.000000
   236  O2    s     0.315367    0.667533    0.575063    0.000000
   237  O2    s     0.311702    0.651974    0.911536    0.000000
   238  O2    s     0.640445    0.327529    0.743353    0.000000
   239  O3    s     0.619635    0.304820    0.085861    0.000000
   240  O2    s     0.644744    0.320624    0.412437    0.000000
   241  O2    s     0.362386    0.321859    0.959671    0.000000
   242  O2    s     0.634214    0.021502    0.298326    0.000000
   243  O2    s     0.937988    0.619833    0.629748    0.000000
   244  O2    s     0.590962    0.651942    0.460361    0.000000
   245  O2    s     0.308345    0.945950    0.793009    0.000000
   246  O2    s     0.013795    0.368524    0.127533    0.000000
   247  O2    s     0.312423    0.362149    0.357122    0.000000
   248  O2    s     0.018863    0.649463    0.024982    0.000000
   249  O3    s     0.614170    0.958452    0.688065    0.000000
   250  O3    s     0.653293    0.626429    0.856435    0.000000
   251  O2    s     0.933090    0.334323    0.525305    0.000000
   252  O2    s     0.353584    0.025056    0.195005    0.000000
   253  O3    s     0.760368    0.287587    0.004078    0.000000
   254  O2    s     0.662606    0.452753    0.341312    0.000000
   255  O2    s     0.506722    0.216176    0.673260    0.000000
   256  O2    s     0.190114    0.680417    0.506577    0.000000
   257  O2    s     0.291308    0.521109    0.840528    0.000000
   258  O2    s     0.443910    0.769572    0.174124    0.000000
   259  O2    s     0.282486    0.760434    0.313221    0.000000
   260  O2    s     0.451314    0.674171    0.978830    0.000000
   261  O2    s     0.200557    0.531099    0.644827    0.000000
   262  O2    s     0.659870    0.206802    0.810653    0.000000
   263  O2    s     0.503392    0.304760    0.480366    0.000000
   264  O2    s     0.752050    0.458292    0.146878    0.000000
   265  O3    s     0.776948    0.545479    0.021038    0.000000
   266  O2    s     0.441078    0.243583    0.358266    0.000000
   267  O2    s     0.709382    0.198978    0.690591    0.000000
   268  O2    s     0.180311    0.461036    0.523611    0.000000
   269  O2    s     0.509574    0.724916    0.858518    0.000000
   270  O2    s     0.231658    0.778496    0.191953    0.000000
   271  O2    s     0.504884    0.775498    0.296717    0.000000
   272  O2    s     0.251226    0.455170    0.961658    0.000000
   273  O2    s     0.183929    0.737128    0.629844    0.000000
   274  O2    s     0.441320    0.188980    0.793624    0.000000
   275  O2    s     0.710467    0.525286    0.463669    0.000000
   276  O2    s     0.769370    0.251565    0.130398    0.000000
   277  O2    s     0.226722    0.319918    0.891105    0.000000
   278  O2    s     0.642792    0.895690    0.227346    0.000000
   279  O2    s     0.064068    0.753095    0.559692    0.000000
   280  O2    s     0.729623    0.655535    0.392004    0.000000
   281  O2    s     0.304990    0.076039    0.723478    0.000000
   282  O2    s     0.884374    0.231044    0.059493    0.000000
   283  O2    s     0.304013    0.231249    0.427523    0.000000
   284  O2    s     0.882991    0.653733    0.094053    0.000000
   285  O2    s     0.728806    0.078001    0.759817    0.000000
   286  O2    s     0.649379    0.742075    0.927836    0.000000
   287  O2    s     0.064642    0.328728    0.594210    0.000000
   288  O2    s     0.216511    0.896087    0.263388    0.000000
   289  O2    s     0.564923    0.545533    0.980511    0.000000
   290  O2    s     0.415272    0.005543    0.317790    0.000000
   291  O2    s     0.953550    0.415766    0.648235    0.000000
   292  O2    s     0.386331    0.433699    0.479400    0.000000
   293  O2    s     0.530527    0.962850    0.811806    0.000000
   294  O2    s     0.995858    0.567904    0.144971    0.000000
   295  O2    s     0.531531    0.568602    0.338409    0.000000
   296  O2    s     0.001562    0.430116    0.006968    0.000000
   297  O3    s     0.378554    0.974675    0.663764    0.000000
   298  O3    s     0.401731    0.388668    0.832747    0.000000
   299  O2    s     0.943160    0.553050    0.507051    0.000000
   300  O2    s     0.563214    0.015868    0.176288    0.000000
   301  O2    s     0.550900    0.139421    0.249022    0.000000
   302  O2    s     0.817073    0.417509    0.578608    0.000000
   303  O3    s     0.568804    0.399243    0.916703    0.000000
   304  O3    s     0.381989    0.815677    0.747943    0.000000
   305  O2    s     0.128040    0.563903    0.076878    0.000000
   306  O2    s     0.392014    0.564989    0.408425    0.000000
   307  F     s     0.424806    0.889231    0.243060    0.000000
   308  F     s     0.061046    0.538381    0.575095    0.000000
   309  F     s     0.462810    0.511799    0.898330    0.000000
   310  F     s     0.496071    0.030523    0.730368    0.000000
   311  F     s     0.836144    0.427603    0.066574    0.000000
   312  F     s     0.518565    0.440106    0.407931    0.000000
--------------------------------------------------------------------------------

  Final Cartesian lattice vectors (Angstroms) :

       11.960000    0.009018    0.006328
       -5.991983   10.382805   -0.001798
        0.089225   -0.288375   29.488768


  Final cell parameters and derivatives :

--------------------------------------------------------------------------------
       a           11.960005 Angstrom     dE/de1(xx)     0.000721 eV/strain
       b           11.987765 Angstrom     dE/de2(yy)     0.000933 eV/strain
       c           29.490313 Angstrom     dE/de3(zz)     0.001290 eV/strain
       alpha       90.580515 Degrees      dE/de4(yz)     0.000146 eV/strain
       beta        89.796758 Degrees      dE/de5(xz)    -0.000049 eV/strain
       gamma      119.946316 Degrees      dE/de6(xy)     0.000020 eV/strain
--------------------------------------------------------------------------------

  Primitive cell volume =          3663.458989 Angs**3

  Density of cell =      1.746462 g/cm**3

  Non-primitive cell volume =          3663.458989 Angs**3


  Final internal derivatives :

--------------------------------------------------------------------------------
   No.  Atomic          a             b             c           Radius
        Label          (eV)          (eV)          (eV)        (eV/Angs)
--------------------------------------------------------------------------------
      1 Ge    c       0.000000      0.000000      0.000000      0.000000
      2 Si    c       0.000153     -0.000002      0.000935      0.000000
      3 Si    c       0.000249     -0.000087      0.000702      0.000000
      4 Si    c      -0.000292      0.000052      0.000189      0.000000
      5 Si    c       0.000724     -0.001042      0.001834      0.000000
      6 Si    c       0.000460     -0.000359     -0.000387      0.000000
      7 Si    c       0.000520     -0.000100      0.001416      0.000000
      8 Si    c      -0.000266     -0.000406     -0.000354      0.000000
      9 Si    c      -0.000770      0.000221     -0.000970      0.000000
     10 Si    c       0.000541     -0.000476      0.000205      0.000000
     11 Si    c       0.000305     -0.000180     -0.000016      0.000000
     12 Si    c       0.000944      0.000675      0.003910      0.000000
     13 Si    c       0.001008     -0.000632     -0.001859      0.000000
     14 Si    c      -0.000231      0.000134      0.001076      0.000000
     15 Si    c       0.000010     -0.000030      0.000497      0.000000
     16 Si    c      -0.000034      0.000126     -0.000131      0.000000
     17 Si    c      -0.001457      0.001454     -0.001390      0.000000
     18 Si    c      -0.000207      0.000137     -0.001233      0.000000
     19 Si    c      -0.000063      0.000254      0.000498      0.000000
     20 Si    c      -0.000552     -0.000272     -0.000194      0.000000
     21 Ge    c      -0.000969      0.000935      0.000251      0.000000
     22 Ge    c      -0.000803      0.000282      0.002495      0.000000
     23 Si    c      -0.000189      0.000334      0.000651      0.000000
     24 Si    c      -0.000622     -0.000665      0.000137      0.000000
     25 Si    c       0.001621     -0.000428      0.001929      0.000000
     26 Si    c      -0.000139      0.000580     -0.002933      0.000000
     27 Si    c      -0.000345      0.000165     -0.000196      0.000000
     28 Si    c       0.000306     -0.000114      0.000237      0.000000
     29 Si    c       0.000353     -0.000550      0.001881      0.000000
     30 Si    c       0.001020      0.000857      0.001471      0.000000
     31 Si    c       0.000210     -0.000322      0.000535      0.000000
     32 Si    c      -0.000219     -0.000848     -0.002698      0.000000
     33 Si    c      -0.000626      0.001222     -0.000441      0.000000
     34 Si    c       0.000234      0.000219      0.000129      0.000000
     35 Si    c      -0.000243     -0.000134      0.000563      0.000000
     36 Si    c      -0.000219      0.000004      0.000814      0.000000
     37 Si    c       0.001827     -0.000451      0.001620      0.000000
     38 Si    c      -0.000057     -0.000399      0.001145      0.000000
     39 Si    c       0.000136     -0.000056      0.000051      0.000000
     40 Si    c       0.000262     -0.000520      0.000345      0.000000
     41 Si    c       0.000247     -0.000230     -0.001367      0.000000
     42 Si    c       0.000910     -0.000656     -0.001402      0.000000
     43 Si    c       0.000145     -0.000339      0.000747      0.000000
     44 Si    c       0.000763      0.000403     -0.001788      0.000000
     45 Si    c      -0.000799      0.000467     -0.000392      0.000000
     46 Si    c       0.000244     -0.000830      0.000732      0.000000
     47 Si    c      -0.000104     -0.000024      0.000005      0.000000
     48 Si    c      -0.000015      0.000394     -0.001955      0.000000
     49 Si    c      -0.000097     -0.000498     -0.000027      0.000000
     50 Si    c       0.000684     -0.000353      0.000150      0.000000
     51 Si    c       0.000492     -0.000029      0.000236      0.000000
     52 Si    c       0.000639     -0.000308     -0.000599      0.000000
     53 Si    c       0.000621     -0.001675     -0.000783      0.000000
     54 Si    c       0.000272      0.000076     -0.001232      0.000000
     55 Si    c       0.000214     -0.000211      0.001210      0.000000
     56 Si    c       0.000465      0.000634      0.000142      0.000000
     57 Si    c       0.000472     -0.000514      0.000424      0.000000
     58 Si    c       0.000099      0.000323      0.001812      0.000000
     59 Si    c       0.000289     -0.000221      0.000259      0.000000
     60 Si    c       0.000553      0.000463      0.000761      0.000000
     61 O2    c      -0.000240      0.001430     -0.001320      0.000000
     62 O2    c       0.000355     -0.000054      0.000351      0.000000
     63 O2    c      -0.000319     -0.000042      0.000500      0.000000
     64 O2    c       0.000171     -0.000402      0.001642      0.000000
     65 O2    c       0.000677     -0.000352     -0.000065      0.000000
     66 O2    c       0.001193     -0.000469      0.001932      0.000000
     67 O2    c       0.000481     -0.000020      0.000407      0.000000
     68 O3    c      -0.000467      0.000177      0.000263      0.000000
     69 O2    c       0.000108      0.000805     -0.001482      0.000000
     70 O3    c       0.001033     -0.000235      0.001557      0.000000
     71 O2    c       0.000165     -0.000477      0.000213      0.000000
     72 O2    c       0.000128      0.000012     -0.000157      0.000000
     73 O3    c       0.000941      0.001426     -0.007668      0.000000
     74 O2    c      -0.000046     -0.000282      0.000048      0.000000
     75 O2    c       0.000137      0.000078      0.001015      0.000000
     76 O2    c      -0.000008     -0.000021      0.000376      0.000000
     77 O2    c      -0.000096      0.000094      0.001365      0.000000
     78 O2    c      -0.000716      0.001608     -0.001158      0.000000
     79 O2    c      -0.000111      0.000251      0.002038      0.000000
     80 O2    c       0.000426      0.000205     -0.000256      0.000000
     81 O2    c       0.000215      0.000288      0.000093      0.000000
     82 O2    c       0.000365     -0.000400      0.000671      0.000000
     83 O2    c       0.000463      0.001015     -0.000710      0.000000
     84 O2    c       0.000270     -0.000658     -0.002430      0.000000
     85 O2    c       0.000370      0.000089      0.000168      0.000000
     86 O2    c      -0.000217     -0.000862      0.000526      0.000000
     87 O2    c       0.000758      0.000085     -0.000493      0.000000
     88 O2    c       0.000396     -0.000476      0.000741      0.000000
     89 O2    c       0.000194     -0.000214     -0.000422      0.000000
     90 O2    c       0.000708     -0.000624      0.000192      0.000000
     91 O2    c       0.000534     -0.000452      0.000567      0.000000
     92 O2    c       0.000296     -0.000149     -0.000126      0.000000
     93 O2    c      -0.000054     -0.000286      0.001576      0.000000
     94 O2    c       0.000854     -0.000193      0.001433      0.000000
     95 O2    c      -0.000103     -0.000070      0.003315      0.000000
     96 O2    c       0.000299     -0.000217      0.000077      0.000000
     97 O2    c       0.001563     -0.000965     -0.000654      0.000000
     98 O2    c       0.000166     -0.000290      0.000222      0.000000
     99 O2    c      -0.000242     -0.000449      0.000758      0.000000
    100 O2    c      -0.000295      0.000007      0.000711      0.000000
    101 O2    c       0.001042     -0.001110     -0.001267      0.000000
    102 O2    c       0.000181      0.001211      0.000078      0.000000
    103 O2    c       0.000162     -0.000084      0.000100      0.000000
    104 O2    c       0.000713     -0.000787     -0.000470      0.000000
    105 O2    c       0.000021     -0.001014     -0.000061      0.000000
    106 O2    c      -0.000269      0.000019     -0.001735      0.000000
    107 O2    c       0.000027     -0.000187      0.000484      0.000000
    108 O2    c      -0.000422      0.001992      0.001711      0.000000
    109 O2    c      -0.000040     -0.000369     -0.001354      0.000000
    110 O2    c      -0.000003      0.000188      0.000270      0.000000
    111 O2    c       0.000837     -0.000582      0.003676      0.000000
    112 O2    c       0.000156     -0.000390     -0.002639      0.000000
    113 O3    c      -0.000975      0.001709      0.002245      0.000000
    114 O2    c       0.000071     -0.000063     -0.000231      0.000000
    115 O2    c      -0.000430      0.000770      0.000075      0.000000
    116 O2    c      -0.000090      0.000200      0.001059      0.000000
    117 O2    c       0.000050      0.000318     -0.000062      0.000000
    118 O2    c      -0.000064      0.000151      0.000858      0.000000
    119 O2    c       0.000507     -0.000367     -0.000276      0.000000
    120 O2    c       0.000284     -0.000432     -0.000192      0.000000
    121 O2    c      -0.000026     -0.000002     -0.000583      0.000000
    122 O2    c      -0.000817      0.000422     -0.000671      0.000000
    123 O3    c      -0.000783      0.000350      0.000267      0.000000
    124 O3    c      -0.001584      0.001425      0.002799      0.000000
    125 O2    c       0.000112     -0.000271     -0.001117      0.000000
    126 O2    c       0.000087      0.000567     -0.001012      0.000000
    127 O3    c       0.000909     -0.000581      0.002557      0.000000
    128 O2    c       0.000042      0.000083     -0.000274      0.000000
    129 O2    c       0.000203     -0.000650     -0.000440      0.000000
    130 O2    c       0.000299     -0.000046     -0.000202      0.000000
    131 O2    c       0.001379     -0.000129      0.000073      0.000000
    132 O2    c      -0.000347      0.000597     -0.000010      0.000000
    133 O2    c       0.000116     -0.000015      0.001633      0.000000
    134 O2    c      -0.000002     -0.000085      0.001127      0.000000
    135 O2    c      -0.000326      0.000284      0.000083      0.000000
    136 O2    c       0.000451      0.000064      0.001263      0.000000
    137 O2    c       0.000534     -0.000051      0.001177      0.000000
    138 O2    c       0.000560      0.000217     -0.001758      0.000000
    139 O3    c       0.000271      0.000704      0.001287      0.000000
    140 O2    c       0.000257     -0.000193     -0.000012      0.000000
    141 O2    c      -0.000332     -0.000150     -0.000062      0.000000
    142 O2    c       0.000148     -0.000430     -0.000239      0.000000
    143 O2    c       0.000614     -0.000878      0.000492      0.000000
    144 O2    c      -0.000655      0.000897     -0.001023      0.000000
    145 O2    c       0.000492     -0.000086      0.001014      0.000000
    146 O2    c       0.000447     -0.000903      0.000859      0.000000
    147 O2    c       0.000279     -0.000058      0.000563      0.000000
    148 O2    c      -0.000771     -0.000381      0.001306      0.000000
    149 O2    c       0.000354      0.000002      0.000606      0.000000
    150 O2    c      -0.000512     -0.000145     -0.000055      0.000000
    151 O2    c       0.000451     -0.000544     -0.001530      0.000000
    152 O2    c       0.000690     -0.000125      0.000125      0.000000
    153 O2    c      -0.000030      0.000261     -0.000548      0.000000
    154 O2    c       0.000573     -0.000115      0.000434      0.000000
    155 O2    c       0.000200     -0.000403      0.001238      0.000000
    156 O2    c       0.000067     -0.001061      0.002132      0.000000
    157 O2    c       0.000299     -0.000256      0.000113      0.000000
    158 O2    c       0.000898      0.000509     -0.001904      0.000000
    159 O2    c      -0.000462      0.000620      0.000564      0.000000
    160 O2    c       0.001169     -0.000955      0.000574      0.000000
    161 O2    c      -0.000002     -0.000200      0.000270      0.000000
    162 O2    c      -0.000197      0.000397      0.000787      0.000000
    163 O2    c      -0.001488      0.000719      0.001752      0.000000
    164 O2    c       0.000171      0.000075      0.001097      0.000000
    165 O2    c       0.000111     -0.000231      0.000546      0.000000
    166 O2    c       0.000130     -0.000048      0.000774      0.000000
    167 O2    c       0.000151      0.000859      0.000397      0.000000
    168 O2    c       0.000705      0.000037      0.001054      0.000000
    169 O2    c       0.000096     -0.000198     -0.001479      0.000000
    170 O2    c       0.000382     -0.000575      0.003018      0.000000
    171 O3    c      -0.000199     -0.000268      0.000650      0.000000
    172 O3    c      -0.001215      0.001231      0.000510      0.000000
    173 O2    c      -0.000299      0.000236     -0.000648      0.000000
    174 O2    c       0.000812     -0.000144     -0.001456      0.000000
    175 O2    c       0.000325      0.001116      0.001248      0.000000
    176 O2    c      -0.000334      0.000001     -0.001218      0.000000
    177 O3    c      -0.002384      0.001227      0.005473      0.000000
    178 O3    c      -0.000795      0.000774     -0.000485      0.000000
    179 O2    c       0.000143      0.000372     -0.000406      0.000000
    180 O2    c       0.000003      0.000038     -0.000044      0.000000
    181 F     c      -0.000008     -0.000074      0.000038      0.000000
    182 F     c       0.000139     -0.000002      0.000104      0.000000
    183 F     c       0.000205      0.000033     -0.000638      0.000000
    184 F     c      -0.000540      0.000806      0.000489      0.000000
    185 F     c       0.000697     -0.001429     -0.000765      0.000000
    186 F     c       0.000135     -0.000208      0.000084      0.000000
    187 O2    s       0.000708     -0.000454     -0.000349      0.000000
    188 O2    s      -0.000571      0.000181     -0.000414      0.000000
    189 O2    s       0.000162      0.000055     -0.000417      0.000000
    190 O2    s      -0.000105      0.000367     -0.000465      0.000000
    191 O2    s      -0.001060      0.001554      0.001060      0.000000
    192 O2    s      -0.000867      0.001607     -0.000044      0.000000
    193 O2    s       0.000111      0.000218      0.000177      0.000000
    194 O3    s       0.001303     -0.000985      0.000867      0.000000
    195 O2    s       0.001716     -0.000883      0.001039      0.000000
    196 O3    s      -0.000982      0.000783     -0.002295      0.000000
    197 O2    s      -0.000759      0.001993      0.002939      0.000000
    198 O2    s       0.000251     -0.000357      0.000405      0.000000
    199 O3    s      -0.004064     -0.000440      0.004557      0.000000
    200 O2    s       0.000004     -0.000117     -0.000504      0.000000
    201 O2    s      -0.000016     -0.000832     -0.000643      0.000000
    202 O2    s      -0.000009      0.000016      0.000867      0.000000
    203 O2    s       0.000409      0.000354     -0.000671      0.000000
    204 O2    s       0.001432     -0.001028      0.000345      0.000000
    205 O2    s       0.000615     -0.001094     -0.001096      0.000000
    206 O2    s       0.000349     -0.000601     -0.000387      0.000000
    207 O2    s      -0.000150     -0.000058      0.000062      0.000000
    208 O2    s      -0.000322      0.000473      0.000866      0.000000
    209 O2    s       0.001230     -0.000436     -0.000089      0.000000
    210 O2    s       0.000432      0.000060      0.003892      0.000000
    211 O2    s      -0.000126      0.000058     -0.000292      0.000000
    212 O2    s      -0.000349      0.000121     -0.000680      0.000000
    213 O2    s       0.000420     -0.000841      0.000107      0.000000
    214 O2    s      -0.000188      0.000410     -0.000713      0.000000
    215 O2    s       0.000439     -0.000203      0.000282      0.000000
    216 O2    s      -0.000728      0.000440     -0.000113      0.000000
    217 O2    s      -0.000404      0.000343      0.002258      0.000000
    218 O2    s       0.000102      0.000454      0.000995      0.000000
    219 O2    s       0.000306      0.000008     -0.000651      0.000000
    220 O2    s      -0.002014      0.001244     -0.000705      0.000000
    221 O2    s       0.000294     -0.000435      0.000900      0.000000
    222 O2    s      -0.000151      0.000228      0.000849      0.000000
    223 O2    s      -0.000878      0.001215      0.000226      0.000000
    224 O2    s       0.000089      0.000825     -0.000317      0.000000
    225 O2    s      -0.000086      0.000396     -0.000683      0.000000
    226 O2    s       0.000387     -0.000274     -0.000732      0.000000
    227 O2    s      -0.001315      0.000395     -0.001364      0.000000
    228 O2    s       0.001735     -0.001883      0.000793      0.000000
    229 O2    s       0.000118     -0.000266      0.000389      0.000000
    230 O2    s       0.000359     -0.000438      0.002043      0.000000
    231 O2    s       0.000238     -0.000673      0.001691      0.000000
    232 O2    s       0.000795     -0.000405     -0.001105      0.000000
    233 O2    s      -0.000186      0.000020     -0.000001      0.000000
    234 O2    s      -0.000034     -0.000112      0.000059      0.000000
    235 O2    s       0.000567     -0.000304      0.002339      0.000000
    236 O2    s       0.000703     -0.000804      0.000026      0.000000
    237 O2    s      -0.001086      0.001461     -0.002302      0.000000
    238 O2    s       0.000080      0.001017      0.000985      0.000000
    239 O3    s       0.001424     -0.003054     -0.004278      0.000000
    240 O2    s       0.000510     -0.000727      0.000733      0.000000
    241 O2    s      -0.000362     -0.000024      0.001517      0.000000
    242 O2    s       0.000308      0.000138      0.001088      0.000000
    243 O2    s      -0.000422      0.000445      0.000207      0.000000
    244 O2    s       0.000299     -0.000037      0.000694      0.000000
    245 O2    s      -0.001416      0.001120      0.002599      0.000000
    246 O2    s       0.000603     -0.000140      0.000190      0.000000
    247 O2    s       0.000259      0.000023      0.000350      0.000000
    248 O2    s      -0.000399      0.000254      0.000130      0.000000
    249 O3    s       0.001052     -0.001427     -0.000642      0.000000
    250 O3    s       0.002455     -0.001643     -0.002935      0.000000
    251 O2    s       0.000067     -0.000291     -0.000875      0.000000
    252 O2    s       0.000465     -0.000377      0.002173      0.000000
    253 O3    s      -0.000246      0.002583     -0.004863      0.000000
    254 O2    s       0.000132      0.000039      0.000314      0.000000
    255 O2    s      -0.000665      0.000839     -0.001677      0.000000
    256 O2    s       0.000269     -0.000172     -0.001272      0.000000
    257 O2    s      -0.001596      0.000938     -0.000372      0.000000
    258 O2    s       0.001454     -0.001436      0.000325      0.000000
    259 O2    s       0.000196     -0.000428     -0.000296      0.000000
    260 O2    s       0.001145     -0.001196     -0.000351      0.000000
    261 O2    s       0.001037     -0.000490      0.000158      0.000000
    262 O2    s       0.001196     -0.000619     -0.000623      0.000000
    263 O2    s      -0.000208     -0.000233      0.000055      0.000000
    264 O2    s       0.000006     -0.000049      0.000571      0.000000
    265 O3    s      -0.000582      0.000234     -0.001122      0.000000
    266 O2    s      -0.000060      0.000097     -0.000480      0.000000
    267 O2    s       0.000455     -0.000166     -0.001816      0.000000
    268 O2    s       0.000647     -0.000106     -0.001217      0.000000
    269 O2    s      -0.000423      0.002073     -0.001538      0.000000
    270 O2    s       0.000473     -0.000473      0.002053      0.000000
    271 O2    s       0.000429     -0.000354      0.000003      0.000000
    272 O2    s       0.000818      0.000061     -0.000591      0.000000
    273 O2    s      -0.000506      0.000024     -0.000131      0.000000
    274 O2    s       0.000055      0.000868     -0.001085      0.000000
    275 O2    s      -0.000266      0.000175      0.000949      0.000000
    276 O2    s       0.000890      0.001403      0.001695      0.000000
    277 O2    s      -0.000430      0.000954     -0.000174      0.000000
    278 O2    s       0.000352     -0.000175      0.001124      0.000000
    279 O2    s       0.000181     -0.000355      0.000622      0.000000
    280 O2    s      -0.000537      0.000021      0.000906      0.000000
    281 O2    s      -0.000447      0.001084     -0.000161      0.000000
    282 O2    s      -0.000263      0.000960      0.000635      0.000000
    283 O2    s       0.000042      0.000338      0.000255      0.000000
    284 O2    s      -0.000461     -0.000221      0.001163      0.000000
    285 O2    s       0.001169     -0.001562      0.000056      0.000000
    286 O2    s      -0.000771      0.000320     -0.000302      0.000000
    287 O2    s       0.000384     -0.000328      0.000141      0.000000
    288 O2    s       0.000681     -0.000341      0.000685      0.000000
    289 O2    s       0.001142      0.000883     -0.001354      0.000000
    290 O2    s       0.000145     -0.000102      0.001087      0.000000
    291 O2    s       0.000216     -0.000323     -0.000264      0.000000
    292 O2    s       0.000030     -0.000054      0.000377      0.000000
    293 O2    s       0.001436     -0.001743      0.001727      0.000000
    294 O2    s      -0.000826      0.000724      0.000833      0.000000
    295 O2    s       0.000341      0.000284      0.001680      0.000000
    296 O2    s       0.000457      0.000238     -0.003007      0.000000
    297 O3    s      -0.000263      0.000336     -0.002029      0.000000
    298 O3    s       0.001004     -0.001818     -0.001535      0.000000
    299 O2    s       0.000727     -0.000456     -0.000826      0.000000
    300 O2    s      -0.000367     -0.000491      0.002114      0.000000
    301 O2    s      -0.000403     -0.001140      0.000451      0.000000
    302 O2    s       0.000119     -0.000195     -0.000026      0.000000
    303 O3    s       0.002519     -0.002187     -0.003281      0.000000
    304 O3    s       0.002174     -0.002362      0.000578      0.000000
    305 O2    s       0.000990     -0.000005      0.002831      0.000000
    306 O2    s       0.000092      0.000377      0.000338      0.000000
    307 F     s       0.000031     -0.000202      0.000590      0.000000
    308 F     s       0.000004     -0.000031      0.000076      0.000000
    309 F     s       0.000288     -0.000574      0.001795      0.000000
    310 F     s       0.001033     -0.000868     -0.000622      0.000000
    311 F     s      -0.001296      0.001432      0.000457      0.000000
    312 F     s      -0.000078      0.000143      0.000374      0.000000
--------------------------------------------------------------------------------
  Maximum abs         0.004064      0.003054      0.007668      0.000000
--------------------------------------------------------------------------------


  Time to end of optimisation =     117.8015 seconds


  Peak dynamic memory used =      19.13 MB 


  Timing analysis for GULP :

--------------------------------------------------------------------------------
  Task / Subroutine                                          Time (Seconds)
--------------------------------------------------------------------------------
  Calculation of reciprocal space energy and derivatives          3.6643
  Calculation of real space energy and derivatives               99.8034
  Calculation of three-body energy and derivatives               11.7540
  Calculation of matrix inversion                                 1.5589
--------------------------------------------------------------------------------
  Total CPU time                                                117.8015
--------------------------------------------------------------------------------


  Dump file written as out.res                                                 
  CIF file written as out.cif                                                 


  Job Finished at 13:45.32  2nd December   2016                               

