********************************************************************************
*                       GENERAL UTILITY LATTICE PROGRAM                        *
*                                 Julian Gale                                  *
*                      Nanochemistry Research Institute                        *
*                           Department of Chemistry                            *
*                    Curtin University, Western Australia                      *
********************************************************************************
* Version = 4.2.0 * Last modified =  20th January 2014                         *
********************************************************************************
*  optimise     - perform optimisation run                                     *
*  conp         - constant pressure calculation                                *
*  qok          - running with non charge neutral cell is OK                   *
********************************************************************************

  Job Started  at 05:35.09  2nd December   2016                               

  Number of CPUs =     1


  Total number of configurations input =   1

********************************************************************************
*  Input for Configuration =   1                                               *
********************************************************************************

  Formula = Ge3Si57O120F6                                               

  Number of irreducible atoms/shells =     312


  Total number atoms/shells =     312

  Dimensionality = 3               :  Bulk   


  Charge on solid   =  -6.000000 =>neutralising background added


  Cartesian lattice vectors (Angstroms) :

       11.976144    0.000000    0.000000
       -6.079691   10.368102    0.000000
       -0.054809    0.124206   29.415175

  Cell parameters (Angstroms/Degrees):

  a =      11.9761    alpha =  89.7373
  b =      12.0192    beta  =  90.1068
  c =      29.4155    gamma = 120.3867

  Initial cell volume =        3652.478889 Angs**3

  Temperature of configuration =  0.000     K 

  Pressure of configuration =         0.000 GPa 

  Fractional coordinates of asymmetric unit :

--------------------------------------------------------------------------------
   No.  Atomic       x           y          z         Charge      Occupancy
        Label      (Frac)      (Frac)     (Frac)        (e)         (Frac)  
--------------------------------------------------------------------------------
      1 Ge    c    0.699600    0.375700    0.033890     4.00000    1.000000    
      2 Si    c    0.623676 *  0.317828 *  0.364362 *   4.00000    1.000000    
      3 Si    c    0.677868 *  0.302581 *  0.697077 *   4.00000    1.000000    
      4 Si    c    0.293267 *  0.626653 *  0.526713 *   4.00000    1.000000    
      5 Si    c    0.376739 *  0.674012 *  0.859630 *   4.00000    1.000000    
      6 Si    c    0.307341 *  0.698961 *  0.191100 *   4.00000    1.000000    
      7 Si    c    0.356234 *  0.691314 *  0.293328 *   4.00000    1.000000    
      8 Si    c    0.316368 *  0.620646 *  0.959980 *   4.00000    1.000000    
      9 Si    c    0.301321 *  0.684064 *  0.627542 *   4.00000    1.000000    
     10 Si    c    0.620501 *  0.297823 *  0.797810 *   4.00000    1.000000    
     11 Si    c    0.677547 *  0.390323 *  0.466021 *   4.00000    1.000000    
     12 Si    c    0.672941 *  0.307010 *  0.132779 *   4.00000    1.000000    
     13 Si    c    0.527607 *  0.416432 *  0.965774 *   4.00000    1.000000    
     14 Si    c    0.580452 *  0.106007 *  0.301826 *   4.00000    1.000000    
     15 Si    c    0.889723 *  0.477416 *  0.632768 *   4.00000    1.000000    
     16 Si    c    0.466064 *  0.594394 *  0.459561 *   4.00000    1.000000    
     17 Si    c    0.415501 *  0.885207 *  0.794542 *   4.00000    1.000000    
     18 Si    c    0.094536 *  0.524343 *  0.125876 *   4.00000    1.000000    
     19 Si    c    0.407072 *  0.529310 *  0.356827 *   4.00000    1.000000    
     20 Si    c    0.096755 *  0.577179 *  0.022429 *   4.00000    1.000000    
     21 Si    c    0.472310 *  0.894272 *  0.692629 *   4.00000    1.000000    
     22 Si    c    0.581326 *  0.468943 *  0.862949 *   4.00000    1.000000    
     23 Si    c    0.886807 *  0.426079 *  0.531074 *   4.00000    1.000000    
     24 Ge    c    0.518685 *  0.089923 *  0.202779 *   4.00000    1.000000    
     25 Si    c    0.301176 *  0.397556 *  0.846308 *   4.00000    1.000000    
     26 Si    c    0.595501 *  0.897969 *  0.176708 *   4.00000    1.000000    
     27 Si    c    0.093421 *  0.705599 *  0.514007 *   4.00000    1.000000    
     28 Ge    c    0.680548 *  0.586089 *  0.353067 *   4.00000    1.000000    
     29 Si    c    0.400756 *  0.102147 *  0.680046 *   4.00000    1.000000    
     30 Si    c    0.882934 *  0.289272 *  0.008580 *   4.00000    1.000000    
     31 Si    c    0.394584 *  0.310793 *  0.477445 *   4.00000    1.000000    
     32 Si    c    0.880915 *  0.595119 *  0.140219 *   4.00000    1.000000    
     33 Si    c    0.697453 *  0.096098 *  0.810206 *   4.00000    1.000000    
     34 Si    c    0.594292 *  0.698088 *  0.976522 *   4.00000    1.000000    
     35 Si    c    0.099749 *  0.405787 *  0.644633 *   4.00000    1.000000    
     36 Si    c    0.287879 *  0.898794 *  0.310757 *   4.00000    1.000000    
     37 Si    c    0.248691 *  0.341741 *  0.946845 *   4.00000    1.000000    
     38 Si    c    0.648455 *  0.899158 *  0.280135 *   4.00000    1.000000    
     39 Si    c    0.091270 *  0.756334 *  0.615084 *   4.00000    1.000000    
     40 Si    c    0.751036 *  0.675896 *  0.448613 *   4.00000    1.000000    
     41 Si    c    0.338905 *  0.087111 *  0.780718 *   4.00000    1.000000    
     42 Si    c    0.890757 *  0.241911 *  0.112030 *   4.00000    1.000000    
     43 Si    c    0.335881 *  0.249461 *  0.375740 *   4.00000    1.000000    
     44 Si    c    0.894946 *  0.658875 *  0.037425 *   4.00000    1.000000    
     45 Si    c    0.751185 *  0.095701 *  0.709301 *   4.00000    1.000000    
     46 Si    c    0.656652 *  0.747072 *  0.875729 *   4.00000    1.000000    
     47 Si    c    0.085550 *  0.346474 *  0.543785 *   4.00000    1.000000    
     48 Si    c    0.235974 *  0.911897 *  0.208362 *   4.00000    1.000000    
     49 Si    c    0.969530 *  0.121720 *  0.960237 *   4.00000    1.000000    
     50 Si    c    0.864274 *  0.832812 *  0.297146 *   4.00000    1.000000    
     51 Si    c    0.152826 *  0.035592 *  0.629561 *   4.00000    1.000000    
     52 Si    c    0.027497 *  0.887493 *  0.463814 *   4.00000    1.000000    
     53 Si    c    0.122060 *  0.149432 *  0.795095 *   4.00000    1.000000    
     54 Si    c    0.840874 *  0.965681 *  0.127499 *   4.00000    1.000000    
     55 Si    c    0.110571 *  0.968749 *  0.360898 *   4.00000    1.000000    
     56 Si    c    0.844585 *  0.880773 *  0.026089 *   4.00000    1.000000    
     57 Si    c    0.031455 *  0.156636 *  0.694235 *   4.00000    1.000000    
     58 Si    c    0.877199 *  0.025979 *  0.859825 *   4.00000    1.000000    
     59 Si    c    0.147870 *  0.130407 *  0.529002 *   4.00000    1.000000    
     60 Si    c    0.951695 *  0.840102 *  0.194269 *   4.00000    1.000000    
     61 O2    c    0.924805 *  0.002484 *  0.993916 *   0.87073    1.000000    
     62 O2    c    0.991504 *  0.929230 *  0.327189 *   0.87073    1.000000    
     63 O2    c    0.071383 *  0.077379 *  0.660839 *   0.87073    1.000000    
     64 O2    c    0.075868 *  0.013552 *  0.494254 *   0.87073    1.000000    
     65 O2    c    0.996830 *  0.067245 *  0.826081 *   0.87073    1.000000    
     66 O2    c    0.921292 *  0.929196 *  0.161865 *   0.87073    1.000000    
     67 O2    c    0.317936 *  0.568207 *  0.325875 *   0.87073    1.000000    
     68 O2    c    0.426121 *  0.770954 *  0.659224 *   0.87073    1.000000    
     69 O2    c    0.225793 *  0.654583 *  0.991537 *   0.87073    1.000000    
     70 O2    c    0.657902 *  0.418197 *  0.831252 *   0.87073    1.000000    
     71 O3    c    0.571156 *  0.232785 *  0.171042 *   1.33043    1.000000    
     72 O2    c    0.757314 *  0.350567 *  0.500031 *   0.87073    1.000000    
     73 O3    c    0.565483 *  0.337354 *  0.998153 *   1.33043    1.000000    
     74 O2    c    0.765540 *  0.429376 *  0.665640 *   0.87073    1.000000    
     75 O2    c    0.653106 *  0.213961 *  0.341129 *   0.87073    1.000000    
     76 O2    c    0.413357 *  0.666061 *  0.491951 *   0.87073    1.000000    
     77 O2    c    0.221066 *  0.577420 *  0.158243 *   0.87073    1.000000    
     78 O2    c    0.338612 *  0.757770 *  0.825988 *   0.87073    1.000000    
     79 O2    c    0.122680 *  0.214588 *  0.967237 *   0.87073    1.000000    
     80 O2    c    0.765135 *  0.887812 *  0.302329 *   0.87073    1.000000    
     81 O2    c    0.091546 *  0.881720 *  0.635361 *   0.87073    1.000000    
     82 O2    c    0.873869 *  0.798281 *  0.473086 *   0.87073    1.000000    
     83 O2    c    0.211380 *  0.084780 *  0.800512 *   0.87073    1.000000    
     84 O2    c    0.894176 *  0.118445 *  0.133016 *   0.87073    1.000000    
     85 O2    c    0.209727 *  0.123057 *  0.355974 *   0.87073    1.000000    
     86 O2    c    0.912284 *  0.795418 *  0.020319 *   0.87073    1.000000    
     87 O2    c    0.877379 *  0.096277 *  0.688825 *   0.87073    1.000000    
     88 O2    c    0.785034 *  0.872015 *  0.855245 *   0.87073    1.000000    
     89 O2    c    0.081492 *  0.217978 *  0.524317 *   0.87073    1.000000    
     90 O2    c    0.104741 *  0.900082 *  0.189551 *   0.87073    1.000000    
     91 O2    c    0.911540 *  0.849627 *  0.245024 *   0.87073    1.000000    
     92 O2    c    0.137441 *  0.072659 *  0.578541 *   0.87073    1.000000    
     93 O2    c    0.935155 *  0.067047 *  0.909681 *   0.87073    1.000000    
     94 O2    c    0.071886 *  0.139550 *  0.744090 *   0.87073    1.000000    
     95 O2    c    0.860337 *  0.932515 *  0.077022 *   0.87073    1.000000    
     96 O2    c    0.060361 *  0.934544 *  0.412159 *   0.87073    1.000000    
     97 O2    c    0.895965 *  0.199203 *  0.970760 *   0.87073    1.000000    
     98 O3    c    0.795341 *  0.687957 *  0.311037 *   1.33043    1.000000    
     99 O2    c    0.304895 *  0.106641 *  0.641500 *   0.87073    1.000000    
    100 O2    c    0.096384 *  0.805018 *  0.475700 *   0.87073    1.000000    
    101 O2    c    0.204770 *  0.300126 *  0.807490 *   0.87073    1.000000    
    102 O2    c    0.688516 *  0.883556 *  0.139923 *   0.87073    1.000000    
    103 O2    c    0.190839 *  0.896985 *  0.349512 *   0.87073    1.000000    
    104 O2    c    0.691769 *  0.798026 *  0.014748 *   0.87073    1.000000    
    105 O2    c    0.103287 *  0.309177 *  0.682573 *   0.87073    1.000000    
    106 O2    c    0.794761 *  0.095307 *  0.848430 *   0.87073    1.000000    
    107 O2    c    0.300108 *  0.219618 *  0.517233 *   0.87073    1.000000    
    108 O2    c    0.881034 *  0.690829 *  0.179097 *   0.87073    1.000000    
    109 O2    c    0.305582 *  0.644064 *  0.242014 *   0.87073    1.000000    
    110 O2    c    0.355220 *  0.684465 *  0.576460 *   0.87073    1.000000    
    111 O2    c    0.316007 *  0.676042 *  0.909180 *   0.87073    1.000000    
    112 O2    c    0.677642 *  0.357655 *  0.747518 *   0.87073    1.000000    
    113 O3    c    0.608906 *  0.297862 *  0.083970 *   1.33043    1.000000    
    114 O2    c    0.678787 *  0.334436 *  0.416298 *   0.87073    1.000000    
    115 O2    c    0.369380 *  0.331860 *  0.965197 *   0.87073    1.000000    
    116 O2    c    0.662063 *  0.030805 *  0.300064 *   0.87073    1.000000    
    117 O2    c    0.959600 *  0.633741 *  0.634257 *   0.87073    1.000000    
    118 O2    c    0.622369 *  0.682449 *  0.462460 *   0.87073    1.000000    
    119 O2    c    0.328110 *  0.953541 *  0.797643 *   0.87073    1.000000    
    120 O2    c    0.024463 *  0.368995 *  0.128290 *   0.87073    1.000000    
    121 O2    c    0.327575 *  0.371923 *  0.356975 *   0.87073    1.000000    
    122 O2    c    0.026962 *  0.662373 *  0.020735 *   0.87073    1.000000    
    123 O2    c    0.629085 *  0.964393 *  0.689712 *   0.87073    1.000000    
    124 O2    c    0.667209 *  0.625134 *  0.858010 *   0.87073    1.000000    
    125 O2    c    0.952988 *  0.337252 *  0.525735 *   0.87073    1.000000    
    126 O3    c    0.352818 *  0.041802 *  0.190387 *   1.33043    1.000000    
    127 O3    c    0.749984 *  0.282455 *  0.000462 *   1.33043    1.000000    
    128 O3    c    0.697169 *  0.451416 *  0.338073 *   1.33043    1.000000    
    129 O2    c    0.535917 *  0.236785 *  0.673098 *   0.87073    1.000000    
    130 O2    c    0.224723 *  0.701560 *  0.504811 *   0.87073    1.000000    
    131 O2    c    0.302941 *  0.531476 *  0.836551 *   0.87073    1.000000    
    132 O2    c    0.453127 *  0.768361 *  0.171333 *   0.87073    1.000000    
    133 O2    c    0.283088 *  0.761896 *  0.313938 *   0.87073    1.000000    
    134 O2    c    0.459713 *  0.699025 *  0.982802 *   0.87073    1.000000    
    135 O2    c    0.234889 *  0.540723 *  0.649981 *   0.87073    1.000000    
    136 O2    c    0.695773 *  0.228288 *  0.818681 *   0.87073    1.000000    
    137 O2    c    0.529907 *  0.315369 *  0.484692 *   0.87073    1.000000    
    138 O2    c    0.749623 *  0.460493 *  0.147805 *   0.87073    1.000000    
    139 O3    c    0.767671 *  0.544502 *  0.017171 *   1.33043    1.000000    
    140 O2    c    0.465773 *  0.252685 *  0.359946 *   0.87073    1.000000    
    141 O2    c    0.754527 *  0.223964 *  0.690662 *   0.87073    1.000000    
    142 O2    c    0.213137 *  0.469988 *  0.522762 *   0.87073    1.000000    
    143 O2    c    0.533747 *  0.751200 *  0.854952 *   0.87073    1.000000    
    144 O2    c    0.241427 *  0.786828 *  0.189742 *   0.87073    1.000000    
    145 O2    c    0.510814 *  0.780556 *  0.296243 *   0.87073    1.000000    
    146 O2    c    0.243686 *  0.465229 *  0.965842 *   0.87073    1.000000    
    147 O2    c    0.218082 *  0.755819 *  0.632997 *   0.87073    1.000000    
    148 O2    c    0.463969 *  0.211999 *  0.801374 *   0.87073    1.000000    
    149 O2    c    0.741441 *  0.544961 *  0.468756 *   0.87073    1.000000    
    150 O2    c    0.770809 *  0.248143 *  0.132561 *   0.87073    1.000000    
    151 O2    c    0.226952 *  0.323804 *  0.892399 *   0.87073    1.000000    
    152 O2    c    0.662479 *  0.900949 *  0.225644 *   0.87073    1.000000    
    153 O2    c    0.091790 *  0.775477 *  0.560639 *   0.87073    1.000000    
    154 O3    c    0.782187 *  0.697087 *  0.396050 *   1.33043    1.000000    
    155 O2    c    0.323620 *  0.093408 *  0.726235 *   0.87073    1.000000    
    156 O2    c    0.888479 *  0.226935 *  0.057606 *   0.87073    1.000000    
    157 O2    c    0.324949 *  0.241868 *  0.430495 *   0.87073    1.000000    
    158 O2    c    0.888339 *  0.666139 *  0.092895 *   0.87073    1.000000    
    159 O2    c    0.769013 *  0.094886 *  0.763647 *   0.87073    1.000000    
    160 O2    c    0.671961 *  0.767398 *  0.930121 *   0.87073    1.000000    
    161 O2    c    0.090056 *  0.329898 *  0.598058 *   0.87073    1.000000    
    162 O2    c    0.225727 *  0.910436 *  0.263743 *   0.87073    1.000000    
    163 O2    c    0.576221 *  0.559047 *  0.986837 *   0.87073    1.000000    
    164 O2    c    0.432283 *  0.014274 *  0.320604 *   0.87073    1.000000    
    165 O2    c    0.977098 *  0.422891 *  0.654743 *   0.87073    1.000000    
    166 O2    c    0.415970 *  0.453099 *  0.481053 *   0.87073    1.000000    
    167 O2    c    0.556886 *  0.970326 *  0.817635 *   0.87073    1.000000    
    168 O2    c    0.005053 *  0.576639 *  0.146449 *   0.87073    1.000000    
    169 O3    c    0.543063 *  0.590644 *  0.331828 *   1.33043    1.000000    
    170 O2    c    0.006793 *  0.434710 *  0.002024 *   0.87073    1.000000    
    171 O2    c    0.413741 *  0.977271 *  0.669634 *   0.87073    1.000000    
    172 O2    c    0.440165 *  0.409108 *  0.839058 *   0.87073    1.000000    
    173 O2    c    0.965516 *  0.566290 *  0.506202 *   0.87073    1.000000    
    174 O3    c    0.594230 *  0.025927 *  0.166522 *   1.33043    1.000000    
    175 O3    c    0.588831 *  0.175319 *  0.255090 *   1.33043    1.000000    
    176 O2    c    0.834698 *  0.423359 *  0.582107 *   0.87073    1.000000    
    177 O2    c    0.582501 *  0.421666 *  0.914276 *   0.87073    1.000000    
    178 O2    c    0.417238 *  0.836990 *  0.742994 *   0.87073    1.000000    
    179 O2    c    0.141265 *  0.573476 *  0.074529 *   0.87073    1.000000    
    180 O2    c    0.413507 *  0.586166 *  0.408059 *   0.87073    1.000000    
    181 F     c    0.458101 *  0.938671 *  0.237046 *   0.56000    1.000000    
    182 F     c    0.094843 *  0.552450 *  0.577187 *   0.56000    1.000000    
    183 F     c    0.445249 *  0.551822 *  0.909640 *   0.56000    1.000000    
    184 F     c    0.549106 *  0.099461 *  0.743217 *   0.56000    1.000000    
    185 F     c    0.850092 *  0.433548 *  0.067928 *   0.56000    1.000000    
    186 F     c    0.570906 *  0.484418 *  0.401163 *   0.56000    1.000000    
    187 O2    s    0.920622 *  0.002109 *  0.993769 *  -2.87073    1.000000    
    188 O2    s    0.992026 *  0.923969 *  0.327937 *  -2.87073    1.000000    
    189 O2    s    0.076150 *  0.081440 *  0.661004 *  -2.87073    1.000000    
    190 O2    s    0.078630 *  0.012654 *  0.494781 *  -2.87073    1.000000    
    191 O2    s    0.997618 *  0.071919 *  0.826346 *  -2.87073    1.000000    
    192 O2    s    0.915631 *  0.923424 *  0.161606 *  -2.87073    1.000000    
    193 O2    s    0.330540 *  0.577180 *  0.325506 *  -2.87073    1.000000    
    194 O2    s    0.417749 *  0.774343 *  0.659277 *  -2.87073    1.000000    
    195 O2    s    0.221459 *  0.643126 *  0.991582 *  -2.87073    1.000000    
    196 O2    s    0.646298 *  0.410721 *  0.830931 *  -2.87073    1.000000    
    197 O3    s    0.578644 *  0.230696 *  0.169102 *  -3.33043    1.000000    
    198 O2    s    0.762012 *  0.362536 *  0.499560 *  -2.87073    1.000000    
    199 O3    s    0.570711 *  0.348751 *  0.997100 *  -3.33043    1.000000    
    200 O2    s    0.769744 *  0.421635 *  0.665366 *  -2.87073    1.000000    
    201 O2    s    0.642646 *  0.213975 *  0.339619 *  -2.87073    1.000000    
    202 O2    s    0.406772 *  0.654496 *  0.492052 *  -2.87073    1.000000    
    203 O2    s    0.217029 *  0.584656 *  0.158355 *  -2.87073    1.000000    
    204 O2    s    0.350513 *  0.762727 *  0.826075 *  -2.87073    1.000000    
    205 O2    s    0.119000 *  0.217606 *  0.964391 *  -2.87073    1.000000    
    206 O2    s    0.762446 *  0.883553 *  0.299434 *  -2.87073    1.000000    
    207 O2    s    0.098004 *  0.884966 *  0.632664 *  -2.87073    1.000000    
    208 O2    s    0.877653 *  0.795362 *  0.469715 *  -2.87073    1.000000    
    209 O2    s    0.215155 *  0.091840 *  0.797911 *  -2.87073    1.000000    
    210 O2    s    0.888253 *  0.115177 *  0.130304 *  -2.87073    1.000000    
    211 O2    s    0.212893 *  0.120559 *  0.358551 *  -2.87073    1.000000    
    212 O2    s    0.903177 *  0.790645 *  0.022685 *  -2.87073    1.000000    
    213 O2    s    0.880857 *  0.102682 *  0.691478 *  -2.87073    1.000000    
    214 O2    s    0.781749 *  0.875727 *  0.857811 *  -2.87073    1.000000    
    215 O2    s    0.088978 *  0.221758 *  0.526776 *  -2.87073    1.000000    
    216 O2    s    0.102193 *  0.894662 *  0.192142 *  -2.87073    1.000000    
    217 O2    s    0.911067 *  0.846760 *  0.244816 *  -2.87073    1.000000    
    218 O2    s    0.140345 *  0.075199 *  0.578500 *  -2.87073    1.000000    
    219 O2    s    0.932390 *  0.068514 *  0.909684 *  -2.87073    1.000000    
    220 O2    s    0.072838 *  0.142634 *  0.744047 *  -2.87073    1.000000    
    221 O2    s    0.856293 *  0.930586 *  0.077193 *  -2.87073    1.000000    
    222 O2    s    0.062334 *  0.933137 *  0.412204 *  -2.87073    1.000000    
    223 O2    s    0.902674 *  0.200142 *  0.973560 *  -2.87073    1.000000    
    224 O3    s    0.795443 *  0.697492 *  0.312271 *  -3.33043    1.000000    
    225 O2    s    0.298220 *  0.098605 *  0.644065 *  -2.87073    1.000000    
    226 O2    s    0.088812 *  0.803607 *  0.478348 *  -2.87073    1.000000    
    227 O2    s    0.205618 *  0.293716 *  0.810087 *  -2.87073    1.000000    
    228 O2    s    0.694953 *  0.893535 *  0.142367 *  -2.87073    1.000000    
    229 O2    s    0.192505 *  0.904605 *  0.346695 *  -2.87073    1.000000    
    230 O2    s    0.698082 *  0.796735 *  0.012117 *  -2.87073    1.000000    
    231 O2    s    0.095421 *  0.303194 *  0.679878 *  -2.87073    1.000000    
    232 O2    s    0.793381 *  0.088077 *  0.845673 *  -2.87073    1.000000    
    233 O2    s    0.294287 *  0.220091 *  0.514179 *  -2.87073    1.000000    
    234 O2    s    0.888524 *  0.696918 *  0.176733 *  -2.87073    1.000000    
    235 O2    s    0.311015 *  0.654509 *  0.242218 *  -2.87073    1.000000    
    236 O2    s    0.343471 *  0.678509 *  0.576509 *  -2.87073    1.000000    
    237 O2    s    0.322155 *  0.670221 *  0.909339 *  -2.87073    1.000000    
    238 O2    s    0.671871 *  0.345916 *  0.747402 *  -2.87073    1.000000    
    239 O3    s    0.621441 *  0.304111 *  0.085280 *  -3.33043    1.000000    
    240 O2    s    0.673146 *  0.338809 *  0.416393 *  -2.87073    1.000000    
    241 O2    s    0.371647 *  0.341398 *  0.963182 *  -2.87073    1.000000    
    242 O2    s    0.652459 *  0.024531 *  0.298133 *  -2.87073    1.000000    
    243 O2    s    0.966292 *  0.630566 *  0.632069 *  -2.87073    1.000000    
    244 O2    s    0.618949 *  0.672619 *  0.460750 *  -2.87073    1.000000    
    245 O2    s    0.338186 *  0.960577 *  0.795533 *  -2.87073    1.000000    
    246 O2    s    0.018383 *  0.372553 *  0.126399 *  -2.87073    1.000000    
    247 O2    s    0.336479 *  0.374951 *  0.358940 *  -2.87073    1.000000    
    248 O2    s    0.021199 *  0.653029 *  0.022579 *  -2.87073    1.000000    
    249 O2    s    0.625664 *  0.970893 *  0.692068 *  -2.87073    1.000000    
    250 O2    s    0.657299 *  0.621859 *  0.860367 *  -2.87073    1.000000    
    251 O2    s    0.960068 *  0.347335 *  0.528170 *  -2.87073    1.000000    
    252 O3    s    0.350898 *  0.030660 *  0.193203 *  -3.33043    1.000000    
    253 O3    s    0.761187 *  0.289134 *  0.003530 *  -3.33043    1.000000    
    254 O3    s    0.688352 *  0.446849 *  0.341874 *  -3.33043    1.000000    
    255 O2    s    0.536226 *  0.229375 *  0.676302 *  -2.87073    1.000000    
    256 O2    s    0.218007 *  0.694224 *  0.508073 *  -2.87073    1.000000    
    257 O2    s    0.310300 *  0.532070 *  0.839955 *  -2.87073    1.000000    
    258 O2    s    0.451872 *  0.773941 *  0.173995 *  -2.87073    1.000000    
    259 O2    s    0.291243 *  0.768738 *  0.311428 *  -2.87073    1.000000    
    260 O2    s    0.458828 *  0.690960 *  0.979806 *  -2.87073    1.000000    
    261 O2    s    0.227472 *  0.541240 *  0.647068 *  -2.87073    1.000000    
    262 O2    s    0.688209 *  0.221534 *  0.815608 *  -2.87073    1.000000    
    263 O2    s    0.530530 *  0.322656 *  0.481949 *  -2.87073    1.000000    
    264 O2    s    0.757008 *  0.461052 *  0.145507 *  -2.87073    1.000000    
    265 O3    s    0.777569 *  0.546632 *  0.020379 *  -3.33043    1.000000    
    266 O2    s    0.466824 *  0.258747 *  0.362080 *  -2.87073    1.000000    
    267 O2    s    0.746188 *  0.218202 *  0.693286 *  -2.87073    1.000000    
    268 O2    s    0.207767 *  0.472964 *  0.525372 *  -2.87073    1.000000    
    269 O2    s    0.530688 *  0.742688 *  0.857636 *  -2.87073    1.000000    
    270 O2    s    0.248192 *  0.789864 *  0.191755 *  -2.87073    1.000000    
    271 O2    s    0.508676 *  0.783642 *  0.294199 *  -2.87073    1.000000    
    272 O2    s    0.251891 *  0.468408 *  0.963236 *  -2.87073    1.000000    
    273 O2    s    0.212819 *  0.748267 *  0.630489 *  -2.87073    1.000000    
    274 O2    s    0.466789 *  0.207305 *  0.798768 *  -2.87073    1.000000    
    275 O2    s    0.735462 *  0.541884 *  0.466394 *  -2.87073    1.000000    
    276 O2    s    0.775144 *  0.253311 *  0.130243 *  -2.87073    1.000000    
    277 O2    s    0.237038 *  0.333483 *  0.893201 *  -2.87073    1.000000    
    278 O2    s    0.654359 *  0.900498 *  0.226682 *  -2.87073    1.000000    
    279 O2    s    0.091911 *  0.766091 *  0.561470 *  -2.87073    1.000000    
    280 O3    s    0.772084 *  0.687429 *  0.398724 *  -3.33043    1.000000    
    281 O2    s    0.333349 *  0.093660 *  0.727082 *  -2.87073    1.000000    
    282 O2    s    0.888173 *  0.234639 *  0.058634 *  -2.87073    1.000000    
    283 O2    s    0.333498 *  0.250002 *  0.429725 *  -2.87073    1.000000    
    284 O2    s    0.888153 *  0.657716 *  0.092564 *  -2.87073    1.000000    
    285 O2    s    0.759657 *  0.095101 *  0.762680 *  -2.87073    1.000000    
    286 O2    s    0.662299 *  0.758082 *  0.929162 *  -2.87073    1.000000    
    287 O2    s    0.090581 *  0.339597 *  0.597093 *  -2.87073    1.000000    
    288 O2    s    0.233490 *  0.909351 *  0.263302 *  -2.87073    1.000000    
    289 O2    s    0.573045 *  0.560116 *  0.983538 *  -2.87073    1.000000    
    290 O2    s    0.430991 *  0.010483 *  0.317651 *  -2.87073    1.000000    
    291 O2    s    0.981407 *  0.426941 *  0.651341 *  -2.87073    1.000000    
    292 O2    s    0.419044 *  0.452315 *  0.478347 *  -2.87073    1.000000    
    293 O2    s    0.557296 *  0.975234 *  0.814385 *  -2.87073    1.000000    
    294 O2    s    0.001650 *  0.572903 *  0.143608 *  -2.87073    1.000000    
    295 O3    s    0.538562 *  0.583843 *  0.335885 *  -3.33043    1.000000    
    296 O2    s    0.003906 *  0.435502 *  0.004899 *  -2.87073    1.000000    
    297 O2    s    0.418571 *  0.982192 *  0.673118 *  -2.87073    1.000000    
    298 O2    s    0.439867 *  0.414223 *  0.842308 *  -2.87073    1.000000    
    299 O2    s    0.971211 *  0.566735 *  0.509578 *  -2.87073    1.000000    
    300 O3    s    0.589198 *  0.016154 *  0.170001 *  -3.33043    1.000000    
    301 O3    s    0.583287 *  0.162330 *  0.256602 *  -3.33043    1.000000    
    302 O2    s    0.845919 *  0.429232 *  0.581948 *  -2.87073    1.000000    
    303 O2    s    0.577000 *  0.426273 *  0.913825 *  -2.87073    1.000000    
    304 O2    s    0.422793 *  0.847914 *  0.743024 *  -2.87073    1.000000    
    305 O2    s    0.131782 *  0.568619 *  0.074725 *  -2.87073    1.000000    
    306 O2    s    0.418382 *  0.581472 *  0.408396 *  -2.87073    1.000000    
    307 F     s    0.462415 *  0.949262 *  0.234664 *  -1.56000    1.000000    
    308 F     s    0.095061 *  0.552355 *  0.576935 *  -1.56000    1.000000    
    309 F     s    0.444645 *  0.552492 *  0.909404 *  -1.56000    1.000000    
    310 F     s    0.549383 *  0.099998 *  0.742973 *  -1.56000    1.000000    
    311 F     s    0.839428 *  0.429639 *  0.065456 *  -1.56000    1.000000    
    312 F     s    0.578041 *  0.491114 *  0.398051 *  -1.56000    1.000000    
--------------------------------------------------------------------------------



********************************************************************************
*  General input information                                                   *
********************************************************************************

  Species output for all configurations : 

--------------------------------------------------------------------------------
  Species    Type    Atomic    Atomic    Charge       Radii (Angs)     Library
                     Number     Mass       (e)     Cova   Ionic  VDW   Symbol
--------------------------------------------------------------------------------
    Si       Core       14      28.09   4.000000   1.200  0.000  2.100          
    O1       Core        8      16.00   1.733957   0.730  0.000  1.360          
    O1       Shell       8       0.00  -3.733957   0.730  0.000  1.360          
    O2       Core        8      16.00   0.870733   0.730  0.000  1.360          
    O2       Shell       8       0.00  -2.870733   0.730  0.000  1.360          
    O3       Core        8      16.00   1.330431   0.730  0.000  1.360          
    O3       Shell       8       0.00  -3.330431   0.730  0.000  1.360          
    F        Core        9      19.00   0.560000   0.710  0.000  1.300          
    F        Shell       9       0.00  -1.560000   0.710  0.000  1.300          
    Ge       Core       32      72.61   4.000000   1.170  0.000  1.750          
--------------------------------------------------------------------------------


  Lattice summation method               =    Ewald          (3-D)
                                         =    Parry          (2-D)
                                         =    Saunders et al (1-D)
  Accuracy factor for lattice sums       =   12.000


  Time limit = Infinity

  Maximum range for interatomic potentials =        16.000000 Angstroms

  Taper potentials to zero over   1.0000 Angstroms using polynomial

  General interatomic potentials :

--------------------------------------------------------------------------------
Atom  Types   Potential         A         B         C         D     Cutoffs(Ang)
  1     2                                                            Min    Max 
--------------------------------------------------------------------------------
Si   c O1   s Buckingham    0.132E+04 0.318      10.1      0.00     0.000 16.000
Si   c O2   s Buckingham    0.132E+04 0.318      10.1      0.00     0.000 16.000
Si   c O3   s Buckingham    0.132E+04 0.318      10.1      0.00     0.000 16.000
Ge   c O1   s Buckingham    0.150E+04 0.326      16.8      0.00     0.000 16.000
Ge   c O2   s Buckingham    0.150E+04 0.326      16.8      0.00     0.000 16.000
Ge   c O3   s Buckingham    0.150E+04 0.326      16.8      0.00     0.000 16.000
O1   s O1   s Buckingham    0.228E+05 0.149      10.9      0.00     0.000 16.000
O1   s O2   s Buckingham    0.228E+05 0.149      10.9      0.00     0.000 16.000
O1   s O3   s Buckingham    0.228E+05 0.149      10.9      0.00     0.000 16.000
O2   s O2   s Buckingham    0.228E+05 0.149      10.9      0.00     0.000 16.000
O2   s O3   s Buckingham    0.228E+05 0.149      10.9      0.00     0.000 16.000
O3   s O3   s Buckingham    0.228E+05 0.149      10.9      0.00     0.000 16.000
Si   c F    s Buckingham     977.     0.282      0.00      0.00     0.000 16.000
Ge   c F    s Buckingham     681.     0.320      0.00      0.00     0.000 16.000
F    s F    s Buckingham     540.     0.262      0.00      0.00     0.000 16.000
O1   s F    s Buckingham    0.168E+04 0.268      0.00      0.00     0.000 16.000
O2   s F    s Buckingham    0.168E+04 0.268      0.00      0.00     0.000 16.000
O3   s F    s Buckingham    0.168E+04 0.268      0.00      0.00     0.000 16.000
O2   c O2   s Spring (c-s)   76.0      0.00      0.00      0.00     0.000  0.800
O3   c O3   s Spring (c-s)   128.      0.00      0.00      0.00     0.000  0.800
O1   c O1   s Spring (c-s)   180.      0.00      0.00      0.00     0.000  0.800
F    c F    s Spring (c-s)   33.5      0.00      0.00      0.00     0.000  0.800
--------------------------------------------------------------------------------

  General Three-body potentials :

  Harmonic form:

--------------------------------------------------------------------------------
Atom    Atom    Atom           Force Constants            Theta     Cutoffs  
  1       2       3     (eVrad**-2/eVrad**-3/eVrad**-4)   (deg)  1-2  1-3  2-3
--------------------------------------------------------------------------------
Si    c O1    s O1    s  1.261        0.0000    0.0000   109.470 0.00 0.00 0.00
                                                                 1.90 1.90 3.50
Si    c O1    s O2    s  1.261        0.0000    0.0000   109.470 0.00 0.00 0.00
                                                                 1.90 1.90 3.50
Si    c O2    s O2    s  1.261        0.0000    0.0000   109.470 0.00 0.00 0.00
                                                                 1.90 1.90 3.50
--------------------------------------------------------------------------------

********************************************************************************
*  Output for configuration   1                                                *
********************************************************************************


  Components of energy : 

--------------------------------------------------------------------------------
  Interatomic potentials     =        2067.00289215 eV
  Three-body potentials      =           0.49257633 eV
  Monopole - monopole (real) =       -6615.88889071 eV
  Monopole - monopole (recip)=       -3172.59208248 eV
  Monopole - monopole (total)=       -9788.48097319 eV
  Neutralising energy        =          -6.46258161 eV
--------------------------------------------------------------------------------
  Total lattice energy       =       -7727.44808631 eV
--------------------------------------------------------------------------------
  Total lattice energy       =         -745580.6155 kJ/(mole unit cells)
--------------------------------------------------------------------------------


  Number of variables =      939

  Maximum number of calculations  =          1000
  Maximum Hessian update interval =            10
  Maximum step size               =   1.000000000
  Maximum parameter tolerance     =   0.000010000
  Maximum function  tolerance     =   0.000010000
  Maximum gradient  tolerance     =   0.001000000
  Maximum gradient  component     =   0.010000000

  Symmetry not applied to optimisation

  Cell parameters to be optimised using strains

  Newton-Raphson optimiser to be used

  BFGS hessian update to be used

  Dumpfile to be written after every cycle

  Start of bulk optimisation :

  Cycle:      0 Energy:     -7727.448086  Gnorm:      0.000458  CPU:    1.048
  ** Hessian calculated **
  Cycle:      1 Energy:     -7727.466780  Gnorm:      0.001542  CPU:    2.959
  Cycle:      2 Energy:     -7727.466824  Gnorm:      0.000051  CPU:    4.345


  **** Optimisation achieved ****


  Final energy =   -7727.46682496 eV
  Final Gnorm  =       0.00000872

  Components of energy : 

--------------------------------------------------------------------------------
  Interatomic potentials     =        2066.98692083 eV
  Three-body potentials      =           0.49522334 eV
  Monopole - monopole (real) =       -6616.60387696 eV
  Monopole - monopole (recip)=       -3171.88395156 eV
  Monopole - monopole (total)=       -9788.48782852 eV
  Neutralising energy        =          -6.46114062 eV
--------------------------------------------------------------------------------
  Total lattice energy       =       -7727.46682496 eV
--------------------------------------------------------------------------------
  Total lattice energy       =         -745582.4235 kJ/(mole unit cells)
--------------------------------------------------------------------------------

  Final fractional coordinates of atoms :

--------------------------------------------------------------------------------
   No.  Atomic        x           y          z          Radius
        Label       (Frac)      (Frac)     (Frac)       (Angs) 
--------------------------------------------------------------------------------
     1  Ge    c     0.699600    0.375700    0.033890    0.000000
     2  Si    c     0.612010    0.314420    0.365105    0.000000
     3  Si    c     0.669065    0.299908    0.697617    0.000000
     4  Si    c     0.283727    0.624963    0.527797    0.000000
     5  Si    c     0.369515    0.671573    0.860718    0.000000
     6  Si    c     0.297822    0.695918    0.192374    0.000000
     7  Si    c     0.346105    0.689163    0.294719    0.000000
     8  Si    c     0.310953    0.616859    0.961173    0.000000
     9  Si    c     0.292324    0.682391    0.628588    0.000000
    10  Si    c     0.612695    0.295369    0.798372    0.000000
    11  Si    c     0.667010    0.387050    0.466772    0.000000
    12  Si    c     0.664952    0.302942    0.132686    0.000000
    13  Si    c     0.523644    0.413516    0.966202    0.000000
    14  Si    c     0.569425    0.103439    0.302210    0.000000
    15  Si    c     0.880780    0.475515    0.633445    0.000000
    16  Si    c     0.455559    0.591167    0.460825    0.000000
    17  Si    c     0.407667    0.883084    0.795708    0.000000
    18  Si    c     0.086386    0.520184    0.127369    0.000000
    19  Si    c     0.395754    0.526120    0.358127    0.000000
    20  Si    c     0.092839    0.575449    0.023949    0.000000
    21  Si    c     0.463740    0.892159    0.693700    0.000000
    22  Si    c     0.574730    0.467152    0.863217    0.000000
    23  Si    c     0.877444    0.424298    0.531681    0.000000
    24  Ge    c     0.508029    0.086577    0.203025    0.000000
    25  Si    c     0.294590    0.395529    0.847029    0.000000
    26  Si    c     0.585393    0.894767    0.177431    0.000000
    27  Si    c     0.084207    0.703976    0.514981    0.000000
    28  Ge    c     0.668894    0.582765    0.354111    0.000000
    29  Si    c     0.391863    0.099730    0.680823    0.000000
    30  Si    c     0.880677    0.287584    0.009260    0.000000
    31  Si    c     0.384257    0.307570    0.478463    0.000000
    32  Si    c     0.872742    0.590855    0.141229    0.000000
    33  Si    c     0.689694    0.093856    0.811189    0.000000
    34  Si    c     0.589046    0.694600    0.977086    0.000000
    35  Si    c     0.090799    0.404044    0.645504    0.000000
    36  Si    c     0.277118    0.896173    0.311611    0.000000
    37  Si    c     0.244353    0.338548    0.947652    0.000000
    38  Si    c     0.637963    0.896742    0.280982    0.000000
    39  Si    c     0.082243    0.754422    0.616056    0.000000
    40  Si    c     0.740419    0.672730    0.449584    0.000000
    41  Si    c     0.331072    0.084940    0.781623    0.000000
    42  Si    c     0.883434    0.238216    0.112895    0.000000
    43  Si    c     0.324526    0.246268    0.376766    0.000000
    44  Si    c     0.891970    0.658379    0.038480    0.000000
    45  Si    c     0.742583    0.093360    0.710185    0.000000
    46  Si    c     0.649697    0.744810    0.876239    0.000000
    47  Si    c     0.076313    0.344706    0.544634    0.000000
    48  Si    c     0.225555    0.908222    0.209069    0.000000
    49  Si    c     0.965249    0.118829    0.960876    0.000000
    50  Si    c     0.853086    0.829343    0.298053    0.000000
    51  Si    c     0.143621    0.033352    0.630482    0.000000
    52  Si    c     0.016762    0.884882    0.464791    0.000000
    53  Si    c     0.114698    0.147822    0.795893    0.000000
    54  Si    c     0.830799    0.961270    0.128409    0.000000
    55  Si    c     0.099452    0.965760    0.361775    0.000000
    56  Si    c     0.838722    0.878204    0.027039    0.000000
    57  Si    c     0.022945    0.154842    0.695137    0.000000
    58  Si    c     0.869891    0.023802    0.860591    0.000000
    59  Si    c     0.137395    0.127635    0.529885    0.000000
    60  Si    c     0.940867    0.834757    0.195291    0.000000
    61  O2    c     0.919058    0.000126    0.994947    0.000000
    62  O2    c     0.980437    0.925827    0.327999    0.000000
    63  O2    c     0.062810    0.075691    0.661752    0.000000
    64  O2    c     0.064315    0.010984    0.495123    0.000000
    65  O2    c     0.989383    0.065789    0.826803    0.000000
    66  O2    c     0.909631    0.923115    0.162843    0.000000
    67  O2    c     0.307093    0.565916    0.327309    0.000000
    68  O2    c     0.417074    0.768851    0.660317    0.000000
    69  O2    c     0.222136    0.651824    0.993220    0.000000
    70  O2    c     0.650924    0.416456    0.831416    0.000000
    71  O3    c     0.561384    0.228411    0.170488    0.000000
    72  O2    c     0.747957    0.348291    0.500671    0.000000
    73  O3    c     0.564598    0.336178    0.998016    0.000000
    74  O2    c     0.756328    0.426795    0.666159    0.000000
    75  O2    c     0.641655    0.211222    0.341548    0.000000
    76  O2    c     0.403723    0.663643    0.493099    0.000000
    77  O2    c     0.212042    0.573154    0.160073    0.000000
    78  O2    c     0.331112    0.755761    0.827307    0.000000
    79  O2    c     0.118596    0.210210    0.967692    0.000000
    80  O2    c     0.754878    0.885462    0.303035    0.000000
    81  O2    c     0.082367    0.879558    0.636412    0.000000
    82  O2    c     0.863290    0.794882    0.474062    0.000000
    83  O2    c     0.203716    0.082876    0.801374    0.000000
    84  O2    c     0.885403    0.114159    0.134046    0.000000
    85  O2    c     0.198223    0.120135    0.357009    0.000000
    86  O2    c     0.908872    0.794962    0.021772    0.000000
    87  O2    c     0.868875    0.094114    0.689807    0.000000
    88  O2    c     0.777613    0.870065    0.855697    0.000000
    89  O2    c     0.072081    0.216171    0.525234    0.000000
    90  O2    c     0.093915    0.895632    0.190380    0.000000
    91  O2    c     0.900385    0.844399    0.245969    0.000000
    92  O2    c     0.127129    0.069777    0.579439    0.000000
    93  O2    c     0.928382    0.063541    0.910472    0.000000
    94  O2    c     0.064309    0.138161    0.744915    0.000000
    95  O2    c     0.851167    0.928926    0.077946    0.000000
    96  O2    c     0.049043    0.931340    0.413026    0.000000
    97  O2    c     0.894125    0.198545    0.971354    0.000000
    98  O3    c     0.783480    0.684609    0.312070    0.000000
    99  O2    c     0.295734    0.104149    0.642312    0.000000
   100  O2    c     0.086771    0.803543    0.476751    0.000000
   101  O2    c     0.197561    0.298390    0.808300    0.000000
   102  O2    c     0.678343    0.880294    0.140653    0.000000
   103  O2    c     0.180211    0.894655    0.350321    0.000000
   104  O2    c     0.686579    0.794299    0.015262    0.000000
   105  O2    c     0.094328    0.307315    0.683437    0.000000
   106  O2    c     0.787247    0.093133    0.849418    0.000000
   107  O2    c     0.289658    0.215910    0.518145    0.000000
   108  O2    c     0.871288    0.685531    0.180174    0.000000
   109  O2    c     0.295756    0.641856    0.243442    0.000000
   110  O2    c     0.346128    0.683026    0.577471    0.000000
   111  O2    c     0.309359    0.672598    0.910476    0.000000
   112  O2    c     0.669305    0.354991    0.748025    0.000000
   113  O3    c     0.605143    0.296239    0.083402    0.000000
   114  O2    c     0.667240    0.330611    0.417066    0.000000
   115  O2    c     0.365273    0.328941    0.965945    0.000000
   116  O2    c     0.651274    0.028450    0.300629    0.000000
   117  O2    c     0.950501    0.631727    0.635095    0.000000
   118  O2    c     0.611802    0.678897    0.463648    0.000000
   119  O2    c     0.320321    0.951449    0.798714    0.000000
   120  O2    c     0.016521    0.364892    0.129686    0.000000
   121  O2    c     0.316018    0.368801    0.358162    0.000000
   122  O2    c     0.024257    0.661838    0.022208    0.000000
   123  O2    c     0.620438    0.962067    0.690684    0.000000
   124  O2    c     0.660360    0.623314    0.858241    0.000000
   125  O2    c     0.944015    0.335876    0.526504    0.000000
   126  O3    c     0.341994    0.038327    0.190943    0.000000
   127  O3    c     0.748356    0.281713    0.000654    0.000000
   128  O3    c     0.685363    0.448225    0.338943    0.000000
   129  O2    c     0.527030    0.234158    0.673726    0.000000
   130  O2    c     0.215544    0.700135    0.505711    0.000000
   131  O2    c     0.295641    0.529252    0.837587    0.000000
   132  O2    c     0.443249    0.764932    0.172394    0.000000
   133  O2    c     0.272921    0.759670    0.315243    0.000000
   134  O2    c     0.454476    0.695083    0.983739    0.000000
   135  O2    c     0.225835    0.538876    0.650928    0.000000
   136  O2    c     0.687974    0.226005    0.819453    0.000000
   137  O2    c     0.519660    0.312277    0.485689    0.000000
   138  O2    c     0.741465    0.456096    0.148165    0.000000
   139  O3    c     0.766253    0.544026    0.017391    0.000000
   140  O2    c     0.454175    0.249434    0.360797    0.000000
   141  O2    c     0.745762    0.221371    0.691281    0.000000
   142  O2    c     0.203811    0.468360    0.523721    0.000000
   143  O2    c     0.526384    0.748870    0.855835    0.000000
   144  O2    c     0.231647    0.783550    0.190478    0.000000
   145  O2    c     0.500650    0.778437    0.297492    0.000000
   146  O2    c     0.238503    0.461344    0.966923    0.000000
   147  O2    c     0.209052    0.754054    0.634071    0.000000
   148  O2    c     0.456232    0.209728    0.802186    0.000000
   149  O2    c     0.731091    0.541614    0.469446    0.000000
   150  O2    c     0.762835    0.244065    0.132832    0.000000
   151  O2    c     0.221730    0.321113    0.893223    0.000000
   152  O2    c     0.652048    0.898125    0.226498    0.000000
   153  O2    c     0.082783    0.773875    0.561598    0.000000
   154  O3    c     0.770721    0.693955    0.396974    0.000000
   155  O2    c     0.315377    0.091149    0.727131    0.000000
   156  O2    c     0.883908    0.224468    0.058431    0.000000
   157  O2    c     0.314380    0.238697    0.431546    0.000000
   158  O2    c     0.882179    0.663058    0.093907    0.000000
   159  O2    c     0.760763    0.092624    0.764539    0.000000
   160  O2    c     0.665887    0.764586    0.930630    0.000000
   161  O2    c     0.080893    0.328278    0.598924    0.000000
   162  O2    c     0.214840    0.906642    0.264438    0.000000
   163  O2    c     0.571926    0.555989    0.987288    0.000000
   164  O2    c     0.421428    0.011998    0.321097    0.000000
   165  O2    c     0.968195    0.421134    0.655505    0.000000
   166  O2    c     0.405391    0.449708    0.482263    0.000000
   167  O2    c     0.549128    0.968247    0.818702    0.000000
   168  O2    c     0.996588    0.572153    0.147795    0.000000
   169  O3    c     0.531410    0.587346    0.332953    0.000000
   170  O2    c     0.003640    0.433504    0.003148    0.000000
   171  O2    c     0.405006    0.974958    0.670598    0.000000
   172  O2    c     0.433588    0.407708    0.839342    0.000000
   173  O2    c     0.956370    0.564773    0.507008    0.000000
   174  O3    c     0.583560    0.022262    0.166994    0.000000
   175  O3    c     0.577735    0.172383    0.255327    0.000000
   176  O2    c     0.825907    0.421812    0.582755    0.000000
   177  O2    c     0.576712    0.419391    0.914376    0.000000
   178  O2    c     0.409088    0.834922    0.744139    0.000000
   179  O2    c     0.135190    0.570297    0.076227    0.000000
   180  O2    c     0.402600    0.582798    0.409362    0.000000
   181  F     c     0.447681    0.935765    0.237642    0.000000
   182  F     c     0.086518    0.551640    0.578040    0.000000
   183  F     c     0.439138    0.548989    0.910394    0.000000
   184  F     c     0.540914    0.097170    0.744070    0.000000
   185  F     c     0.847388    0.432109    0.068688    0.000000
   186  F     c     0.559639    0.480921    0.402234    0.000000
   187  O2    s     0.915036    0.999673    0.994742    0.000000
   188  O2    s     0.980956    0.920616    0.328765    0.000000
   189  O2    s     0.067528    0.079677    0.661914    0.000000
   190  O2    s     0.067281    0.010061    0.495661    0.000000
   191  O2    s     0.990181    0.070368    0.827088    0.000000
   192  O2    s     0.904203    0.917589    0.162576    0.000000
   193  O2    s     0.319753    0.574821    0.326927    0.000000
   194  O2    s     0.408756    0.772275    0.660362    0.000000
   195  O2    s     0.217533    0.640343    0.993214    0.000000
   196  O2    s     0.639248    0.408878    0.831144    0.000000
   197  O3    s     0.568945    0.226399    0.168675    0.000000
   198  O2    s     0.752525    0.360185    0.500212    0.000000
   199  O3    s     0.569273    0.347525    0.996928    0.000000
   200  O2    s     0.760618    0.419112    0.665899    0.000000
   201  O2    s     0.631221    0.211193    0.340070    0.000000
   202  O2    s     0.397067    0.652061    0.493200    0.000000
   203  O2    s     0.208010    0.580538    0.160085    0.000000
   204  O2    s     0.342978    0.760652    0.827356    0.000000
   205  O2    s     0.114793    0.213431    0.964916    0.000000
   206  O2    s     0.752082    0.881094    0.300178    0.000000
   207  O2    s     0.088837    0.882833    0.633696    0.000000
   208  O2    s     0.867052    0.792067    0.470691    0.000000
   209  O2    s     0.207502    0.089936    0.798773    0.000000
   210  O2    s     0.879496    0.110959    0.131300    0.000000
   211  O2    s     0.201439    0.117598    0.359566    0.000000
   212  O2    s     0.899574    0.789863    0.024051    0.000000
   213  O2    s     0.872347    0.100536    0.692441    0.000000
   214  O2    s     0.774396    0.873737    0.858303    0.000000
   215  O2    s     0.079467    0.219856    0.527682    0.000000
   216  O2    s     0.091438    0.890208    0.192980    0.000000
   217  O2    s     0.899964    0.841720    0.245757    0.000000
   218  O2    s     0.130142    0.072409    0.579392    0.000000
   219  O2    s     0.925868    0.065249    0.910476    0.000000
   220  O2    s     0.065178    0.141177    0.744876    0.000000
   221  O2    s     0.847393    0.927005    0.078104    0.000000
   222  O2    s     0.051111    0.930030    0.413082    0.000000
   223  O2    s     0.900536    0.199227    0.974212    0.000000
   224  O3    s     0.783663    0.694143    0.313299    0.000000
   225  O2    s     0.289094    0.096161    0.644879    0.000000
   226  O2    s     0.079116    0.802009    0.479380    0.000000
   227  O2    s     0.198449    0.291957    0.810883    0.000000
   228  O2    s     0.684819    0.890157    0.143105    0.000000
   229  O2    s     0.181813    0.902185    0.347518    0.000000
   230  O2    s     0.692916    0.793189    0.012676    0.000000
   231  O2    s     0.086503    0.301356    0.680742    0.000000
   232  O2    s     0.785883    0.085919    0.846652    0.000000
   233  O2    s     0.283856    0.216539    0.515096    0.000000
   234  O2    s     0.878814    0.691713    0.177806    0.000000
   235  O2    s     0.301227    0.652287    0.243626    0.000000
   236  O2    s     0.334346    0.677022    0.577529    0.000000
   237  O2    s     0.315572    0.666858    0.910588    0.000000
   238  O2    s     0.663520    0.343222    0.747911    0.000000
   239  O3    s     0.617503    0.302277    0.084933    0.000000
   240  O2    s     0.661714    0.335074    0.417165    0.000000
   241  O2    s     0.367436    0.338383    0.963913    0.000000
   242  O2    s     0.641709    0.022150    0.298710    0.000000
   243  O2    s     0.957209    0.628560    0.632904    0.000000
   244  O2    s     0.608399    0.669138    0.461924    0.000000
   245  O2    s     0.330374    0.958459    0.796600    0.000000
   246  O2    s     0.010475    0.368476    0.127750    0.000000
   247  O2    s     0.324972    0.371823    0.360121    0.000000
   248  O2    s     0.018348    0.652424    0.024013    0.000000
   249  O2    s     0.617037    0.968579    0.693038    0.000000
   250  O2    s     0.650472    0.620021    0.860631    0.000000
   251  O2    s     0.951018    0.345875    0.528929    0.000000
   252  O3    s     0.340178    0.027239    0.193747    0.000000
   253  O3    s     0.759528    0.288453    0.003799    0.000000
   254  O3    s     0.676563    0.443612    0.342747    0.000000
   255  O2    s     0.527338    0.226760    0.676933    0.000000
   256  O2    s     0.208790    0.692766    0.508993    0.000000
   257  O2    s     0.303082    0.529863    0.840962    0.000000
   258  O2    s     0.442023    0.770593    0.175047    0.000000
   259  O2    s     0.281026    0.766493    0.312695    0.000000
   260  O2    s     0.453567    0.687057    0.980721    0.000000
   261  O2    s     0.218426    0.539408    0.648018    0.000000
   262  O2    s     0.680424    0.219211    0.816383    0.000000
   263  O2    s     0.520257    0.319519    0.482928    0.000000
   264  O2    s     0.748961    0.456830    0.145907    0.000000
   265  O3    s     0.776005    0.546037    0.020687    0.000000
   266  O2    s     0.455253    0.255489    0.362940    0.000000
   267  O2    s     0.737438    0.215634    0.693923    0.000000
   268  O2    s     0.198387    0.471259    0.526335    0.000000
   269  O2    s     0.523384    0.740358    0.858500    0.000000
   270  O2    s     0.238366    0.786589    0.192542    0.000000
   271  O2    s     0.498482    0.781482    0.295424    0.000000
   272  O2    s     0.246745    0.464603    0.964309    0.000000
   273  O2    s     0.203790    0.746495    0.631550    0.000000
   274  O2    s     0.459006    0.205008    0.799567    0.000000
   275  O2    s     0.725061    0.538547    0.467118    0.000000
   276  O2    s     0.767293    0.249264    0.130547    0.000000
   277  O2    s     0.231771    0.330818    0.894010    0.000000
   278  O2    s     0.643953    0.897683    0.227519    0.000000
   279  O2    s     0.082879    0.764454    0.562432    0.000000
   280  O3    s     0.760696    0.684285    0.399673    0.000000
   281  O2    s     0.325087    0.091394    0.727958    0.000000
   282  O2    s     0.883540    0.232129    0.059420    0.000000
   283  O2    s     0.322871    0.246819    0.430761    0.000000
   284  O2    s     0.882103    0.654784    0.093553    0.000000
   285  O2    s     0.751417    0.092830    0.763587    0.000000
   286  O2    s     0.656210    0.755252    0.929674    0.000000
   287  O2    s     0.081430    0.337947    0.597952    0.000000
   288  O2    s     0.222687    0.905699    0.264019    0.000000
   289  O2    s     0.568706    0.557123    0.984003    0.000000
   290  O2    s     0.420122    0.008136    0.318171    0.000000
   291  O2    s     0.972495    0.425168    0.652104    0.000000
   292  O2    s     0.408500    0.448954    0.479546    0.000000
   293  O2    s     0.549530    0.973127    0.815457    0.000000
   294  O2    s     0.993240    0.568480    0.144935    0.000000
   295  O3    s     0.526966    0.580559    0.337023    0.000000
   296  O2    s     0.000713    0.434143    0.006026    0.000000
   297  O2    s     0.409828    0.979902    0.674071    0.000000
   298  O2    s     0.433244    0.412705    0.842632    0.000000
   299  O2    s     0.961994    0.565124    0.510384    0.000000
   300  O3    s     0.578594    0.012526    0.170487    0.000000
   301  O3    s     0.572249    0.159445    0.256857    0.000000
   302  O2    s     0.837061    0.427624    0.582586    0.000000
   303  O2    s     0.571289    0.424017    0.913946    0.000000
   304  O2    s     0.414626    0.845824    0.744164    0.000000
   305  O2    s     0.125691    0.565491    0.076358    0.000000
   306  O2    s     0.407484    0.578122    0.409684    0.000000
   307  F     s     0.451962    0.946300    0.235241    0.000000
   308  F     s     0.086829    0.551634    0.577784    0.000000
   309  F     s     0.438523    0.549651    0.910168    0.000000
   310  F     s     0.541201    0.097707    0.743826    0.000000
   311  F     s     0.836623    0.428197    0.066063    0.000000
   312  F     s     0.566756    0.487632    0.399110    0.000000
--------------------------------------------------------------------------------

  Final Cartesian lattice vectors (Angstroms) :

       11.981749    0.001386   -0.005767
       -6.081336   10.371848    0.009796
       -0.068985    0.143739   29.408601


  Final cell parameters and derivatives :

--------------------------------------------------------------------------------
       a           11.981750 Angstrom     dE/de1(xx)     0.000487 eV/strain
       b           12.023227 Angstrom     dE/de2(yy)     0.000555 eV/strain
       c           29.409033 Angstrom     dE/de3(zz)     0.000748 eV/strain
       alpha       89.643764 Degrees      dE/de4(yz)     0.000197 eV/strain
       beta        90.161942 Degrees      dE/de5(xz)    -0.000024 eV/strain
       gamma      120.377805 Degrees      dE/de6(xy)    -0.000032 eV/strain
--------------------------------------------------------------------------------

  Primitive cell volume =          3654.923199 Angs**3

  Density of cell =      1.750541 g/cm**3

  Non-primitive cell volume =          3654.923199 Angs**3


  Final internal derivatives :

--------------------------------------------------------------------------------
   No.  Atomic          a             b             c           Radius
        Label          (eV)          (eV)          (eV)        (eV/Angs)
--------------------------------------------------------------------------------
      1 Ge    c       0.000000      0.000000      0.000000      0.000000
      2 Si    c      -0.000082      0.000086      0.000228      0.000000
      3 Si    c       0.000043      0.000042     -0.000116      0.000000
      4 Si    c       0.000179      0.000089      0.000251      0.000000
      5 Si    c      -0.000042      0.000035      0.000230      0.000000
      6 Si    c      -0.000143     -0.000076     -0.000192      0.000000
      7 Si    c      -0.000011     -0.000073      0.000175      0.000000
      8 Si    c       0.000015     -0.000001     -0.000395      0.000000
      9 Si    c      -0.000015      0.000086     -0.000263      0.000000
     10 Si    c       0.000020      0.000021     -0.000056      0.000000
     11 Si    c       0.000190     -0.000170      0.000110      0.000000
     12 Si    c       0.000040     -0.000270     -0.000843      0.000000
     13 Si    c       0.000911     -0.000049     -0.000368      0.000000
     14 Si    c       0.000067     -0.000013      0.000150      0.000000
     15 Si    c      -0.000004     -0.000059     -0.000051      0.000000
     16 Si    c      -0.000150      0.000192      0.000213      0.000000
     17 Si    c       0.000009     -0.000022      0.000025      0.000000
     18 Si    c      -0.000030     -0.000128      0.000516      0.000000
     19 Si    c      -0.000039      0.000043     -0.000131      0.000000
     20 Si    c       0.000022     -0.000001     -0.000081      0.000000
     21 Si    c      -0.000002     -0.000026     -0.000004      0.000000
     22 Si    c       0.000207     -0.000124      0.000317      0.000000
     23 Si    c      -0.000107     -0.000042      0.000378      0.000000
     24 Ge    c       0.000204      0.000380     -0.000976      0.000000
     25 Si    c      -0.000102     -0.000099     -0.000262      0.000000
     26 Si    c       0.000218     -0.000107     -0.000158      0.000000
     27 Si    c       0.000023      0.000173     -0.000066      0.000000
     28 Ge    c       0.000004      0.000150      0.000102      0.000000
     29 Si    c      -0.000071      0.000004      0.000065      0.000000
     30 Si    c      -0.000079     -0.000222      0.000677      0.000000
     31 Si    c      -0.000019     -0.000091      0.000022      0.000000
     32 Si    c      -0.000328      0.000330      0.000072      0.000000
     33 Si    c       0.000057     -0.000054      0.000009      0.000000
     34 Si    c       0.000400     -0.000198      0.000431      0.000000
     35 Si    c       0.000001     -0.000112     -0.000093      0.000000
     36 Si    c      -0.000136      0.000049      0.000135      0.000000
     37 Si    c      -0.000058     -0.000048     -0.000371      0.000000
     38 Si    c       0.000157     -0.000071     -0.000078      0.000000
     39 Si    c       0.000033      0.000034     -0.000062      0.000000
     40 Si    c      -0.000022      0.000097     -0.000166      0.000000
     41 Si    c      -0.000059      0.000007     -0.000036      0.000000
     42 Si    c       0.000191     -0.000445      0.000778      0.000000
     43 Si    c      -0.000033     -0.000039      0.000031      0.000000
     44 Si    c      -0.000605      0.000229     -0.000255      0.000000
     45 Si    c       0.000083     -0.000055      0.000003      0.000000
     46 Si    c       0.000157      0.000022      0.000016      0.000000
     47 Si    c      -0.000025     -0.000165      0.000216      0.000000
     48 Si    c      -0.000171      0.000049      0.000091      0.000000
     49 Si    c      -0.000098     -0.000356      0.000727      0.000000
     50 Si    c      -0.000024      0.000023     -0.000046      0.000000
     51 Si    c      -0.000118      0.000166     -0.000746      0.000000
     52 Si    c       0.000028     -0.000003      0.000017      0.000000
     53 Si    c       0.000010      0.000013     -0.000002      0.000000
     54 Si    c      -0.000419      0.000433      0.000376      0.000000
     55 Si    c      -0.000073      0.000007      0.000037      0.000000
     56 Si    c      -0.000022     -0.000181     -0.001132      0.000000
     57 Si    c       0.000005     -0.000000      0.000032      0.000000
     58 Si    c      -0.000055      0.000125      0.000315      0.000000
     59 Si    c      -0.000061     -0.000037      0.000004      0.000000
     60 Si    c       0.000163     -0.000295     -0.000168      0.000000
     61 O2    c      -0.000112      0.000265     -0.000494      0.000000
     62 O2    c       0.000064     -0.000020      0.000098      0.000000
     63 O2    c       0.000080     -0.000063     -0.000083      0.000000
     64 O2    c       0.000137     -0.000018      0.000177      0.000000
     65 O2    c      -0.000036      0.000028     -0.000056      0.000000
     66 O2    c      -0.000247      0.000092     -0.000277      0.000000
     67 O2    c      -0.000041      0.000072     -0.000180      0.000000
     68 O2    c       0.000020     -0.000003      0.000033      0.000000
     69 O2    c      -0.000125      0.000129      0.000241      0.000000
     70 O2    c      -0.000012      0.000085      0.000222      0.000000
     71 O3    c       0.000417     -0.000907      0.000930      0.000000
     72 O2    c      -0.000063      0.000074     -0.000127      0.000000
     73 O3    c       0.000537      0.000092     -0.001875      0.000000
     74 O2    c      -0.000042     -0.000025      0.000145      0.000000
     75 O2    c       0.000163     -0.000275     -0.000345      0.000000
     76 O2    c       0.000061     -0.000102     -0.000101      0.000000
     77 O2    c      -0.000022      0.000128      0.000202      0.000000
     78 O2    c      -0.000078      0.000094     -0.000101      0.000000
     79 O2    c       0.000168      0.000080      0.000129      0.000000
     80 O2    c      -0.000052      0.000045     -0.000047      0.000000
     81 O2    c       0.000002     -0.000024     -0.000016      0.000000
     82 O2    c       0.000041      0.000012     -0.000054      0.000000
     83 O2    c      -0.000062      0.000052     -0.000026      0.000000
     84 O2    c      -0.000035     -0.000305     -0.000322      0.000000
     85 O2    c      -0.000000      0.000034     -0.000003      0.000000
     86 O2    c       0.000228     -0.000461      0.000191      0.000000
     87 O2    c      -0.000065      0.000019      0.000041      0.000000
     88 O2    c      -0.000021     -0.000098     -0.000014      0.000000
     89 O2    c       0.000097     -0.000098      0.000077      0.000000
     90 O2    c      -0.000164     -0.000002      0.000201      0.000000
     91 O2    c      -0.000029      0.000012     -0.000102      0.000000
     92 O2    c       0.000167     -0.000147      0.001090      0.000000
     93 O2    c      -0.000140     -0.000038     -0.000875      0.000000
     94 O2    c       0.000009     -0.000004      0.000110      0.000000
     95 O2    c      -0.000171      0.000208      0.001665      0.000000
     96 O2    c       0.000022     -0.000016      0.000003      0.000000
     97 O2    c      -0.000236      0.000049     -0.000217      0.000000
     98 O3    c      -0.000010      0.000017      0.000014      0.000000
     99 O2    c      -0.000008      0.000009      0.000040      0.000000
    100 O2    c      -0.000079      0.000087      0.000085      0.000000
    101 O2    c       0.000005     -0.000040      0.000035      0.000000
    102 O2    c       0.000343      0.000021     -0.000305      0.000000
    103 O2    c       0.000065     -0.000063     -0.000073      0.000000
    104 O2    c      -0.000200     -0.000058     -0.000073      0.000000
    105 O2    c       0.000004     -0.000000     -0.000011      0.000000
    106 O2    c       0.000096     -0.000075      0.000112      0.000000
    107 O2    c      -0.000025     -0.000048      0.000034      0.000000
    108 O2    c       0.000016      0.000162     -0.000101      0.000000
    109 O2    c      -0.000016      0.000007     -0.000183      0.000000
    110 O2    c      -0.000053     -0.000029     -0.000352      0.000000
    111 O2    c       0.000002      0.000016      0.000007      0.000000
    112 O2    c       0.000003      0.000014      0.000134      0.000000
    113 O3    c       0.001120     -0.000062      0.000223      0.000000
    114 O2    c       0.000008      0.000019      0.000276      0.000000
    115 O2    c      -0.000093     -0.000019     -0.000130      0.000000
    116 O2    c      -0.000018      0.000055      0.000065      0.000000
    117 O2    c      -0.000033     -0.000015      0.000055      0.000000
    118 O2    c      -0.000050      0.000036      0.000002      0.000000
    119 O2    c       0.000008     -0.000024      0.000010      0.000000
    120 O2    c       0.000101      0.000275      0.000170      0.000000
    121 O2    c      -0.000021      0.000011     -0.000043      0.000000
    122 O2    c       0.000127     -0.000066      0.000009      0.000000
    123 O2    c       0.000013     -0.000023     -0.000018      0.000000
    124 O2    c       0.000067     -0.000096     -0.000037      0.000000
    125 O2    c       0.000007     -0.000002      0.000049      0.000000
    126 O3    c      -0.000011      0.000110      0.000012      0.000000
    127 O3    c      -0.000426      0.000063      0.000243      0.000000
    128 O3    c       0.000105     -0.000126     -0.000138      0.000000
    129 O2    c       0.000004      0.000037     -0.000055      0.000000
    130 O2    c      -0.000099      0.000081      0.000046      0.000000
    131 O2    c      -0.000111      0.000197     -0.000108      0.000000
    132 O2    c       0.000032     -0.000079     -0.000066      0.000000
    133 O2    c       0.000104     -0.000197     -0.000045      0.000000
    134 O2    c      -0.000080      0.000107      0.000138      0.000000
    135 O2    c       0.000038     -0.000019      0.000064      0.000000
    136 O2    c       0.000006      0.000034      0.000050      0.000000
    137 O2    c      -0.000004     -0.000040      0.000027      0.000000
    138 O2    c       0.000080      0.000223     -0.000018      0.000000
    139 O3    c      -0.000987     -0.000653      0.000043      0.000000
    140 O2    c       0.000070     -0.000053     -0.000078      0.000000
    141 O2    c      -0.000040      0.000078     -0.000076      0.000000
    142 O2    c       0.000040     -0.000028     -0.000140      0.000000
    143 O2    c      -0.000124      0.000106     -0.000219      0.000000
    144 O2    c      -0.000021      0.000019      0.000088      0.000000
    145 O2    c      -0.000042     -0.000044      0.000103      0.000000
    146 O2    c      -0.000061      0.000066      0.000110      0.000000
    147 O2    c       0.000049     -0.000050     -0.000030      0.000000
    148 O2    c      -0.000030      0.000038      0.000073      0.000000
    149 O2    c       0.000034     -0.000084      0.000098      0.000000
    150 O2    c      -0.000713      0.000526      0.000252      0.000000
    151 O2    c       0.000008     -0.000032      0.000235      0.000000
    152 O2    c      -0.000021     -0.000011     -0.000174      0.000000
    153 O2    c       0.000006     -0.000017     -0.000108      0.000000
    154 O3    c      -0.000052     -0.000050     -0.000264      0.000000
    155 O2    c       0.000010     -0.000013     -0.000074      0.000000
    156 O2    c      -0.000161      0.000080     -0.002599      0.000000
    157 O2    c       0.000004     -0.000004      0.000100      0.000000
    158 O2    c      -0.000134     -0.000110      0.002286      0.000000
    159 O2    c      -0.000013      0.000022      0.000109      0.000000
    160 O2    c       0.000052      0.000023      0.000203      0.000000
    161 O2    c      -0.000015      0.000032      0.000000      0.000000
    162 O2    c      -0.000049      0.000017     -0.000427      0.000000
    163 O2    c       0.000192     -0.000090      0.000153      0.000000
    164 O2    c       0.000109      0.000051      0.000138      0.000000
    165 O2    c      -0.000046      0.000032     -0.000008      0.000000
    166 O2    c       0.000000      0.000024      0.000022      0.000000
    167 O2    c       0.000017     -0.000007      0.000074      0.000000
    168 O2    c       0.000002     -0.000012      0.000009      0.000000
    169 O3    c      -0.000050      0.000024     -0.000146      0.000000
    170 O2    c      -0.000023     -0.000046      0.000056      0.000000
    171 O2    c      -0.000003      0.000006     -0.000024      0.000000
    172 O2    c       0.000210     -0.000088     -0.000136      0.000000
    173 O2    c      -0.000023     -0.000047      0.000012      0.000000
    174 O3    c      -0.000163      0.000232     -0.000073      0.000000
    175 O3    c      -0.000032      0.000033     -0.000448      0.000000
    176 O2    c       0.000086     -0.000040     -0.000397      0.000000
    177 O2    c       0.000114     -0.000048      0.000346      0.000000
    178 O2    c      -0.000013      0.000000      0.000059      0.000000
    179 O2    c       0.000037      0.000023     -0.000065      0.000000
    180 O2    c      -0.000010      0.000023      0.000047      0.000000
    181 F     c       0.000042     -0.000041      0.000075      0.000000
    182 F     c       0.000028      0.000026      0.000280      0.000000
    183 F     c       0.000012      0.000004     -0.000042      0.000000
    184 F     c       0.000006     -0.000005      0.000006      0.000000
    185 F     c      -0.000111      0.000064     -0.000009      0.000000
    186 F     c      -0.000004      0.000005     -0.000010      0.000000
    187 O2    s       0.000085      0.000036      0.000099      0.000000
    188 O2    s      -0.000037      0.000016      0.000006      0.000000
    189 O2    s       0.000023      0.000014     -0.000238      0.000000
    190 O2    s       0.000051     -0.000051      0.000048      0.000000
    191 O2    s       0.000006      0.000023      0.000073      0.000000
    192 O2    s       0.000015      0.000018     -0.000113      0.000000
    193 O2    s      -0.000019     -0.000035      0.000073      0.000000
    194 O2    s      -0.000035      0.000016     -0.000013      0.000000
    195 O2    s      -0.000063      0.000170      0.000194      0.000000
    196 O2    s       0.000004     -0.000011     -0.000048      0.000000
    197 O3    s      -0.000756      0.000922     -0.000176      0.000000
    198 O2    s       0.000076     -0.000066      0.000062      0.000000
    199 O3    s      -0.001497      0.000037      0.001768      0.000000
    200 O2    s       0.000016      0.000026     -0.000010      0.000000
    201 O2    s       0.000003      0.000050      0.000080      0.000000
    202 O2    s      -0.000052      0.000050     -0.000039      0.000000
    203 O2    s       0.000178     -0.000263     -0.000146      0.000000
    204 O2    s      -0.000039      0.000005     -0.000083      0.000000
    205 O2    s       0.000109     -0.000047      0.000192      0.000000
    206 O2    s       0.000041     -0.000040      0.000282      0.000000
    207 O2    s       0.000012      0.000072     -0.000001      0.000000
    208 O2    s       0.000028      0.000014      0.000258      0.000000
    209 O2    s      -0.000025      0.000025      0.000127      0.000000
    210 O2    s       0.000315     -0.000341      0.000699      0.000000
    211 O2    s      -0.000030      0.000027     -0.000143      0.000000
    212 O2    s       0.000473      0.000243     -0.000918      0.000000
    213 O2    s       0.000028     -0.000011     -0.000108      0.000000
    214 O2    s       0.000085      0.000023     -0.000234      0.000000
    215 O2    s      -0.000001     -0.000003     -0.000143      0.000000
    216 O2    s      -0.000024      0.000020     -0.000378      0.000000
    217 O2    s       0.000151     -0.000099     -0.000087      0.000000
    218 O2    s      -0.000159      0.000050     -0.000370      0.000000
    219 O2    s       0.000181     -0.000098      0.000053      0.000000
    220 O2    s       0.000028      0.000013      0.000042      0.000000
    221 O2    s       0.000146      0.000149      0.000275      0.000000
    222 O2    s      -0.000072      0.000020      0.000108      0.000000
    223 O2    s       0.000123      0.000028     -0.000103      0.000000
    224 O3    s       0.000045     -0.000066     -0.000058      0.000000
    225 O2    s      -0.000046     -0.000035     -0.000129      0.000000
    226 O2    s      -0.000025      0.000002      0.000050      0.000000
    227 O2    s      -0.000037     -0.000050     -0.000138      0.000000
    228 O2    s       0.000111     -0.000037      0.000127      0.000000
    229 O2    s      -0.000022     -0.000020      0.000166      0.000000
    230 O2    s      -0.000440      0.000276     -0.000363      0.000000
    231 O2    s       0.000008      0.000007      0.000020      0.000000
    232 O2    s       0.000021      0.000047     -0.000118      0.000000
    233 O2    s      -0.000061      0.000061     -0.000036      0.000000
    234 O2    s       0.000022      0.000033      0.000102      0.000000
    235 O2    s      -0.000043     -0.000015      0.000226      0.000000
    236 O2    s       0.000074     -0.000014      0.000128      0.000000
    237 O2    s      -0.000136      0.000088     -0.000101      0.000000
    238 O2    s      -0.000021      0.000038     -0.000266      0.000000
    239 O3    s      -0.001480     -0.000012      0.000344      0.000000
    240 O2    s       0.000034      0.000013      0.000122      0.000000
    241 O2    s      -0.000048     -0.000045      0.000379      0.000000
    242 O2    s       0.000007      0.000046      0.000112      0.000000
    243 O2    s       0.000008      0.000013     -0.000019      0.000000
    244 O2    s      -0.000041      0.000010      0.000153      0.000000
    245 O2    s      -0.000006     -0.000003      0.000056      0.000000
    246 O2    s       0.000328     -0.000127      0.000490      0.000000
    247 O2    s      -0.000032      0.000024      0.000001      0.000000
    248 O2    s       0.000321      0.000053     -0.000578      0.000000
    249 O2    s      -0.000001     -0.000008     -0.000085      0.000000
    250 O2    s      -0.000012      0.000006     -0.000167      0.000000
    251 O2    s       0.000005     -0.000035     -0.000286      0.000000
    252 O3    s       0.000024     -0.000149     -0.000298      0.000000
    253 O3    s       0.000894     -0.000463     -0.001146      0.000000
    254 O3    s      -0.000041      0.000110     -0.000140      0.000000
    255 O2    s       0.000005      0.000020     -0.000090      0.000000
    256 O2    s       0.000002     -0.000051     -0.000187      0.000000
    257 O2    s      -0.000033     -0.000045     -0.000267      0.000000
    258 O2    s      -0.000081      0.000098     -0.000113      0.000000
    259 O2    s      -0.000046     -0.000049      0.000231      0.000000
    260 O2    s       0.000048     -0.000048      0.000255      0.000000
    261 O2    s      -0.000033      0.000013     -0.000006      0.000000
    262 O2    s       0.000006     -0.000043      0.000099      0.000000
    263 O2    s      -0.000006      0.000053      0.000034      0.000000
    264 O2    s       0.000060      0.000163      0.000196      0.000000
    265 O3    s       0.000700      0.000472     -0.001361      0.000000
    266 O2    s      -0.000034      0.000019     -0.000029      0.000000
    267 O2    s       0.000010      0.000006     -0.000031      0.000000
    268 O2    s      -0.000071      0.000063      0.000159      0.000000
    269 O2    s       0.000039     -0.000016     -0.000029      0.000000
    270 O2    s      -0.000061      0.000106     -0.000013      0.000000
    271 O2    s      -0.000009     -0.000048      0.000052      0.000000
    272 O2    s       0.000105     -0.000257     -0.000049      0.000000
    273 O2    s      -0.000001      0.000031      0.000110      0.000000
    274 O2    s      -0.000017     -0.000049     -0.000026      0.000000
    275 O2    s       0.000027     -0.000010     -0.000004      0.000000
    276 O2    s       0.000175     -0.000402      0.001153      0.000000
    277 O2    s      -0.000063     -0.000019      0.000146      0.000000
    278 O2    s       0.000049      0.000050      0.000072      0.000000
    279 O2    s      -0.000008      0.000002     -0.000043      0.000000
    280 O3    s       0.000075      0.000037     -0.000018      0.000000
    281 O2    s      -0.000032      0.000024      0.000013      0.000000
    282 O2    s       0.000202      0.000011      0.000045      0.000000
    283 O2    s      -0.000032      0.000029      0.000019      0.000000
    284 O2    s       0.000383     -0.000005      0.000748      0.000000
    285 O2    s       0.000045     -0.000052     -0.000066      0.000000
    286 O2    s      -0.000065      0.000006     -0.000204      0.000000
    287 O2    s       0.000025     -0.000007      0.000004      0.000000
    288 O2    s      -0.000036      0.000047      0.000049      0.000000
    289 O2    s      -0.000450      0.000123     -0.000216      0.000000
    290 O2    s       0.000014      0.000067      0.000122      0.000000
    291 O2    s       0.000037     -0.000013      0.000062      0.000000
    292 O2    s      -0.000037      0.000033      0.000036      0.000000
    293 O2    s      -0.000027     -0.000010     -0.000013      0.000000
    294 O2    s      -0.000164      0.000128      0.000149      0.000000
    295 O3    s       0.000033     -0.000000      0.000075      0.000000
    296 O2    s      -0.000013      0.000004     -0.000169      0.000000
    297 O2    s       0.000004     -0.000037     -0.000106      0.000000
    298 O2    s       0.000027     -0.000052     -0.000085      0.000000
    299 O2    s       0.000055      0.000029     -0.000076      0.000000
    300 O3    s       0.000171     -0.000231     -0.000052      0.000000
    301 O3    s       0.000026      0.000078      0.000134      0.000000
    302 O2    s      -0.000112      0.000046      0.000170      0.000000
    303 O2    s      -0.000253      0.000102     -0.000668      0.000000
    304 O2    s       0.000015     -0.000035     -0.000019      0.000000
    305 O2    s       0.000255     -0.000019     -0.000206      0.000000
    306 O2    s      -0.000012     -0.000001      0.000132      0.000000
    307 F     s      -0.000059     -0.000035     -0.000035      0.000000
    308 F     s      -0.000041     -0.000045     -0.000502      0.000000
    309 F     s       0.000010     -0.000059      0.000130      0.000000
    310 F     s      -0.000013     -0.000001      0.000004      0.000000
    311 F     s       0.000396     -0.000159      0.000566      0.000000
    312 F     s      -0.000017     -0.000013      0.000158      0.000000
--------------------------------------------------------------------------------
  Maximum abs         0.001497      0.000922      0.002599      0.000000
--------------------------------------------------------------------------------


  Time to end of optimisation =       5.8671 seconds


  Peak dynamic memory used =      19.13 MB 


  Timing analysis for GULP :

--------------------------------------------------------------------------------
  Task / Subroutine                                          Time (Seconds)
--------------------------------------------------------------------------------
  Calculation of reciprocal space energy and derivatives          0.2518
  Calculation of real space energy and derivatives                4.7291
  Calculation of three-body energy and derivatives                0.5247
  Calculation of matrix inversion                                 0.1920
--------------------------------------------------------------------------------
  Total CPU time                                                  5.8671
--------------------------------------------------------------------------------


  Dump file written as out.res                                                 
  CIF file written as out.cif                                                 


  Job Finished at 05:35.15  2nd December   2016                               

