********************************************************************************
*                       GENERAL UTILITY LATTICE PROGRAM                        *
*                                 Julian Gale                                  *
*                      Nanochemistry Research Institute                        *
*                           Department of Chemistry                            *
*                    Curtin University, Western Australia                      *
********************************************************************************
* Version = 4.2.0 * Last modified =  20th January 2014                         *
********************************************************************************
*  optimise     - perform optimisation run                                     *
*  conp         - constant pressure calculation                                *
*  qok          - running with non charge neutral cell is OK                   *
********************************************************************************

  Job Started  at 03:58.24  2nd December   2016                               

  Number of CPUs =     1


  Total number of configurations input =   1

********************************************************************************
*  Input for Configuration =   1                                               *
********************************************************************************

  Formula = Ge3Si57O120F6                                               

  Number of irreducible atoms/shells =     312


  Total number atoms/shells =     312

  Dimensionality = 3               :  Bulk   


  Charge on solid   =  -6.000000 =>neutralising background added


  Cartesian lattice vectors (Angstroms) :

       11.984649    0.000000    0.000000
       -6.034838   10.358474    0.000000
       -0.216929   -0.013210   29.493313

  Cell parameters (Angstroms/Degrees):

  a =      11.9846    alpha =  89.8100
  b =      11.9882    beta  =  90.4214
  c =      29.4941    gamma = 120.2250

  Initial cell volume =        3661.378694 Angs**3

  Temperature of configuration =  0.000     K 

  Pressure of configuration =         0.000 GPa 

  Fractional coordinates of asymmetric unit :

--------------------------------------------------------------------------------
   No.  Atomic       x           y          z         Charge      Occupancy
        Label      (Frac)      (Frac)     (Frac)        (e)         (Frac)  
--------------------------------------------------------------------------------
      1 Ge    c    0.699600    0.375700    0.033890     4.00000    1.000000    
      2 Si    c    0.625207 *  0.326538 *  0.368024 *   4.00000    1.000000    
      3 Si    c    0.676275 *  0.299741 *  0.698274 *   4.00000    1.000000    
      4 Si    c    0.291263 *  0.621969 *  0.529565 *   4.00000    1.000000    
      5 Si    c    0.377918 *  0.674997 *  0.861448 *   4.00000    1.000000    
      6 Si    c    0.315242 *  0.702489 *  0.193446 *   4.00000    1.000000    
      7 Si    c    0.375899 *  0.698930 *  0.294579 *   4.00000    1.000000    
      8 Si    c    0.319265 *  0.622016 *  0.961401 *   4.00000    1.000000    
      9 Si    c    0.298205 *  0.679516 *  0.630042 *   4.00000    1.000000    
     10 Si    c    0.621019 *  0.297704 *  0.798673 *   4.00000    1.000000    
     11 Si    c    0.671643 *  0.381682 *  0.468868 *   4.00000    1.000000    
     12 Si    c    0.676587 *  0.307903 *  0.132692 *   4.00000    1.000000    
     13 Si    c    0.528478 *  0.416903 *  0.965945 *   4.00000    1.000000    
     14 Si    c    0.591414 *  0.122738 *  0.302084 *   4.00000    1.000000    
     15 Si    c    0.887342 *  0.472836 *  0.634128 *   4.00000    1.000000    
     16 Si    c    0.462509 *  0.585156 *  0.464047 *   4.00000    1.000000    
     17 Si    c    0.416650 *  0.885629 *  0.796516 *   4.00000    1.000000    
     18 Si    c    0.101168 *  0.527794 *  0.127144 *   4.00000    1.000000    
     19 Si    c    0.420139 *  0.534001 *  0.362276 *   4.00000    1.000000    
     20 Si    c    0.101282 *  0.578932 *  0.023873 *   4.00000    1.000000    
     21 Si    c    0.470475 *  0.890590 *  0.694951 *   4.00000    1.000000    
     22 Si    c    0.581657 *  0.468968 *  0.863645 *   4.00000    1.000000    
     23 Si    c    0.883586 *  0.419190 *  0.532711 *   4.00000    1.000000    
     24 Ge    c    0.521430 *  0.094946 *  0.203366 *   4.00000    1.000000    
     25 Si    c    0.301202 *  0.397779 *  0.847428 *   4.00000    1.000000    
     26 Si    c    0.600897 *  0.905312 *  0.176374 *   4.00000    1.000000    
     27 Si    c    0.090101 *  0.699009 *  0.516058 *   4.00000    1.000000    
     28 Si    c    0.700245 *  0.603581 *  0.351765 *   4.00000    1.000000    
     29 Si    c    0.398808 *  0.099158 *  0.681948 *   4.00000    1.000000    
     30 Si    c    0.886116 *  0.291462 *  0.009784 *   4.00000    1.000000    
     31 Si    c    0.391638 *  0.303829 *  0.478921 *   4.00000    1.000000    
     32 Si    c    0.884872 *  0.595423 *  0.139777 *   4.00000    1.000000    
     33 Si    c    0.698207 *  0.096006 *  0.811598 *   4.00000    1.000000    
     34 Si    c    0.596906 *  0.699012 *  0.977489 *   4.00000    1.000000    
     35 Si    c    0.097384 *  0.401293 *  0.646402 *   4.00000    1.000000    
     36 Si    c    0.304025 *  0.904973 *  0.313927 *   4.00000    1.000000    
     37 Si    c    0.249951 *  0.342251 *  0.947680 *   4.00000    1.000000    
     38 Si    c    0.661135 *  0.916594 *  0.279291 *   4.00000    1.000000    
     39 Si    c    0.088384 *  0.751484 *  0.616722 *   4.00000    1.000000    
     40 Si    c    0.742145 *  0.661486 *  0.452567 *   4.00000    1.000000    
     41 Si    c    0.339574 *  0.087497 *  0.782334 *   4.00000    1.000000    
     42 Si    c    0.896206 *  0.245301 *  0.112912 *   4.00000    1.000000    
     43 Si    c    0.343868 *  0.256021 *  0.377757 *   4.00000    1.000000    
     44 Si    c    0.897589 *  0.658866 *  0.037587 *   4.00000    1.000000    
     45 Si    c    0.749508 *  0.091967 *  0.711051 *   4.00000    1.000000    
     46 Si    c    0.657994 *  0.747976 *  0.877055 *   4.00000    1.000000    
     47 Si    c    0.084034 *  0.341247 *  0.545822 *   4.00000    1.000000    
     48 Si    c    0.240742 *  0.914242 *  0.212575 *   4.00000    1.000000    
     49 Si    c    0.971822 *  0.122780 *  0.961422 *   4.00000    1.000000    
     50 Si    c    0.871692 *  0.845149 *  0.295733 *   4.00000    1.000000    
     51 Si    c    0.150272 *  0.031448 *  0.631277 *   4.00000    1.000000    
     52 Si    c    0.020351 *  0.878782 *  0.465897 *   4.00000    1.000000    
     53 Si    c    0.121907 *  0.148639 *  0.796639 *   4.00000    1.000000    
     54 Si    c    0.845658 *  0.968464 *  0.128007 *   4.00000    1.000000    
     55 Ge    c    0.119618 *  0.971463 *  0.362632 *   4.00000    1.000000    
     56 Si    c    0.847760 *  0.881916 *  0.026849 *   4.00000    1.000000    
     57 Si    c    0.028978 *  0.152204 *  0.695938 *   4.00000    1.000000    
     58 Si    c    0.878655 *  0.026437 *  0.861167 *   4.00000    1.000000    
     59 Si    c    0.145261 *  0.123678 *  0.530496 *   4.00000    1.000000    
     60 Si    c    0.955254 *  0.840289 *  0.194152 *   4.00000    1.000000    
     61 O2    c    0.927781 *  0.003963 *  0.995138 *   0.87073    1.000000    
     62 O3    c    0.000557 *  0.935479 *  0.322998 *   1.33043    1.000000    
     63 O2    c    0.068539 *  0.072519 *  0.662638 *   0.87073    1.000000    
     64 O2    c    0.066487 *  0.003210 *  0.497314 *   0.87073    1.000000    
     65 O2    c    0.998198 *  0.067070 *  0.827906 *   0.87073    1.000000    
     66 O2    c    0.927837 *  0.931605 *  0.161732 *   0.87073    1.000000    
     67 O2    c    0.343761 *  0.579311 *  0.327616 *   0.87073    1.000000    
     68 O2    c    0.422844 *  0.766028 *  0.661996 *   0.87073    1.000000    
     69 O2    c    0.229532 *  0.656164 *  0.993205 *   0.87073    1.000000    
     70 O2    c    0.658361 *  0.418947 *  0.831941 *   0.87073    1.000000    
     71 O3    c    0.573674 *  0.235339 *  0.170472 *   1.33043    1.000000    
     72 O2    c    0.753664 *  0.341674 *  0.501990 *   0.87073    1.000000    
     73 O3    c    0.565955 *  0.336920 *  0.998425 *   1.33043    1.000000    
     74 O2    c    0.763342 *  0.425306 *  0.666647 *   0.87073    1.000000    
     75 O2    c    0.665613 *  0.237080 *  0.339436 *   0.87073    1.000000    
     76 O2    c    0.411920 *  0.660418 *  0.495717 *   0.87073    1.000000    
     77 O2    c    0.226863 *  0.581722 *  0.160238 *   0.87073    1.000000    
     78 O2    c    0.339658 *  0.759164 *  0.828131 *   0.87073    1.000000    
     79 O2    c    0.124933 *  0.215444 *  0.968125 *   0.87073    1.000000    
     80 O2    c    0.779693 *  0.906709 *  0.301036 *   0.87073    1.000000    
     81 O2    c    0.088688 *  0.877386 *  0.636776 *   0.87073    1.000000    
     82 O2    c    0.866629 *  0.787944 *  0.473687 *   0.87073    1.000000    
     83 O2    c    0.212751 *  0.085534 *  0.802275 *   0.87073    1.000000    
     84 O2    c    0.899853 *  0.121552 *  0.133840 *   0.87073    1.000000    
     85 O3    c    0.220160 *  0.134864 *  0.355711 *   1.33043    1.000000    
     86 O2    c    0.915173 *  0.796111 *  0.020899 *   0.87073    1.000000    
     87 O2    c    0.874941 *  0.091630 *  0.690691 *   0.87073    1.000000    
     88 O2    c    0.785841 *  0.872289 *  0.856632 *   0.87073    1.000000    
     89 O2    c    0.081062 *  0.213629 *  0.525841 *   0.87073    1.000000    
     90 O2    c    0.108304 *  0.901256 *  0.194290 *   0.87073    1.000000    
     91 O2    c    0.903047 *  0.841207 *  0.243560 *   0.87073    1.000000    
     92 O2    c    0.136298 *  0.069686 *  0.580482 *   0.87073    1.000000    
     93 O2    c    0.936336 *  0.067119 *  0.911084 *   0.87073    1.000000    
     94 O2    c    0.069987 *  0.135945 *  0.745826 *   0.87073    1.000000    
     95 O2    c    0.863648 *  0.933989 *  0.077739 *   0.87073    1.000000    
     96 O3    c    0.050329 *  0.927779 *  0.414825 *   1.33043    1.000000    
     97 O2    c    0.898937 *  0.200935 *  0.972073 *   0.87073    1.000000    
     98 O2    c    0.800573 *  0.698432 *  0.313878 *   0.87073    1.000000    
     99 O2    c    0.302002 *  0.102453 *  0.643581 *   0.87073    1.000000    
    100 O2    c    0.090650 *  0.796859 *  0.477394 *   0.87073    1.000000    
    101 O2    c    0.204010 *  0.300071 *  0.808730 *   0.87073    1.000000    
    102 O2    c    0.693597 *  0.888354 *  0.140411 *   0.87073    1.000000    
    103 O3    c    0.209741 *  0.897617 *  0.353505 *   1.33043    1.000000    
    104 O2    c    0.695040 *  0.799100 *  0.015675 *   0.87073    1.000000    
    105 O2    c    0.100459 *  0.304637 *  0.684407 *   0.87073    1.000000    
    106 O2    c    0.796750 *  0.096502 *  0.849727 *   0.87073    1.000000    
    107 O2    c    0.295708 *  0.207204 *  0.517320 *   0.87073    1.000000    
    108 O2    c    0.886473 *  0.692231 *  0.178384 *   0.87073    1.000000    
    109 O2    c    0.319676 *  0.647849 *  0.243847 *   0.87073    1.000000    
    110 O2    c    0.352656 *  0.679884 *  0.579365 *   0.87073    1.000000    
    111 O2    c    0.318137 *  0.677627 *  0.910895 *   0.87073    1.000000    
    112 O2    c    0.677194 *  0.356429 *  0.748509 *   0.87073    1.000000    
    113 O3    c    0.611529 *  0.297959 *  0.084007 *   1.33043    1.000000    
    114 O2    c    0.678283 *  0.328515 *  0.418919 *   0.87073    1.000000    
    115 O2    c    0.370889 *  0.332033 *  0.965752 *   0.87073    1.000000    
    116 O2    c    0.674042 *  0.047353 *  0.300019 *   0.87073    1.000000    
    117 O2    c    0.957264 *  0.629372 *  0.635874 *   0.87073    1.000000    
    118 O2    c    0.618771 *  0.672653 *  0.468072 *   0.87073    1.000000    
    119 O2    c    0.329476 *  0.954322 *  0.799537 *   0.87073    1.000000    
    120 O2    c    0.030154 *  0.372057 *  0.129430 *   0.87073    1.000000    
    121 O2    c    0.334923 *  0.378491 *  0.358691 *   0.87073    1.000000    
    122 O2    c    0.030565 *  0.663519 *  0.021980 *   0.87073    1.000000    
    123 O2    c    0.626832 *  0.960156 *  0.691946 *   0.87073    1.000000    
    124 O2    c    0.667430 *  0.625241 *  0.859252 *   0.87073    1.000000    
    125 O2    c    0.950735 *  0.330938 *  0.528012 *   0.87073    1.000000    
    126 O3    c    0.353960 *  0.044285 *  0.193388 *   1.33043    1.000000    
    127 O3    c    0.753025 *  0.283793 *  0.001057 *   1.33043    1.000000    
    128 O2    c    0.699270 *  0.468986 *  0.344716 *   0.87073    1.000000    
    129 O2    c    0.533685 *  0.233337 *  0.674760 *   0.87073    1.000000    
    130 O2    c    0.222571 *  0.697065 *  0.507395 *   0.87073    1.000000    
    131 O2    c    0.303408 *  0.532335 *  0.838233 *   0.87073    1.000000    
    132 O2    c    0.459621 *  0.773133 *  0.172975 *   0.87073    1.000000    
    133 O2    c    0.304030 *  0.770122 *  0.315345 *   0.87073    1.000000    
    134 O2    c    0.462778 *  0.700289 *  0.984186 *   0.87073    1.000000    
    135 O2    c    0.231877 *  0.536292 *  0.652474 *   0.87073    1.000000    
    136 O2    c    0.696984 *  0.228906 *  0.819861 *   0.87073    1.000000    
    137 O2    c    0.525673 *  0.305675 *  0.488440 *   0.87073    1.000000    
    138 O2    c    0.753938 *  0.461645 *  0.147865 *   0.87073    1.000000    
    139 O3    c    0.770526 *  0.544966 *  0.016963 *   1.33043    1.000000    
    140 O2    c    0.469508 *  0.251812 *  0.360680 *   0.87073    1.000000    
    141 O2    c    0.751833 *  0.219756 *  0.692270 *   0.87073    1.000000    
    142 O2    c    0.210025 *  0.465511 *  0.525225 *   0.87073    1.000000    
    143 O2    c    0.534463 *  0.751813 *  0.856738 *   0.87073    1.000000    
    144 O2    c    0.247558 *  0.789200 *  0.194282 *   0.87073    1.000000    
    145 O2    c    0.529635 *  0.791533 *  0.295367 *   0.87073    1.000000    
    146 O2    c    0.246063 *  0.466376 *  0.967002 *   0.87073    1.000000    
    147 O2    c    0.215678 *  0.752380 *  0.635122 *   0.87073    1.000000    
    148 O2    c    0.464924 *  0.213093 *  0.802620 *   0.87073    1.000000    
    149 O2    c    0.741297 *  0.537250 *  0.473882 *   0.87073    1.000000    
    150 O2    c    0.775923 *  0.250530 *  0.133437 *   0.87073    1.000000    
    151 O2    c    0.227829 *  0.324486 *  0.893375 *   0.87073    1.000000    
    152 O2    c    0.674027 *  0.918623 *  0.225036 *   0.87073    1.000000    
    153 O2    c    0.087873 *  0.769817 *  0.562342 *   0.87073    1.000000    
    154 O2    c    0.768772 *  0.677974 *  0.398482 *   0.87073    1.000000    
    155 O2    c    0.323150 *  0.092390 *  0.728009 *   0.87073    1.000000    
    156 O2    c    0.892600 *  0.229478 *  0.058704 *   0.87073    1.000000    
    157 O2    c    0.320433 *  0.232400 *  0.431965 *   0.87073    1.000000    
    158 O2    c    0.890704 *  0.666576 *  0.092880 *   0.87073    1.000000    
    159 O2    c    0.768498 *  0.092719 *  0.765293 *   0.87073    1.000000    
    160 O2    c    0.674002 *  0.768173 *  0.931370 *   0.87073    1.000000    
    161 O2    c    0.088939 *  0.325282 *  0.600011 *   0.87073    1.000000    
    162 O2    c    0.234508 *  0.915285 *  0.267961 *   0.87073    1.000000    
    163 O2    c    0.578764 *  0.559479 *  0.987651 *   0.87073    1.000000    
    164 O2    c    0.446929 *  0.025245 *  0.322086 *   0.87073    1.000000    
    165 O2    c    0.974176 *  0.417522 *  0.656217 *   0.87073    1.000000    
    166 O2    c    0.403860 *  0.442774 *  0.486141 *   0.87073    1.000000    
    167 O2    c    0.558317 *  0.970550 *  0.819564 *   0.87073    1.000000    
    168 O2    c    0.010357 *  0.579513 *  0.146665 *   0.87073    1.000000    
    169 O2    c    0.563613 *  0.595268 *  0.340993 *   0.87073    1.000000    
    170 O2    c    0.010780 *  0.436108 *  0.003699 *   0.87073    1.000000    
    171 O2    c    0.411804 *  0.973785 *  0.672029 *   0.87073    1.000000    
    172 O2    c    0.440020 *  0.409528 *  0.840157 *   0.87073    1.000000    
    173 O2    c    0.963623 *  0.559081 *  0.507962 *   0.87073    1.000000    
    174 O3    c    0.592708 *  0.029171 *  0.165497 *   1.33043    1.000000    
    175 O3    c    0.593889 *  0.185668 *  0.254758 *   1.33043    1.000000    
    176 O2    c    0.832657 *  0.418676 *  0.583520 *   0.87073    1.000000    
    177 O2    c    0.583056 *  0.421271 *  0.914835 *   0.87073    1.000000    
    178 O2    c    0.417115 *  0.835212 *  0.745348 *   0.87073    1.000000    
    179 O2    c    0.147245 *  0.576152 *  0.075936 *   0.87073    1.000000    
    180 O2    c    0.413865 *  0.587055 *  0.412342 *   0.87073    1.000000    
    181 F     c    0.468021 *  0.947195 *  0.238277 *   0.56000    1.000000    
    182 F     c    0.093361 *  0.549034 *  0.579887 *   0.56000    1.000000    
    183 F     c    0.446682 *  0.552515 *  0.911319 *   0.56000    1.000000    
    184 F     c    0.548574 *  0.097882 *  0.745484 *   0.56000    1.000000    
    185 F     c    0.851249 *  0.434291 *  0.068494 *   0.56000    1.000000    
    186 F     c    0.545021 *  0.455801 *  0.413960 *   0.56000    1.000000    
    187 O2    s    0.923523 *  0.003449 *  0.994949 *  -2.87073    1.000000    
    188 O3    s    0.996928 *  0.928902 *  0.323467 *  -3.33043    1.000000    
    189 O2    s    0.073319 *  0.076753 *  0.662811 *  -2.87073    1.000000    
    190 O2    s    0.070176 *  0.002810 *  0.497526 *  -2.87073    1.000000    
    191 O2    s    0.998761 *  0.071692 *  0.828100 *  -2.87073    1.000000    
    192 O2    s    0.921788 *  0.925567 *  0.161603 *  -2.87073    1.000000    
    193 O2    s    0.354837 *  0.587604 *  0.327533 *  -2.87073    1.000000    
    194 O2    s    0.414716 *  0.769702 *  0.662011 *  -2.87073    1.000000    
    195 O2    s    0.225114 *  0.644699 *  0.993228 *  -2.87073    1.000000    
    196 O2    s    0.646721 *  0.411411 *  0.831682 *  -2.87073    1.000000    
    197 O3    s    0.581139 *  0.233086 *  0.168718 *  -3.33043    1.000000    
    198 O2    s    0.758309 *  0.353827 *  0.501635 *  -2.87073    1.000000    
    199 O3    s    0.571598 *  0.348400 *  0.997485 *  -3.33043    1.000000    
    200 O2    s    0.767478 *  0.417561 *  0.666462 *  -2.87073    1.000000    
    201 O2    s    0.654013 *  0.234749 *  0.338624 *  -2.87073    1.000000    
    202 O2    s    0.404947 *  0.648652 *  0.495852 *  -2.87073    1.000000    
    203 O2    s    0.223163 *  0.588723 *  0.160313 *  -2.87073    1.000000    
    204 O2    s    0.351605 *  0.763880 *  0.828204 *  -2.87073    1.000000    
    205 O2    s    0.121203 *  0.218480 *  0.965306 *  -2.87073    1.000000    
    206 O2    s    0.776773 *  0.901234 *  0.298172 *  -2.87073    1.000000    
    207 O2    s    0.095194 *  0.880626 *  0.634128 *  -2.87073    1.000000    
    208 O2    s    0.869817 *  0.784336 *  0.470701 *  -2.87073    1.000000    
    209 O2    s    0.216255 *  0.092406 *  0.799639 *  -2.87073    1.000000    
    210 O2    s    0.893794 *  0.118188 *  0.131114 *  -2.87073    1.000000    
    211 O3    s    0.224215 *  0.133451 *  0.358481 *  -3.33043    1.000000    
    212 O2    s    0.906064 *  0.791356 *  0.023234 *  -2.87073    1.000000    
    213 O2    s    0.878429 *  0.098124 *  0.693314 *  -2.87073    1.000000    
    214 O2    s    0.782623 *  0.876005 *  0.859189 *  -2.87073    1.000000    
    215 O2    s    0.088173 *  0.217182 *  0.528361 *  -2.87073    1.000000    
    216 O2    s    0.105543 *  0.895738 *  0.196284 *  -2.87073    1.000000    
    217 O2    s    0.905442 *  0.841570 *  0.243861 *  -2.87073    1.000000    
    218 O2    s    0.138878 *  0.071584 *  0.580448 *  -2.87073    1.000000    
    219 O2    s    0.933755 *  0.068771 *  0.911085 *  -2.87073    1.000000    
    220 O2    s    0.071112 *  0.139241 *  0.745814 *  -2.87073    1.000000    
    221 O2    s    0.859754 *  0.932219 *  0.077947 *  -2.87073    1.000000    
    222 O3    s    0.053293 *  0.926505 *  0.415564 *  -3.33043    1.000000    
    223 O2    s    0.905629 *  0.201812 *  0.974842 *  -2.87073    1.000000    
    224 O2    s    0.797769 *  0.704235 *  0.315896 *  -2.87073    1.000000    
    225 O2    s    0.295557 *  0.094547 *  0.646131 *  -2.87073    1.000000    
    226 O2    s    0.083258 *  0.795645 *  0.480042 *  -2.87073    1.000000    
    227 O2    s    0.205067 *  0.293734 *  0.811360 *  -2.87073    1.000000    
    228 O2    s    0.699933 *  0.898318 *  0.142776 *  -2.87073    1.000000    
    229 O3    s    0.211789 *  0.904174 *  0.350366 *  -3.33043    1.000000    
    230 O2    s    0.701304 *  0.797821 *  0.013037 *  -2.87073    1.000000    
    231 O2    s    0.092638 *  0.298571 *  0.681705 *  -2.87073    1.000000    
    232 O2    s    0.795263 *  0.089038 *  0.847006 *  -2.87073    1.000000    
    233 O2    s    0.289623 *  0.208390 *  0.514701 *  -2.87073    1.000000    
    234 O2    s    0.893855 *  0.698460 *  0.176112 *  -2.87073    1.000000    
    235 O2    s    0.324947 *  0.658465 *  0.244010 *  -2.87073    1.000000    
    236 O2    s    0.340868 *  0.673913 *  0.579382 *  -2.87073    1.000000    
    237 O2    s    0.324243 *  0.671696 *  0.911075 *  -2.87073    1.000000    
    238 O2    s    0.671398 *  0.344664 *  0.748439 *  -2.87073    1.000000    
    239 O3    s    0.623993 *  0.304286 *  0.085294 *  -3.33043    1.000000    
    240 O2    s    0.672019 *  0.333875 *  0.418751 *  -2.87073    1.000000    
    241 O2    s    0.373216 *  0.341712 *  0.963733 *  -2.87073    1.000000    
    242 O2    s    0.664686 *  0.040894 *  0.298025 *  -2.87073    1.000000    
    243 O2    s    0.963869 *  0.626107 *  0.633667 *  -2.87073    1.000000    
    244 O2    s    0.615623 *  0.662440 *  0.466003 *  -2.87073    1.000000    
    245 O2    s    0.339495 *  0.961307 *  0.797399 *  -2.87073    1.000000    
    246 O2    s    0.024191 *  0.375677 *  0.127540 *  -2.87073    1.000000    
    247 O2    s    0.344939 *  0.382318 *  0.361073 *  -2.87073    1.000000    
    248 O2    s    0.024778 *  0.654107 *  0.023741 *  -2.87073    1.000000    
    249 O2    s    0.623553 *  0.966787 *  0.694261 *  -2.87073    1.000000    
    250 O2    s    0.657611 *  0.622033 *  0.861572 *  -2.87073    1.000000    
    251 O2    s    0.957757 *  0.341097 *  0.530359 *  -2.87073    1.000000    
    252 O3    s    0.352691 *  0.033448 *  0.196161 *  -3.33043    1.000000    
    253 O3    s    0.764058 *  0.290469 *  0.004152 *  -3.33043    1.000000    
    254 O2    s    0.691789 *  0.468495 *  0.347865 *  -2.87073    1.000000    
    255 O2    s    0.534142 *  0.226081 *  0.677945 *  -2.87073    1.000000    
    256 O2    s    0.215718 *  0.689583 *  0.510596 *  -2.87073    1.000000    
    257 O2    s    0.310794 *  0.532816 *  0.841601 *  -2.87073    1.000000    
    258 O2    s    0.458315 *  0.778709 *  0.175498 *  -2.87073    1.000000    
    259 O2    s    0.311678 *  0.776657 *  0.312963 *  -2.87073    1.000000    
    260 O2    s    0.461835 *  0.692211 *  0.981158 *  -2.87073    1.000000    
    261 O2    s    0.224503 *  0.536769 *  0.649489 *  -2.87073    1.000000    
    262 O2    s    0.689300 *  0.222013 *  0.816778 *  -2.87073    1.000000    
    263 O2    s    0.526712 *  0.313408 *  0.485356 *  -2.87073    1.000000    
    264 O2    s    0.761293 *  0.462166 *  0.145493 *  -2.87073    1.000000    
    265 O3    s    0.780265 *  0.547088 *  0.020219 *  -3.33043    1.000000    
    266 O2    s    0.472199 *  0.260049 *  0.363225 *  -2.87073    1.000000    
    267 O2    s    0.743695 *  0.214173 *  0.694878 *  -2.87073    1.000000    
    268 O2    s    0.204838 *  0.468428 *  0.527860 *  -2.87073    1.000000    
    269 O2    s    0.531582 *  0.743368 *  0.859388 *  -2.87073    1.000000    
    270 O2    s    0.254333 *  0.792377 *  0.196027 *  -2.87073    1.000000    
    271 O2    s    0.526919 *  0.794975 *  0.293524 *  -2.87073    1.000000    
    272 O2    s    0.254193 *  0.469501 *  0.964391 *  -2.87073    1.000000    
    273 O2    s    0.210311 *  0.744563 *  0.632603 *  -2.87073    1.000000    
    274 O2    s    0.467655 *  0.208200 *  0.800020 *  -2.87073    1.000000    
    275 O2    s    0.733933 *  0.534433 *  0.471056 *  -2.87073    1.000000    
    276 O2    s    0.780072 *  0.255656 *  0.131050 *  -2.87073    1.000000    
    277 O2    s    0.237844 *  0.334076 *  0.894219 *  -2.87073    1.000000    
    278 O2    s    0.665500 *  0.917180 *  0.226193 *  -2.87073    1.000000    
    279 O2    s    0.088153 *  0.760432 *  0.563168 *  -2.87073    1.000000    
    280 O2    s    0.758859 *  0.668471 *  0.399225 *  -2.87073    1.000000    
    281 O2    s    0.332835 *  0.092585 *  0.728888 *  -2.87073    1.000000    
    282 O2    s    0.892337 *  0.237226 *  0.059778 *  -2.87073    1.000000    
    283 O2    s    0.330155 *  0.242132 *  0.431243 *  -2.87073    1.000000    
    284 O2    s    0.890696 *  0.658019 *  0.092562 *  -2.87073    1.000000    
    285 O2    s    0.759153 *  0.092980 *  0.764325 *  -2.87073    1.000000    
    286 O2    s    0.664319 *  0.758882 *  0.930413 *  -2.87073    1.000000    
    287 O2    s    0.089291 *  0.334919 *  0.599055 *  -2.87073    1.000000    
    288 O2    s    0.242237 *  0.914192 *  0.267239 *  -2.87073    1.000000    
    289 O2    s    0.575408 *  0.560515 *  0.984312 *  -2.87073    1.000000    
    290 O2    s    0.445589 *  0.021608 *  0.319206 *  -2.87073    1.000000    
    291 O2    s    0.978564 *  0.421755 *  0.652836 *  -2.87073    1.000000    
    292 O2    s    0.408887 *  0.442766 *  0.483011 *  -2.87073    1.000000    
    293 O2    s    0.558649 *  0.975453 *  0.816272 *  -2.87073    1.000000    
    294 O2    s    0.006988 *  0.575545 *  0.143850 *  -2.87073    1.000000    
    295 O2    s    0.563028 *  0.589640 *  0.344363 *  -2.87073    1.000000    
    296 O2    s    0.007868 *  0.437037 *  0.006514 *  -2.87073    1.000000    
    297 O2    s    0.416668 *  0.978754 *  0.675467 *  -2.87073    1.000000    
    298 O2    s    0.439816 *  0.414593 *  0.843376 *  -2.87073    1.000000    
    299 O2    s    0.969098 *  0.559679 *  0.511361 *  -2.87073    1.000000    
    300 O3    s    0.588837 *  0.019652 *  0.169084 *  -3.33043    1.000000    
    301 O3    s    0.588847 *  0.172951 *  0.256465 *  -3.33043    1.000000    
    302 O2    s    0.843739 *  0.424369 *  0.583424 *  -2.87073    1.000000    
    303 O2    s    0.577508 *  0.425961 *  0.914449 *  -2.87073    1.000000    
    304 O2    s    0.422631 *  0.846184 *  0.745356 *  -2.87073    1.000000    
    305 O2    s    0.137766 *  0.571293 *  0.076180 *  -2.87073    1.000000    
    306 O2    s    0.419434 *  0.581399 *  0.412404 *  -2.87073    1.000000    
    307 F     s    0.471990 *  0.957837 *  0.235781 *  -1.56000    1.000000    
    308 F     s    0.093707 *  0.549120 *  0.579715 *  -1.56000    1.000000    
    309 F     s    0.446074 *  0.553208 *  0.911149 *  -1.56000    1.000000    
    310 F     s    0.548846 *  0.098414 *  0.745315 *  -1.56000    1.000000    
    311 F     s    0.841034 *  0.430568 *  0.066142 *  -1.56000    1.000000    
    312 F     s    0.545077 *  0.455718 *  0.413790 *  -1.56000    1.000000    
--------------------------------------------------------------------------------



********************************************************************************
*  General input information                                                   *
********************************************************************************

  Species output for all configurations : 

--------------------------------------------------------------------------------
  Species    Type    Atomic    Atomic    Charge       Radii (Angs)     Library
                     Number     Mass       (e)     Cova   Ionic  VDW   Symbol
--------------------------------------------------------------------------------
    Si       Core       14      28.09   4.000000   1.200  0.000  2.100          
    O1       Core        8      16.00   1.733957   0.730  0.000  1.360          
    O1       Shell       8       0.00  -3.733957   0.730  0.000  1.360          
    O2       Core        8      16.00   0.870733   0.730  0.000  1.360          
    O2       Shell       8       0.00  -2.870733   0.730  0.000  1.360          
    O3       Core        8      16.00   1.330431   0.730  0.000  1.360          
    O3       Shell       8       0.00  -3.330431   0.730  0.000  1.360          
    F        Core        9      19.00   0.560000   0.710  0.000  1.300          
    F        Shell       9       0.00  -1.560000   0.710  0.000  1.300          
    Ge       Core       32      72.61   4.000000   1.170  0.000  1.750          
--------------------------------------------------------------------------------


  Lattice summation method               =    Ewald          (3-D)
                                         =    Parry          (2-D)
                                         =    Saunders et al (1-D)
  Accuracy factor for lattice sums       =   12.000


  Time limit = Infinity

  Maximum range for interatomic potentials =        16.000000 Angstroms

  Taper potentials to zero over   1.0000 Angstroms using polynomial

  General interatomic potentials :

--------------------------------------------------------------------------------
Atom  Types   Potential         A         B         C         D     Cutoffs(Ang)
  1     2                                                            Min    Max 
--------------------------------------------------------------------------------
Si   c O1   s Buckingham    0.132E+04 0.318      10.1      0.00     0.000 16.000
Si   c O2   s Buckingham    0.132E+04 0.318      10.1      0.00     0.000 16.000
Si   c O3   s Buckingham    0.132E+04 0.318      10.1      0.00     0.000 16.000
Ge   c O1   s Buckingham    0.150E+04 0.326      16.8      0.00     0.000 16.000
Ge   c O2   s Buckingham    0.150E+04 0.326      16.8      0.00     0.000 16.000
Ge   c O3   s Buckingham    0.150E+04 0.326      16.8      0.00     0.000 16.000
O1   s O1   s Buckingham    0.228E+05 0.149      10.9      0.00     0.000 16.000
O1   s O2   s Buckingham    0.228E+05 0.149      10.9      0.00     0.000 16.000
O1   s O3   s Buckingham    0.228E+05 0.149      10.9      0.00     0.000 16.000
O2   s O2   s Buckingham    0.228E+05 0.149      10.9      0.00     0.000 16.000
O2   s O3   s Buckingham    0.228E+05 0.149      10.9      0.00     0.000 16.000
O3   s O3   s Buckingham    0.228E+05 0.149      10.9      0.00     0.000 16.000
Si   c F    s Buckingham     977.     0.282      0.00      0.00     0.000 16.000
Ge   c F    s Buckingham     681.     0.320      0.00      0.00     0.000 16.000
F    s F    s Buckingham     540.     0.262      0.00      0.00     0.000 16.000
O1   s F    s Buckingham    0.168E+04 0.268      0.00      0.00     0.000 16.000
O2   s F    s Buckingham    0.168E+04 0.268      0.00      0.00     0.000 16.000
O3   s F    s Buckingham    0.168E+04 0.268      0.00      0.00     0.000 16.000
O2   c O2   s Spring (c-s)   76.0      0.00      0.00      0.00     0.000  0.800
O3   c O3   s Spring (c-s)   128.      0.00      0.00      0.00     0.000  0.800
O1   c O1   s Spring (c-s)   180.      0.00      0.00      0.00     0.000  0.800
F    c F    s Spring (c-s)   33.5      0.00      0.00      0.00     0.000  0.800
--------------------------------------------------------------------------------

  General Three-body potentials :

  Harmonic form:

--------------------------------------------------------------------------------
Atom    Atom    Atom           Force Constants            Theta     Cutoffs  
  1       2       3     (eVrad**-2/eVrad**-3/eVrad**-4)   (deg)  1-2  1-3  2-3
--------------------------------------------------------------------------------
Si    c O1    s O1    s  1.261        0.0000    0.0000   109.470 0.00 0.00 0.00
                                                                 1.90 1.90 3.50
Si    c O1    s O2    s  1.261        0.0000    0.0000   109.470 0.00 0.00 0.00
                                                                 1.90 1.90 3.50
Si    c O2    s O2    s  1.261        0.0000    0.0000   109.470 0.00 0.00 0.00
                                                                 1.90 1.90 3.50
--------------------------------------------------------------------------------

********************************************************************************
*  Output for configuration   1                                                *
********************************************************************************


  Components of energy : 

--------------------------------------------------------------------------------
  Interatomic potentials     =        2063.89859249 eV
  Three-body potentials      =           0.45970176 eV
  Monopole - monopole (real) =       -6614.72534907 eV
  Monopole - monopole (recip)=       -3170.02219048 eV
  Monopole - monopole (total)=       -9784.74753955 eV
  Neutralising energy        =          -6.45734110 eV
--------------------------------------------------------------------------------
  Total lattice energy       =       -7726.84658640 eV
--------------------------------------------------------------------------------
  Total lattice energy       =         -745522.5799 kJ/(mole unit cells)
--------------------------------------------------------------------------------


  Number of variables =      939

  Maximum number of calculations  =          1000
  Maximum Hessian update interval =            10
  Maximum step size               =   1.000000000
  Maximum parameter tolerance     =   0.000010000
  Maximum function  tolerance     =   0.000010000
  Maximum gradient  tolerance     =   0.001000000
  Maximum gradient  component     =   0.010000000

  Symmetry not applied to optimisation

  Cell parameters to be optimised using strains

  Newton-Raphson optimiser to be used

  BFGS hessian update to be used

  Dumpfile to be written after every cycle

  Start of bulk optimisation :

  Cycle:      0 Energy:     -7726.846586  Gnorm:      0.000892  CPU:    1.031
  ** Hessian calculated **
  Cycle:      1 Energy:     -7726.904834  Gnorm:      0.003890  CPU:    3.262
  Cycle:      2 Energy:     -7726.905177  Gnorm:      0.000266  CPU:    4.640
  Cycle:      3 Energy:     -7726.905187  Gnorm:      0.000056  CPU:    6.413


  **** Optimisation achieved ****


  Final energy =   -7726.90518725 eV
  Final Gnorm  =       0.00000979

  Components of energy : 

--------------------------------------------------------------------------------
  Interatomic potentials     =        2063.88854101 eV
  Three-body potentials      =           0.46235985 eV
  Monopole - monopole (real) =       -6616.04624080 eV
  Monopole - monopole (recip)=       -3168.75508518 eV
  Monopole - monopole (total)=       -9784.80132597 eV
  Neutralising energy        =          -6.45476213 eV
--------------------------------------------------------------------------------
  Total lattice energy       =       -7726.90518725 eV
--------------------------------------------------------------------------------
  Total lattice energy       =         -745528.2340 kJ/(mole unit cells)
--------------------------------------------------------------------------------

  Final fractional coordinates of atoms :

--------------------------------------------------------------------------------
   No.  Atomic        x           y          z          Radius
        Label       (Frac)      (Frac)     (Frac)       (Angs) 
--------------------------------------------------------------------------------
     1  Ge    c     0.699600    0.375700    0.033890    0.000000
     2  Si    c     0.605031    0.322849    0.368629    0.000000
     3  Si    c     0.659826    0.294998    0.698653    0.000000
     4  Si    c     0.271721    0.618437    0.530313    0.000000
     5  Si    c     0.364604    0.669867    0.862339    0.000000
     6  Si    c     0.299696    0.699664    0.194643    0.000000
     7  Si    c     0.359381    0.697741    0.295971    0.000000
     8  Si    c     0.309082    0.615556    0.962485    0.000000
     9  Si    c     0.280695    0.676562    0.630824    0.000000
    10  Si    c     0.606036    0.292341    0.799132    0.000000
    11  Si    c     0.651955    0.377892    0.469586    0.000000
    12  Si    c     0.663870    0.302191    0.132406    0.000000
    13  Si    c     0.521317    0.411906    0.966562    0.000000
    14  Si    c     0.573381    0.120625    0.302264    0.000000
    15  Si    c     0.870012    0.469725    0.634718    0.000000
    16  Si    c     0.442988    0.581425    0.465143    0.000000
    17  Si    c     0.402026    0.880799    0.797433    0.000000
    18  Si    c     0.088060    0.522294    0.128741    0.000000
    19  Si    c     0.400716    0.530506    0.363435    0.000000
    20  Si    c     0.093805    0.576355    0.025482    0.000000
    21  Si    c     0.454710    0.886821    0.695695    0.000000
    22  Si    c     0.569207    0.464801    0.863847    0.000000
    23  Si    c     0.864719    0.415897    0.533281    0.000000
    24  Ge    c     0.503726    0.091088    0.203367    0.000000
    25  Si    c     0.288857    0.393088    0.848102    0.000000
    26  Si    c     0.584326    0.902168    0.176786    0.000000
    27  Si    c     0.070874    0.695581    0.516772    0.000000
    28  Si    c     0.680221    0.600149    0.352718    0.000000
    29  Si    c     0.382388    0.094816    0.682402    0.000000
    30  Si    c     0.881758    0.288577    0.010288    0.000000
    31  Si    c     0.372354    0.300299    0.479727    0.000000
    32  Si    c     0.871782    0.589616    0.140823    0.000000
    33  Si    c     0.683565    0.091012    0.812392    0.000000
    34  Si    c     0.586872    0.693183    0.977772    0.000000
    35  Si    c     0.079979    0.398326    0.647116    0.000000
    36  Si    c     0.286577    0.903036    0.314683    0.000000
    37  Si    c     0.242083    0.336818    0.948556    0.000000
    38  Si    c     0.644045    0.914886    0.279938    0.000000
    39  Si    c     0.070599    0.748137    0.617469    0.000000
    40  Si    c     0.722438    0.657904    0.453558    0.000000
    41  Si    c     0.324755    0.082566    0.783003    0.000000
    42  Si    c     0.884550    0.240404    0.113781    0.000000
    43  Si    c     0.323991    0.252626    0.378574    0.000000
    44  Si    c     0.891741    0.658418    0.038696    0.000000
    45  Si    c     0.733548    0.087743    0.711655    0.000000
    46  Si    c     0.645012    0.743226    0.877254    0.000000
    47  Si    c     0.065093    0.337743    0.546495    0.000000
    48  Si    c     0.223570    0.910298    0.213039    0.000000
    49  Si    c     0.963922    0.117960    0.961642    0.000000
    50  Si    c     0.852929    0.840933    0.296280    0.000000
    51  Si    c     0.133531    0.028081    0.631876    0.000000
    52  Si    c     0.000553    0.875191    0.466540    0.000000
    53  Si    c     0.107966    0.144799    0.797142    0.000000
    54  Si    c     0.828803    0.962381    0.128670    0.000000
    55  Ge    c     0.100705    0.968051    0.363301    0.000000
    56  Si    c     0.836863    0.877972    0.027612    0.000000
    57  Si    c     0.013354    0.149463    0.696623    0.000000
    58  Si    c     0.865086    0.021848    0.861644    0.000000
    59  Si    c     0.126072    0.119917    0.531107    0.000000
    60  Si    c     0.937082    0.832708    0.195100    0.000000
    61  O2    c     0.917134    0.999692    0.995807    0.000000
    62  O3    c     0.982546    0.930950    0.323153    0.000000
    63  O2    c     0.053207    0.070588    0.663185    0.000000
    64  O2    c     0.047055    0.000117    0.497677    0.000000
    65  O2    c     0.983844    0.063107    0.828103    0.000000
    66  O2    c     0.908176    0.922128    0.162318    0.000000
    67  O2    c     0.325537    0.577514    0.328900    0.000000
    68  O2    c     0.405785    0.762403    0.662632    0.000000
    69  O2    c     0.222077    0.651612    0.994922    0.000000
    70  O2    c     0.644874    0.414341    0.831980    0.000000
    71  O3    c     0.558483    0.230325    0.169542    0.000000
    72  O2    c     0.734635    0.338295    0.502637    0.000000
    73  O3    c     0.564075    0.335318    0.998215    0.000000
    74  O2    c     0.746056    0.421147    0.667198    0.000000
    75  O2    c     0.646297    0.234769    0.339718    0.000000
    76  O2    c     0.392419    0.656784    0.496602    0.000000
    77  O2    c     0.212590    0.576818    0.162267    0.000000
    78  O2    c     0.325826    0.754338    0.829202    0.000000
    79  O2    c     0.117237    0.208074    0.968319    0.000000
    80  O2    c     0.763049    0.904935    0.301329    0.000000
    81  O2    c     0.071414    0.874088    0.637600    0.000000
    82  O2    c     0.847032    0.784348    0.474544    0.000000
    83  O2    c     0.197968    0.080766    0.802769    0.000000
    84  O2    c     0.885935    0.115712    0.134909    0.000000
    85  O3    c     0.200029    0.131614    0.356658    0.000000
    86  O2    c     0.908107    0.795414    0.022634    0.000000
    87  O2    c     0.859295    0.087972    0.691473    0.000000
    88  O2    c     0.772277    0.867991    0.856837    0.000000
    89  O2    c     0.061844    0.209912    0.526712    0.000000
    90  O2    c     0.090277    0.896010    0.195192    0.000000
    91  O2    c     0.883218    0.833433    0.244209    0.000000
    92  O2    c     0.118114    0.065326    0.581004    0.000000
    93  O2    c     0.924592    0.061826    0.911463    0.000000
    94  O2    c     0.056126    0.133693    0.746340    0.000000
    95  O2    c     0.847666    0.929275    0.078334    0.000000
    96  O3    c     0.029857    0.922938    0.415241    0.000000
    97  O2    c     0.894988    0.199675    0.972396    0.000000
    98  O2    c     0.780480    0.694873    0.314895    0.000000
    99  O2    c     0.285269    0.098228    0.644082    0.000000
   100  O2    c     0.071034    0.793546    0.478148    0.000000
   101  O2    c     0.190504    0.295747    0.809601    0.000000
   102  O2    c     0.676709    0.884811    0.140846    0.000000
   103  O3    c     0.192539    0.896150    0.354204    0.000000
   104  O2    c     0.685214    0.793352    0.015794    0.000000
   105  O2    c     0.083583    0.301809    0.685133    0.000000
   106  O2    c     0.782488    0.091502    0.850513    0.000000
   107  O2    c     0.276327    0.203428    0.518018    0.000000
   108  O2    c     0.870984    0.684717    0.179580    0.000000
   109  O2    c     0.303776    0.646534    0.245291    0.000000
   110  O2    c     0.333842    0.676603    0.580000    0.000000
   111  O2    c     0.305871    0.671376    0.912092    0.000000
   112  O2    c     0.661304    0.351100    0.748930    0.000000
   113  O3    c     0.605274    0.295382    0.082964    0.000000
   114  O2    c     0.657929    0.324601    0.419604    0.000000
   115  O2    c     0.363386    0.327365    0.966776    0.000000
   116  O2    c     0.656622    0.045756    0.300361    0.000000
   117  O2    c     0.939584    0.626126    0.636628    0.000000
   118  O2    c     0.599155    0.668802    0.469166    0.000000
   119  O2    c     0.314833    0.949478    0.800362    0.000000
   120  O2    c     0.017610    0.366656    0.130995    0.000000
   121  O2    c     0.315025    0.375173    0.359511    0.000000
   122  O2    c     0.024933    0.662805    0.023605    0.000000
   123  O2    c     0.610930    0.956024    0.692513    0.000000
   124  O2    c     0.654591    0.620978    0.859209    0.000000
   125  O2    c     0.931904    0.327712    0.528667    0.000000
   126  O3    c     0.336198    0.040446    0.193570    0.000000
   127  O3    c     0.749483    0.282301    0.001090    0.000000
   128  O2    c     0.678905    0.465560    0.345592    0.000000
   129  O2    c     0.517197    0.228755    0.675195    0.000000
   130  O2    c     0.203122    0.693544    0.507968    0.000000
   131  O2    c     0.289909    0.527263    0.839245    0.000000
   132  O2    c     0.443487    0.769771    0.173904    0.000000
   133  O2    c     0.287447    0.768762    0.316642    0.000000
   134  O2    c     0.452765    0.693757    0.984966    0.000000
   135  O2    c     0.214294    0.533199    0.653128    0.000000
   136  O2    c     0.682013    0.223626    0.820491    0.000000
   137  O2    c     0.506261    0.301908    0.489245    0.000000
   138  O2    c     0.741003    0.455642    0.147961    0.000000
   139  O3    c     0.767216    0.543981    0.017031    0.000000
   140  O2    c     0.449403    0.248304    0.361406    0.000000
   141  O2    c     0.735546    0.215244    0.692626    0.000000
   142  O2    c     0.190682    0.462080    0.525857    0.000000
   143  O2    c     0.520910    0.746759    0.857324    0.000000
   144  O2    c     0.231345    0.785887    0.194710    0.000000
   145  O2    c     0.513051    0.790408    0.296634    0.000000
   146  O2    c     0.236377    0.459822    0.968107    0.000000
   147  O2    c     0.197957    0.749096    0.635874    0.000000
   148  O2    c     0.450067    0.207859    0.803322    0.000000
   149  O2    c     0.721380    0.533299    0.474651    0.000000
   150  O2    c     0.763386    0.244965    0.133573    0.000000
   151  O2    c     0.218220    0.319214    0.894298    0.000000
   152  O2    c     0.656960    0.916416    0.225680    0.000000
   153  O2    c     0.069324    0.766514    0.563069    0.000000
   154  O2    c     0.748475    0.674266    0.399457    0.000000
   155  O2    c     0.307728    0.087774    0.728678    0.000000
   156  O2    c     0.884864    0.225972    0.059520    0.000000
   157  O2    c     0.300832    0.228957    0.432801    0.000000
   158  O2    c     0.880381    0.662349    0.093919    0.000000
   159  O2    c     0.753082    0.088124    0.765900    0.000000
   160  O2    c     0.662450    0.763153    0.931539    0.000000
   161  O2    c     0.070756    0.322304    0.600706    0.000000
   162  O2    c     0.217321    0.911860    0.268398    0.000000
   163  O2    c     0.570745    0.554665    0.987937    0.000000
   164  O2    c     0.429314    0.023463    0.322418    0.000000
   165  O2    c     0.957053    0.414723    0.656913    0.000000
   166  O2    c     0.384524    0.439029    0.487234    0.000000
   167  O2    c     0.543776    0.965675    0.820367    0.000000
   168  O2    c     0.996880    0.573493    0.148128    0.000000
   169  O2    c     0.543771    0.591908    0.341943    0.000000
   170  O2    c     0.004434    0.434189    0.004801    0.000000
   171  O2    c     0.395763    0.969737    0.672646    0.000000
   172  O2    c     0.427663    0.405771    0.840289    0.000000
   173  O2    c     0.944391    0.555881    0.508568    0.000000
   174  O3    c     0.574915    0.025076    0.165608    0.000000
   175  O3    c     0.575442    0.182722    0.254734    0.000000
   176  O2    c     0.814651    0.415657    0.584161    0.000000
   177  O2    c     0.572246    0.416866    0.914810    0.000000
   178  O2    c     0.402065    0.830961    0.746149    0.000000
   179  O2    c     0.136810    0.571669    0.077804    0.000000
   180  O2    c     0.394175    0.583278    0.413446    0.000000
   181  F     c     0.450931    0.944355    0.238657    0.000000
   182  F     c     0.074840    0.546206    0.580429    0.000000
   183  F     c     0.435287    0.547417    0.911989    0.000000
   184  F     c     0.533206    0.093055    0.746056    0.000000
   185  F     c     0.846773    0.432379    0.069384    0.000000
   186  F     c     0.524268    0.451892    0.414839    0.000000
   187  O2    s     0.913167    0.999166    0.995573    0.000000
   188  O3    s     0.978767    0.924504    0.323708    0.000000
   189  O2    s     0.057822    0.074566    0.663374    0.000000
   190  O2    s     0.050701    0.999563    0.497940    0.000000
   191  O2    s     0.984523    0.067681    0.828372    0.000000
   192  O2    s     0.902529    0.916627    0.162231    0.000000
   193  O2    s     0.336736    0.585731    0.328819    0.000000
   194  O2    s     0.397729    0.766097    0.662664    0.000000
   195  O2    s     0.217260    0.640117    0.994902    0.000000
   196  O2    s     0.633147    0.406723    0.831770    0.000000
   197  O3    s     0.565961    0.228039    0.167946    0.000000
   198  O2    s     0.739215    0.350392    0.502279    0.000000
   199  O3    s     0.568679    0.346630    0.997161    0.000000
   200  O2    s     0.750291    0.413444    0.666994    0.000000
   201  O2    s     0.634754    0.232320    0.338931    0.000000
   202  O2    s     0.385460    0.645000    0.496736    0.000000
   203  O2    s     0.208808    0.583980    0.162195    0.000000
   204  O2    s     0.337689    0.759011    0.829239    0.000000
   205  O2    s     0.113318    0.211422    0.965602    0.000000
   206  O2    s     0.759872    0.899230    0.298538    0.000000
   207  O2    s     0.077918    0.877322    0.634925    0.000000
   208  O2    s     0.850174    0.780743    0.471557    0.000000
   209  O2    s     0.201546    0.087714    0.800157    0.000000
   210  O2    s     0.879810    0.112459    0.132115    0.000000
   211  O3    s     0.204188    0.130152    0.359389    0.000000
   212  O2    s     0.898755    0.790150    0.024818    0.000000
   213  O2    s     0.862757    0.094493    0.694065    0.000000
   214  O2    s     0.769147    0.871670    0.859421    0.000000
   215  O2    s     0.068979    0.213479    0.529180    0.000000
   216  O2    s     0.087648    0.890388    0.197147    0.000000
   217  O2    s     0.885947    0.834238    0.244520    0.000000
   218  O2    s     0.120745    0.067413    0.580982    0.000000
   219  O2    s     0.922290    0.063641    0.911494    0.000000
   220  O2    s     0.057039    0.136755    0.746341    0.000000
   221  O2    s     0.844248    0.927413    0.078549    0.000000
   222  O3    s     0.033035    0.921941    0.416016    0.000000
   223  O2    s     0.901209    0.200175    0.975253    0.000000
   224  O2    s     0.777811    0.700652    0.316872    0.000000
   225  O2    s     0.278876    0.090422    0.646628    0.000000
   226  O2    s     0.063659    0.792313    0.480777    0.000000
   227  O2    s     0.191624    0.289404    0.812169    0.000000
   228  O2    s     0.683120    0.894555    0.143220    0.000000
   229  O3    s     0.194431    0.902507    0.351071    0.000000
   230  O2    s     0.691532    0.792331    0.013238    0.000000
   231  O2    s     0.075833    0.295747    0.682420    0.000000
   232  O2    s     0.781066    0.084112    0.847784    0.000000
   233  O2    s     0.270262    0.204639    0.515397    0.000000
   234  O2    s     0.878321    0.691115    0.177274    0.000000
   235  O2    s     0.309082    0.657137    0.245416    0.000000
   236  O2    s     0.322093    0.670634    0.580049    0.000000
   237  O2    s     0.312079    0.665568    0.912204    0.000000
   238  O2    s     0.655510    0.339307    0.748847    0.000000
   239  O3    s     0.617532    0.301469    0.084600    0.000000
   240  O2    s     0.651764    0.329977    0.419431    0.000000
   241  O2    s     0.365487    0.336776    0.964714    0.000000
   242  O2    s     0.647308    0.039250    0.298392    0.000000
   243  O2    s     0.946206    0.622864    0.634404    0.000000
   244  O2    s     0.596048    0.658649    0.467088    0.000000
   245  O2    s     0.324804    0.956425    0.798226    0.000000
   246  O2    s     0.011664    0.370286    0.129037    0.000000
   247  O2    s     0.325078    0.378953    0.361925    0.000000
   248  O2    s     0.018963    0.653312    0.025308    0.000000
   249  O2    s     0.607652    0.962641    0.694841    0.000000
   250  O2    s     0.644822    0.617784    0.861579    0.000000
   251  O2    s     0.938902    0.337817    0.531001    0.000000
   252  O3    s     0.335064    0.029714    0.196342    0.000000
   253  O3    s     0.760533    0.289117    0.004296    0.000000
   254  O2    s     0.671463    0.465026    0.348729    0.000000
   255  O2    s     0.517637    0.221486    0.678371    0.000000
   256  O2    s     0.196291    0.686081    0.511198    0.000000
   257  O2    s     0.297440    0.527831    0.842562    0.000000
   258  O2    s     0.442214    0.775448    0.176409    0.000000
   259  O2    s     0.295022    0.775280    0.314214    0.000000
   260  O2    s     0.451800    0.685725    0.981904    0.000000
   261  O2    s     0.206939    0.533697    0.650163    0.000000
   262  O2    s     0.674375    0.216701    0.817411    0.000000
   263  O2    s     0.507306    0.309659    0.486155    0.000000
   264  O2    s     0.748529    0.456417    0.145669    0.000000
   265  O3    s     0.776829    0.546064    0.020417    0.000000
   266  O2    s     0.452136    0.256527    0.363945    0.000000
   267  O2    s     0.727433    0.209672    0.695256    0.000000
   268  O2    s     0.185497    0.464934    0.528507    0.000000
   269  O2    s     0.518119    0.738352    0.859960    0.000000
   270  O2    s     0.238071    0.789080    0.196533    0.000000
   271  O2    s     0.510314    0.793781    0.294744    0.000000
   272  O2    s     0.244595    0.463067    0.965489    0.000000
   273  O2    s     0.192625    0.741299    0.633360    0.000000
   274  O2    s     0.452742    0.202959    0.800697    0.000000
   275  O2    s     0.714075    0.530558    0.471843    0.000000
   276  O2    s     0.767681    0.250129    0.131233    0.000000
   277  O2    s     0.228157    0.328879    0.895094    0.000000
   278  O2    s     0.648485    0.914937    0.226810    0.000000
   279  O2    s     0.069616    0.757115    0.563897    0.000000
   280  O2    s     0.738630    0.664783    0.400205    0.000000
   281  O2    s     0.317387    0.087963    0.729518    0.000000
   282  O2    s     0.884525    0.233655    0.060518    0.000000
   283  O2    s     0.310566    0.238686    0.432061    0.000000
   284  O2    s     0.880538    0.654028    0.093577    0.000000
   285  O2    s     0.743748    0.088379    0.764964    0.000000
   286  O2    s     0.652755    0.753790    0.930591    0.000000
   287  O2    s     0.071106    0.331886    0.599744    0.000000
   288  O2    s     0.225076    0.910865    0.267716    0.000000
   289  O2    s     0.567307    0.555761    0.984640    0.000000
   290  O2    s     0.427960    0.019778    0.319564    0.000000
   291  O2    s     0.961408    0.418898    0.653520    0.000000
   292  O2    s     0.389542    0.439047    0.484076    0.000000
   293  O2    s     0.544082    0.970556    0.817091    0.000000
   294  O2    s     0.993560    0.569609    0.145280    0.000000
   295  O2    s     0.543271    0.586265    0.345338    0.000000
   296  O2    s     0.001511    0.434853    0.007622    0.000000
   297  O2    s     0.400602    0.974720    0.676077    0.000000
   298  O2    s     0.427361    0.410673    0.843563    0.000000
   299  O2    s     0.949882    0.556418    0.511972    0.000000
   300  O3    s     0.571223    0.015605    0.169213    0.000000
   301  O3    s     0.570530    0.170092    0.256485    0.000000
   302  O2    s     0.825728    0.421312    0.584040    0.000000
   303  O2    s     0.566881    0.421577    0.914445    0.000000
   304  O2    s     0.407536    0.841899    0.746167    0.000000
   305  O2    s     0.127318    0.566901    0.077960    0.000000
   306  O2    s     0.399817    0.577630    0.413514    0.000000
   307  F     s     0.454891    0.955030    0.236109    0.000000
   308  F     s     0.075176    0.546333    0.580239    0.000000
   309  F     s     0.434656    0.548119    0.911836    0.000000
   310  F     s     0.533483    0.093559    0.745883    0.000000
   311  F     s     0.836165    0.428520    0.066768    0.000000
   312  F     s     0.524222    0.451793    0.414666    0.000000
--------------------------------------------------------------------------------

  Final Cartesian lattice vectors (Angstroms) :

       11.993658    0.003894   -0.011242
       -6.036009   10.364951    0.013309
       -0.244763    0.008484   29.482720


  Final cell parameters and derivatives :

--------------------------------------------------------------------------------
       a           11.993664 Angstrom     dE/de1(xx)     0.000994 eV/strain
       b           11.994407 Angstrom     dE/de2(yy)     0.000693 eV/strain
       c           29.483737 Angstrom     dE/de3(zz)     0.001255 eV/strain
       alpha       89.682816 Degrees      dE/de4(yz)    -0.000051 eV/strain
       beta        90.529354 Degrees      dE/de5(xz)     0.000054 eV/strain
       gamma      120.195730 Degrees      dE/de6(xy)     0.000145 eV/strain
--------------------------------------------------------------------------------

  Primitive cell volume =          3665.769121 Angs**3

  Density of cell =      1.745362 g/cm**3

  Non-primitive cell volume =          3665.769121 Angs**3


  Final internal derivatives :

--------------------------------------------------------------------------------
   No.  Atomic          a             b             c           Radius
        Label          (eV)          (eV)          (eV)        (eV/Angs)
--------------------------------------------------------------------------------
      1 Ge    c       0.000000      0.000000      0.000000      0.000000
      2 Si    c      -0.000012      0.000026      0.000246      0.000000
      3 Si    c       0.000021      0.000057     -0.000048      0.000000
      4 Si    c      -0.000028      0.000054      0.000313      0.000000
      5 Si    c       0.000017     -0.000051     -0.000069      0.000000
      6 Si    c       0.000017      0.000014     -0.000055      0.000000
      7 Si    c       0.000046     -0.000041      0.000054      0.000000
      8 Si    c       0.000135     -0.000186     -0.000103      0.000000
      9 Si    c       0.000054     -0.000001     -0.000235      0.000000
     10 Si    c      -0.000005      0.000051     -0.000086      0.000000
     11 Si    c      -0.000056      0.000015     -0.000133      0.000000
     12 Si    c       0.000224     -0.000264      0.001325      0.000000
     13 Si    c      -0.001135      0.001290     -0.001706      0.000000
     14 Si    c       0.000054     -0.000039      0.000027      0.000000
     15 Si    c      -0.000037     -0.000008     -0.000114      0.000000
     16 Si    c       0.000009      0.000013     -0.000038      0.000000
     17 Si    c       0.000012     -0.000028     -0.000072      0.000000
     18 Si    c       0.000097     -0.000084      0.000779      0.000000
     19 Si    c      -0.000023      0.000049      0.000025      0.000000
     20 Si    c       0.000020      0.000150     -0.000619      0.000000
     21 Si    c       0.000007     -0.000024      0.000213      0.000000
     22 Si    c       0.000009      0.000028      0.000136      0.000000
     23 Si    c      -0.000001      0.000000      0.000134      0.000000
     24 Ge    c      -0.000106     -0.000117      0.000538      0.000000
     25 Si    c      -0.000053      0.000057     -0.000434      0.000000
     26 Si    c       0.000109     -0.000043     -0.000014      0.000000
     27 Si    c       0.000029      0.000014      0.000083      0.000000
     28 Si    c      -0.000002      0.000071      0.000037      0.000000
     29 Si    c      -0.000029      0.000016      0.000091      0.000000
     30 Si    c      -0.000098      0.000241     -0.000617      0.000000
     31 Si    c       0.000024     -0.000036     -0.000013      0.000000
     32 Si    c      -0.000044     -0.000074      0.000751      0.000000
     33 Si    c       0.000009     -0.000024     -0.000125      0.000000
     34 Si    c       0.000204     -0.000230      0.000280      0.000000
     35 Si    c       0.000024     -0.000054     -0.000109      0.000000
     36 Si    c      -0.000039      0.000014      0.000123      0.000000
     37 Si    c      -0.000007      0.000119     -0.000116      0.000000
     38 Si    c       0.000073     -0.000041     -0.000166      0.000000
     39 Si    c       0.000004      0.000016     -0.000121      0.000000
     40 Si    c      -0.000012      0.000035     -0.000075      0.000000
     41 Si    c      -0.000027      0.000001     -0.000055      0.000000
     42 Si    c       0.000121     -0.000170      0.001101      0.000000
     43 Si    c      -0.000005     -0.000020      0.000075      0.000000
     44 Si    c      -0.000015     -0.000054     -0.000899      0.000000
     45 Si    c       0.000027     -0.000050      0.000137      0.000000
     46 Si    c       0.000082     -0.000032     -0.000082      0.000000
     47 Si    c      -0.000000     -0.000019      0.000141      0.000000
     48 Si    c      -0.000005      0.000070     -0.000057      0.000000
     49 Si    c       0.000233     -0.000239      0.000770      0.000000
     50 Si    c      -0.000173      0.000114      0.000313      0.000000
     51 Si    c      -0.000086      0.000084     -0.000101      0.000000
     52 Si    c       0.000039     -0.000031      0.000014      0.000000
     53 Si    c       0.000015      0.000018     -0.000070      0.000000
     54 Si    c      -0.000129      0.000005      0.000067      0.000000
     55 Ge    c      -0.000043      0.000033     -0.000241      0.000000
     56 Si    c      -0.000285      0.000243     -0.001943      0.000000
     57 Si    c      -0.000002     -0.000005     -0.000040      0.000000
     58 Si    c       0.000043      0.000019      0.000050      0.000000
     59 Si    c      -0.000029      0.000007      0.000345      0.000000
     60 Si    c       0.000049     -0.000043     -0.000174      0.000000
     61 O2    c      -0.000133      0.000075      0.000149      0.000000
     62 O3    c       0.000268     -0.000031      0.000295      0.000000
     63 O2    c       0.000098     -0.000058     -0.000167      0.000000
     64 O2    c      -0.000006      0.000025     -0.000018      0.000000
     65 O2    c      -0.000080      0.000032      0.000100      0.000000
     66 O2    c      -0.000068      0.000089      0.000013      0.000000
     67 O2    c      -0.000030      0.000042     -0.000115      0.000000
     68 O2    c      -0.000000     -0.000027     -0.000049      0.000000
     69 O2    c       0.000016      0.000132      0.000007      0.000000
     70 O2    c      -0.000049      0.000071      0.000173      0.000000
     71 O3    c      -0.000465      0.000296     -0.000068      0.000000
     72 O2    c       0.000062     -0.000054      0.000107      0.000000
     73 O3    c       0.001816     -0.002144      0.002838      0.000000
     74 O2    c      -0.000026     -0.000047      0.000161      0.000000
     75 O2    c       0.000078     -0.000101     -0.000145      0.000000
     76 O2    c       0.000044     -0.000013     -0.000087      0.000000
     77 O2    c       0.000022     -0.000083     -0.000018      0.000000
     78 O2    c      -0.000030      0.000064     -0.000075      0.000000
     79 O2    c       0.000126     -0.000094      0.000225      0.000000
     80 O2    c       0.000020      0.000038     -0.000035      0.000000
     81 O2    c       0.000006     -0.000017     -0.000020      0.000000
     82 O2    c      -0.000031     -0.000006      0.000037      0.000000
     83 O2    c      -0.000069      0.000055     -0.000016      0.000000
     84 O2    c       0.000071     -0.000026      0.000090      0.000000
     85 O3    c      -0.000015      0.000034     -0.000034      0.000000
     86 O2    c       0.000550     -0.000493     -0.000261      0.000000
     87 O2    c      -0.000027      0.000000      0.000027      0.000000
     88 O2    c      -0.000027     -0.000048      0.000028      0.000000
     89 O2    c       0.000030     -0.000023      0.000020      0.000000
     90 O2    c      -0.000098      0.000075     -0.000044      0.000000
     91 O2    c      -0.000033     -0.000069     -0.000400      0.000000
     92 O2    c       0.000022     -0.000001     -0.000103      0.000000
     93 O2    c      -0.000117     -0.000165     -0.001605      0.000000
     94 O2    c       0.000067     -0.000010      0.000480      0.000000
     95 O2    c      -0.000111      0.000446      0.003244      0.000000
     96 O3    c      -0.000095     -0.000034      0.000290      0.000000
     97 O2    c      -0.000304      0.000359      0.000215      0.000000
     98 O2    c       0.000008     -0.000099      0.000067      0.000000
     99 O2    c      -0.000019      0.000015     -0.000043      0.000000
    100 O2    c       0.000002      0.000001     -0.000015      0.000000
    101 O2    c      -0.000012     -0.000113     -0.000015      0.000000
    102 O2    c      -0.000076      0.000072     -0.000000      0.000000
    103 O3    c       0.000118     -0.000113     -0.000035      0.000000
    104 O2    c      -0.000315      0.000013     -0.000053      0.000000
    105 O2    c      -0.000000     -0.000002     -0.000013      0.000000
    106 O2    c       0.000018     -0.000019      0.000062      0.000000
    107 O2    c       0.000010     -0.000010     -0.000007      0.000000
    108 O2    c      -0.000032     -0.000043      0.000130      0.000000
    109 O2    c      -0.000002     -0.000004      0.000024      0.000000
    110 O2    c      -0.000056      0.000002      0.000014      0.000000
    111 O2    c      -0.000050      0.000066     -0.000069      0.000000
    112 O2    c       0.000003     -0.000034      0.000060      0.000000
    113 O3    c      -0.000115      0.000104     -0.003239      0.000000
    114 O2    c      -0.000001     -0.000003     -0.000072      0.000000
    115 O2    c      -0.000128     -0.000011     -0.000028      0.000000
    116 O2    c       0.000005      0.000024      0.000010      0.000000
    117 O2    c      -0.000010      0.000010     -0.000002      0.000000
    118 O2    c      -0.000012      0.000002      0.000012      0.000000
    119 O2    c       0.000008     -0.000011      0.000013      0.000000
    120 O2    c       0.000056      0.000073      0.000059      0.000000
    121 O2    c      -0.000015     -0.000004     -0.000018      0.000000
    122 O2    c      -0.000034      0.000040     -0.000044      0.000000
    123 O2    c       0.000021     -0.000010      0.000030      0.000000
    124 O2    c       0.000014     -0.000079      0.000027      0.000000
    125 O2    c       0.000023     -0.000012      0.000005      0.000000
    126 O3    c      -0.000050      0.000015     -0.000175      0.000000
    127 O3    c      -0.000430      0.000693      0.000599      0.000000
    128 O2    c       0.000034     -0.000025     -0.000027      0.000000
    129 O2    c      -0.000020      0.000006     -0.000018      0.000000
    130 O2    c      -0.000037      0.000022      0.000016      0.000000
    131 O2    c      -0.000062      0.000165     -0.000011      0.000000
    132 O2    c       0.000018     -0.000024      0.000016      0.000000
    133 O2    c       0.000041     -0.000082     -0.000015      0.000000
    134 O2    c      -0.000127      0.000078      0.000048      0.000000
    135 O2    c       0.000005     -0.000038      0.000032      0.000000
    136 O2    c       0.000002      0.000004      0.000019      0.000000
    137 O2    c       0.000015     -0.000009     -0.000005      0.000000
    138 O2    c      -0.000040      0.000007      0.000100      0.000000
    139 O3    c      -0.000013     -0.000412     -0.000914      0.000000
    140 O2    c       0.000020     -0.000016     -0.000024      0.000000
    141 O2    c      -0.000022      0.000030     -0.000027      0.000000
    142 O2    c       0.000002     -0.000027      0.000001      0.000000
    143 O2    c      -0.000042      0.000047     -0.000103      0.000000
    144 O2    c      -0.000019     -0.000007     -0.000119      0.000000
    145 O2    c      -0.000031     -0.000039      0.000057      0.000000
    146 O2    c      -0.000029      0.000050      0.000024      0.000000
    147 O2    c      -0.000023      0.000018      0.000008      0.000000
    148 O2    c      -0.000027      0.000013      0.000039      0.000000
    149 O2    c       0.000027     -0.000033      0.000060      0.000000
    150 O2    c      -0.000343      0.000154      0.000315      0.000000
    151 O2    c      -0.000062     -0.000085      0.000912      0.000000
    152 O2    c       0.000005     -0.000007     -0.000058      0.000000
    153 O2    c       0.000012     -0.000027      0.000025      0.000000
    154 O2    c       0.000005     -0.000004     -0.000011      0.000000
    155 O2    c       0.000025     -0.000021      0.000003      0.000000
    156 O2    c      -0.000071     -0.000040     -0.001450      0.000000
    157 O2    c      -0.000003      0.000004     -0.000024      0.000000
    158 O2    c      -0.000051      0.000155      0.000965      0.000000
    159 O2    c      -0.000038      0.000025      0.000018      0.000000
    160 O2    c       0.000056      0.000031     -0.000049      0.000000
    161 O2    c      -0.000013      0.000036     -0.000038      0.000000
    162 O2    c      -0.000014      0.000000     -0.000244      0.000000
    163 O2    c       0.000101     -0.000255     -0.000207      0.000000
    164 O2    c       0.000062      0.000018      0.000053      0.000000
    165 O2    c       0.000014     -0.000008     -0.000006      0.000000
    166 O2    c      -0.000015      0.000034      0.000024      0.000000
    167 O2    c       0.000019     -0.000002      0.000036      0.000000
    168 O2    c      -0.000001     -0.000007      0.000050      0.000000
    169 O2    c       0.000000     -0.000001     -0.000003      0.000000
    170 O2    c      -0.000083     -0.000384     -0.000280      0.000000
    171 O2    c      -0.000006     -0.000002     -0.000018      0.000000
    172 O2    c       0.000216     -0.000083     -0.000015      0.000000
    173 O2    c      -0.000009     -0.000012     -0.000021      0.000000
    174 O3    c       0.000056      0.000050      0.000002      0.000000
    175 O3    c       0.000045      0.000002     -0.000199      0.000000
    176 O2    c       0.000036      0.000001      0.000006      0.000000
    177 O2    c      -0.000011      0.000009     -0.000585      0.000000
    178 O2    c      -0.000001      0.000029     -0.000014      0.000000
    179 O2    c       0.000164     -0.000031      0.000346      0.000000
    180 O2    c       0.000006     -0.000012     -0.000076      0.000000
    181 F     c       0.000013     -0.000024     -0.000025      0.000000
    182 F     c       0.000009      0.000004      0.000004      0.000000
    183 F     c       0.000032     -0.000015      0.000010      0.000000
    184 F     c      -0.000006      0.000001      0.000008      0.000000
    185 F     c       0.000076     -0.000036      0.001093      0.000000
    186 F     c       0.000010      0.000001      0.000029      0.000000
    187 O2    s       0.000077      0.000012     -0.000337      0.000000
    188 O3    s      -0.000083      0.000079     -0.000118      0.000000
    189 O2    s       0.000004      0.000018     -0.000033      0.000000
    190 O2    s       0.000024      0.000012      0.000129      0.000000
    191 O2    s      -0.000006      0.000031     -0.000138      0.000000
    192 O2    s      -0.000028     -0.000021     -0.000086      0.000000
    193 O2    s       0.000014     -0.000021      0.000048      0.000000
    194 O2    s      -0.000049      0.000034     -0.000018      0.000000
    195 O2    s      -0.000021      0.000002     -0.000001      0.000000
    196 O2    s       0.000062     -0.000053      0.000011      0.000000
    197 O3    s       0.000034     -0.000285      0.000764      0.000000
    198 O2    s       0.000011     -0.000005      0.000018      0.000000
    199 O3    s      -0.001150      0.001091     -0.001287      0.000000
    200 O2    s       0.000027     -0.000012     -0.000035      0.000000
    201 O2    s      -0.000040      0.000040      0.000031      0.000000
    202 O2    s      -0.000022      0.000013      0.000007      0.000000
    203 O2    s       0.000006     -0.000047     -0.000163      0.000000
    204 O2    s      -0.000043      0.000015     -0.000072      0.000000
    205 O2    s       0.000329     -0.000017     -0.000048      0.000000
    206 O2    s      -0.000057      0.000080      0.000260      0.000000
    207 O2    s       0.000008      0.000017      0.000010      0.000000
    208 O2    s      -0.000009     -0.000001      0.000036      0.000000
    209 O2    s      -0.000010      0.000029     -0.000067      0.000000
    210 O2    s       0.000087     -0.000088      0.000277      0.000000
    211 O3    s       0.000008      0.000036     -0.000061      0.000000
    212 O2    s       0.000297     -0.000105     -0.000361      0.000000
    213 O2    s      -0.000017      0.000007     -0.000021      0.000000
    214 O2    s       0.000076      0.000019     -0.000122      0.000000
    215 O2    s       0.000018     -0.000000      0.000032      0.000000
    216 O2    s       0.000100     -0.000050      0.000095      0.000000
    217 O2    s       0.000058     -0.000009      0.000006      0.000000
    218 O2    s      -0.000032     -0.000002      0.000056      0.000000
    219 O2    s      -0.000006     -0.000045      0.000141      0.000000
    220 O2    s       0.000012      0.000006     -0.000015      0.000000
    221 O2    s       0.000030     -0.000037     -0.000418      0.000000
    222 O3    s      -0.000009      0.000043     -0.000118      0.000000
    223 O2    s      -0.000171      0.000065      0.000044      0.000000
    224 O2    s      -0.000052     -0.000067      0.000120      0.000000
    225 O2    s      -0.000013     -0.000036      0.000018      0.000000
    226 O2    s       0.000030     -0.000029      0.000092      0.000000
    227 O2    s      -0.000050     -0.000028     -0.000359      0.000000
    228 O2    s       0.000062     -0.000011     -0.000070      0.000000
    229 O3    s      -0.000008      0.000031      0.000053      0.000000
    230 O2    s      -0.000317      0.000146     -0.000335      0.000000
    231 O2    s      -0.000010      0.000013     -0.000042      0.000000
    232 O2    s       0.000049      0.000014     -0.000020      0.000000
    233 O2    s      -0.000027      0.000020      0.000030      0.000000
    234 O2    s       0.000086     -0.000040      0.000023      0.000000
    235 O2    s       0.000000     -0.000013      0.000197      0.000000
    236 O2    s       0.000019      0.000001      0.000043      0.000000
    237 O2    s      -0.000043      0.000025      0.000035      0.000000
    238 O2    s      -0.000003      0.000013     -0.000120      0.000000
    239 O3    s      -0.000136     -0.000040      0.000902      0.000000
    240 O2    s       0.000022     -0.000021      0.000042      0.000000
    241 O2    s      -0.000342      0.000057      0.000252      0.000000
    242 O2    s      -0.000001      0.000004      0.000126      0.000000
    243 O2    s       0.000028     -0.000018      0.000015      0.000000
    244 O2    s      -0.000013      0.000012      0.000002      0.000000
    245 O2    s       0.000001      0.000008     -0.000017      0.000000
    246 O2    s       0.000101      0.000040     -0.000024      0.000000
    247 O2    s       0.000017     -0.000007     -0.000017      0.000000
    248 O2    s       0.000174     -0.000153      0.000036      0.000000
    249 O2    s       0.000002      0.000011     -0.000092      0.000000
    250 O2    s       0.000034      0.000007     -0.000118      0.000000
    251 O2    s      -0.000000      0.000007      0.000011      0.000000
    252 O3    s      -0.000003      0.000019      0.000359      0.000000
    253 O3    s       0.000073     -0.000388      0.000049      0.000000
    254 O2    s      -0.000041      0.000032     -0.000040      0.000000
    255 O2    s       0.000037     -0.000016     -0.000007      0.000000
    256 O2    s       0.000005     -0.000008     -0.000050      0.000000
    257 O2    s      -0.000122      0.000074     -0.000290      0.000000
    258 O2    s      -0.000030      0.000037     -0.000098      0.000000
    259 O2    s       0.000005     -0.000041      0.000031      0.000000
    260 O2    s       0.000008      0.000036      0.000166      0.000000
    261 O2    s      -0.000030      0.000031     -0.000015      0.000000
    262 O2    s       0.000000     -0.000010      0.000025      0.000000
    263 O2    s      -0.000018      0.000003      0.000047      0.000000
    264 O2    s       0.000076      0.000150     -0.000255      0.000000
    265 O3    s      -0.000137      0.000110      0.001057      0.000000
    266 O2    s      -0.000018      0.000025      0.000006      0.000000
    267 O2    s      -0.000003      0.000010     -0.000013      0.000000
    268 O2    s      -0.000020      0.000013      0.000008      0.000000
    269 O2    s       0.000021      0.000006     -0.000000      0.000000
    270 O2    s      -0.000010      0.000047      0.000009      0.000000
    271 O2    s      -0.000028     -0.000004      0.000069      0.000000
    272 O2    s       0.000036     -0.000066     -0.000085      0.000000
    273 O2    s       0.000012     -0.000029     -0.000036      0.000000
    274 O2    s      -0.000001     -0.000042     -0.000052      0.000000
    275 O2    s      -0.000005      0.000014      0.000002      0.000000
    276 O2    s       0.000234     -0.000051      0.000121      0.000000
    277 O2    s       0.000014     -0.000047      0.000041      0.000000
    278 O2    s      -0.000012      0.000031     -0.000011      0.000000
    279 O2    s       0.000006      0.000003      0.000019      0.000000
    280 O2    s      -0.000009      0.000001     -0.000046      0.000000
    281 O2    s      -0.000010      0.000009     -0.000009      0.000000
    282 O2    s      -0.000006      0.000098      0.000207      0.000000
    283 O2    s       0.000009     -0.000008      0.000018      0.000000
    284 O2    s       0.000131     -0.000070     -0.000325      0.000000
    285 O2    s       0.000029     -0.000018     -0.000022      0.000000
    286 O2    s      -0.000012      0.000033     -0.000141      0.000000
    287 O2    s      -0.000000     -0.000017      0.000026      0.000000
    288 O2    s      -0.000060      0.000069     -0.000018      0.000000
    289 O2    s      -0.000057      0.000183      0.000427      0.000000
    290 O2    s      -0.000007      0.000039      0.000063      0.000000
    291 O2    s       0.000004      0.000001     -0.000016      0.000000
    292 O2    s       0.000004     -0.000003     -0.000015      0.000000
    293 O2    s      -0.000016      0.000019     -0.000033      0.000000
    294 O2    s       0.000095     -0.000008     -0.000129      0.000000
    295 O2    s       0.000011     -0.000005     -0.000008      0.000000
    296 O2    s      -0.000106      0.000354      0.000719      0.000000
    297 O2    s       0.000006      0.000000     -0.000024      0.000000
    298 O2    s       0.000099     -0.000101     -0.000233      0.000000
    299 O2    s       0.000026     -0.000007      0.000050      0.000000
    300 O3    s      -0.000162      0.000040     -0.000122      0.000000
    301 O3    s      -0.000122      0.000095      0.000219      0.000000
    302 O2    s      -0.000005     -0.000010      0.000003      0.000000
    303 O2    s       0.000234     -0.000039     -0.000739      0.000000
    304 O2    s      -0.000000     -0.000024      0.000008      0.000000
    305 O2    s      -0.000176      0.000019     -0.000116      0.000000
    306 O2    s      -0.000001      0.000009      0.000088      0.000000
    307 F     s      -0.000035      0.000024      0.000027      0.000000
    308 F     s      -0.000018     -0.000010      0.000003      0.000000
    309 F     s      -0.000064      0.000020      0.000044      0.000000
    310 F     s       0.000006      0.000002     -0.000009      0.000000
    311 F     s       0.000922     -0.000050      0.000030      0.000000
    312 F     s      -0.000026      0.000001     -0.000058      0.000000
--------------------------------------------------------------------------------
  Maximum abs         0.001816      0.002144      0.003244      0.000000
--------------------------------------------------------------------------------


  Time to end of optimisation =       7.7924 seconds


  Peak dynamic memory used =      19.13 MB 


  Timing analysis for GULP :

--------------------------------------------------------------------------------
  Task / Subroutine                                          Time (Seconds)
--------------------------------------------------------------------------------
  Calculation of reciprocal space energy and derivatives          0.2999
  Calculation of real space energy and derivatives                6.2454
  Calculation of three-body energy and derivatives                0.6912
  Calculation of matrix inversion                                 0.1920
--------------------------------------------------------------------------------
  Total CPU time                                                  7.7925
--------------------------------------------------------------------------------


  Dump file written as out.res                                                 
  CIF file written as out.cif                                                 


  Job Finished at 03:58.32  2nd December   2016                               

