********************************************************************************
*                       GENERAL UTILITY LATTICE PROGRAM                        *
*                                 Julian Gale                                  *
*                      Nanochemistry Research Institute                        *
*                           Department of Chemistry                            *
*                    Curtin University, Western Australia                      *
********************************************************************************
* Version = 4.2.0 * Last modified =  20th January 2014                         *
********************************************************************************
*  optimise     - perform optimisation run                                     *
*  conp         - constant pressure calculation                                *
*  qok          - running with non charge neutral cell is OK                   *
********************************************************************************

  Job Started  at 03:54.56  2nd December   2016                               

  Number of CPUs =     1


  Total number of configurations input =   1

********************************************************************************
*  Input for Configuration =   1                                               *
********************************************************************************

  Formula = Ge3Si57O120F6                                               

  Number of irreducible atoms/shells =     312


  Total number atoms/shells =     312

  Dimensionality = 3               :  Bulk   


  Charge on solid   =  -6.000000 =>neutralising background added


  Cartesian lattice vectors (Angstroms) :

       11.973361    0.000000    0.000000
       -6.041547   10.367149    0.000000
       -0.212577   -0.078051   29.496883

  Cell parameters (Angstroms/Degrees):

  a =      11.9734    alpha =  89.9231
  b =      11.9991    beta  =  90.4129
  c =      29.4978    gamma = 120.2319

  Initial cell volume =        3661.436760 Angs**3

  Temperature of configuration =  0.000     K 

  Pressure of configuration =         0.000 GPa 

  Fractional coordinates of asymmetric unit :

--------------------------------------------------------------------------------
   No.  Atomic       x           y          z         Charge      Occupancy
        Label      (Frac)      (Frac)     (Frac)        (e)         (Frac)  
--------------------------------------------------------------------------------
      1 Ge    c    0.699600    0.375700    0.033890     4.00000    1.000000    
      2 Si    c    0.620665 *  0.324278 *  0.367743 *   4.00000    1.000000    
      3 Si    c    0.675449 *  0.299208 *  0.697267 *   4.00000    1.000000    
      4 Si    c    0.293266 *  0.621796 *  0.529405 *   4.00000    1.000000    
      5 Si    c    0.380297 *  0.677415 *  0.861398 *   4.00000    1.000000    
      6 Si    c    0.318307 *  0.702274 *  0.194389 *   4.00000    1.000000    
      7 Si    c    0.376031 *  0.700563 *  0.296378 *   4.00000    1.000000    
      8 Si    c    0.319463 *  0.621639 *  0.960983 *   4.00000    1.000000    
      9 Si    c    0.297825 *  0.678319 *  0.629883 *   4.00000    1.000000    
     10 Si    c    0.621272 *  0.299293 *  0.797764 *   4.00000    1.000000    
     11 Si    c    0.673337 *  0.383417 *  0.468139 *   4.00000    1.000000    
     12 Si    c    0.677981 *  0.312312 *  0.133283 *   4.00000    1.000000    
     13 Si    c    0.529570 *  0.415022 *  0.965004 *   4.00000    1.000000    
     14 Si    c    0.591167 *  0.121396 *  0.302004 *   4.00000    1.000000    
     15 Si    c    0.886901 *  0.471828 *  0.633250 *   4.00000    1.000000    
     16 Si    c    0.465215 *  0.585884 *  0.464128 *   4.00000    1.000000    
     17 Si    c    0.416362 *  0.886578 *  0.796113 *   4.00000    1.000000    
     18 Si    c    0.103133 *  0.528863 *  0.128626 *   4.00000    1.000000    
     19 Si    c    0.416067 *  0.529765 *  0.362593 *   4.00000    1.000000    
     20 Si    c    0.104683 *  0.575007 *  0.025437 *   4.00000    1.000000    
     21 Si    c    0.469421 *  0.890035 *  0.694613 *   4.00000    1.000000    
     22 Si    c    0.584051 *  0.471484 *  0.863041 *   4.00000    1.000000    
     23 Si    c    0.885303 *  0.419452 *  0.531846 *   4.00000    1.000000    
     24 Ge    c    0.525957 *  0.096111 *  0.202938 *   4.00000    1.000000    
     25 Si    c    0.303472 *  0.399969 *  0.845993 *   4.00000    1.000000    
     26 Si    c    0.603643 *  0.903748 *  0.177767 *   4.00000    1.000000    
     27 Si    c    0.092153 *  0.699151 *  0.515780 *   4.00000    1.000000    
     28 Si    c    0.696298 *  0.600487 *  0.350515 *   4.00000    1.000000    
     29 Si    c    0.397562 *  0.098143 *  0.681250 *   4.00000    1.000000    
     30 Si    c    0.886721 *  0.288889 *  0.012198 *   4.00000    1.000000    
     31 Si    c    0.393884 *  0.305850 *  0.479821 *   4.00000    1.000000    
     32 Si    c    0.887172 *  0.599124 *  0.140500 *   4.00000    1.000000    
     33 Si    c    0.697864 *  0.097325 *  0.810593 *   4.00000    1.000000    
     34 Si    c    0.595338 *  0.695443 *  0.978351 *   4.00000    1.000000    
     35 Si    c    0.096990 *  0.400436 *  0.645684 *   4.00000    1.000000    
     36 Si    c    0.302336 *  0.906616 *  0.312790 *   4.00000    1.000000    
     37 Si    c    0.252508 *  0.343799 *  0.946126 *   4.00000    1.000000    
     38 Si    c    0.662873 *  0.915586 *  0.280930 *   4.00000    1.000000    
     39 Si    c    0.088162 *  0.750465 *  0.616442 *   4.00000    1.000000    
     40 Si    c    0.744791 *  0.663056 *  0.450908 *   4.00000    1.000000    
     41 Si    c    0.339545 *  0.088270 *  0.781700 *   4.00000    1.000000    
     42 Si    c    0.895792 *  0.246267 *  0.115417 *   4.00000    1.000000    
     43 Si    c    0.338512 *  0.251755 *  0.379055 *   4.00000    1.000000    
     44 Si    c    0.901395 *  0.656062 *  0.037937 *   4.00000    1.000000    
     45 Si    c    0.748886 *  0.091732 *  0.710189 *   4.00000    1.000000    
     46 Si    c    0.660873 *  0.750080 *  0.878477 *   4.00000    1.000000    
     47 Si    c    0.085374 *  0.340891 *  0.545085 *   4.00000    1.000000    
     48 Si    c    0.245036 *  0.914607 *  0.210866 *   4.00000    1.000000    
     49 Si    c    0.974915 *  0.125241 *  0.960845 *   4.00000    1.000000    
     50 Si    c    0.875147 *  0.844839 *  0.297709 *   4.00000    1.000000    
     51 Si    c    0.148922 *  0.029814 *  0.630348 *   4.00000    1.000000    
     52 Si    c    0.026024 *  0.879947 *  0.464233 *   4.00000    1.000000    
     53 Si    c    0.122268 *  0.150122 *  0.795721 *   4.00000    1.000000    
     54 Si    c    0.850405 *  0.972577 *  0.130563 *   4.00000    1.000000    
     55 Si    c    0.120185 *  0.970568 *  0.363113 *   4.00000    1.000000    
     56 Ge    c    0.850722 *  0.880851 *  0.027358 *   4.00000    1.000000    
     57 Si    c    0.028453 *  0.151642 *  0.695024 *   4.00000    1.000000    
     58 Si    c    0.879381 *  0.029521 *  0.860514 *   4.00000    1.000000    
     59 Si    c    0.146508 *  0.123243 *  0.529697 *   4.00000    1.000000    
     60 Si    c    0.960669 *  0.843756 *  0.195770 *   4.00000    1.000000    
     61 O3    c    0.939931 *  0.005152 *  0.991675 *   1.33043    1.000000    
     62 O2    c    0.000847 *  0.929235 *  0.328832 *   0.87073    1.000000    
     63 O2    c    0.067583 *  0.071962 *  0.661513 *   0.87073    1.000000    
     64 O2    c    0.070446 *  0.004766 *  0.495253 *   0.87073    1.000000    
     65 O2    c    0.998084 *  0.068960 *  0.826822 *   0.87073    1.000000    
     66 O2    c    0.930159 *  0.936501 *  0.165863 *   0.87073    1.000000    
     67 O2    c    0.341005 *  0.578936 *  0.328758 *   0.87073    1.000000    
     68 O2    c    0.422222 *  0.764939 *  0.662001 *   0.87073    1.000000    
     69 O2    c    0.230442 *  0.653841 *  0.993811 *   0.87073    1.000000    
     70 O2    c    0.659995 *  0.421475 *  0.830804 *   0.87073    1.000000    
     71 O3    c    0.574390 *  0.236697 *  0.170559 *   1.33043    1.000000    
     72 O2    c    0.755915 *  0.343097 *  0.500770 *   0.87073    1.000000    
     73 O3    c    0.567247 *  0.334864 *  0.997287 *   1.33043    1.000000    
     74 O2    c    0.762281 *  0.424160 *  0.665522 *   0.87073    1.000000    
     75 O2    c    0.662388 *  0.235468 *  0.339512 *   0.87073    1.000000    
     76 O2    c    0.414846 *  0.661424 *  0.495856 *   0.87073    1.000000    
     77 O2    c    0.228104 *  0.579820 *  0.162037 *   0.87073    1.000000    
     78 O2    c    0.341456 *  0.760839 *  0.828085 *   0.87073    1.000000    
     79 O2    c    0.127666 *  0.219799 *  0.966923 *   0.87073    1.000000    
     80 O2    c    0.784349 *  0.908295 *  0.301972 *   0.87073    1.000000    
     81 O2    c    0.087741 *  0.876096 *  0.636447 *   0.87073    1.000000    
     82 O2    c    0.871514 *  0.791065 *  0.470332 *   0.87073    1.000000    
     83 O2    c    0.213017 *  0.087001 *  0.801728 *   0.87073    1.000000    
     84 O2    c    0.899395 *  0.124532 *  0.137783 *   0.87073    1.000000    
     85 O2    c    0.211952 *  0.124985 *  0.358633 *   0.87073    1.000000    
     86 O3    c    0.924265 *  0.791550 *  0.019979 *   1.33043    1.000000    
     87 O2    c    0.874197 *  0.090937 *  0.689853 *   0.87073    1.000000    
     88 O2    c    0.788156 *  0.874754 *  0.858049 *   0.87073    1.000000    
     89 O2    c    0.082099 *  0.213038 *  0.525139 *   0.87073    1.000000    
     90 O2    c    0.112989 *  0.901684 *  0.191999 *   0.87073    1.000000    
     91 O2    c    0.919859 *  0.848146 *  0.246863 *   0.87073    1.000000    
     92 O2    c    0.133726 *  0.065553 *  0.579294 *   0.87073    1.000000    
     93 O2    c    0.938245 *  0.076557 *  0.909726 *   0.87073    1.000000    
     94 O2    c    0.070179 *  0.135927 *  0.744857 *   0.87073    1.000000    
     95 O3    c    0.878045 *  0.945996 *  0.081022 *   1.33043    1.000000    
     96 O2    c    0.064308 *  0.927744 *  0.413012 *   0.87073    1.000000    
     97 O2    c    0.896309 *  0.195437 *  0.975005 *   0.87073    1.000000    
     98 O2    c    0.795380 *  0.695512 *  0.312290 *   0.87073    1.000000    
     99 O2    c    0.300816 *  0.101169 *  0.642765 *   0.87073    1.000000    
    100 O2    c    0.093779 *  0.797202 *  0.477268 *   0.87073    1.000000    
    101 O2    c    0.205526 *  0.302096 *  0.807349 *   0.87073    1.000000    
    102 O2    c    0.697002 *  0.888046 *  0.141630 *   0.87073    1.000000    
    103 O2    c    0.204663 *  0.903271 *  0.351365 *   0.87073    1.000000    
    104 O3    c    0.687123 *  0.791918 *  0.017885 *   1.33043    1.000000    
    105 O2    c    0.099792 *  0.303856 *  0.683646 *   0.87073    1.000000    
    106 O2    c    0.796126 *  0.097583 *  0.848627 *   0.87073    1.000000    
    107 O2    c    0.298265 *  0.209113 *  0.518292 *   0.87073    1.000000    
    108 O2    c    0.887871 *  0.695930 *  0.179150 *   0.87073    1.000000    
    109 O2    c    0.321626 *  0.650886 *  0.245345 *   0.87073    1.000000    
    110 O2    c    0.353461 *  0.679008 *  0.579412 *   0.87073    1.000000    
    111 O2    c    0.318362 *  0.677887 *  0.910651 *   0.87073    1.000000    
    112 O2    c    0.676835 *  0.356519 *  0.747462 *   0.87073    1.000000    
    113 O3    c    0.612761 *  0.302082 *  0.084461 *   1.33043    1.000000    
    114 O2    c    0.676638 *  0.328224 *  0.418256 *   0.87073    1.000000    
    115 O2    c    0.372095 *  0.330941 *  0.964214 *   0.87073    1.000000    
    116 O2    c    0.674247 *  0.046233 *  0.301094 *   0.87073    1.000000    
    117 O2    c    0.956699 *  0.628220 *  0.635280 *   0.87073    1.000000    
    118 O2    c    0.621883 *  0.674469 *  0.467261 *   0.87073    1.000000    
    119 O2    c    0.329159 *  0.955311 *  0.799241 *   0.87073    1.000000    
    120 O2    c    0.030089 *  0.373492 *  0.131208 *   0.87073    1.000000    
    121 O2    c    0.329203 *  0.373441 *  0.359139 *   0.87073    1.000000    
    122 O2    c    0.033106 *  0.657864 *  0.023369 *   0.87073    1.000000    
    123 O2    c    0.625874 *  0.959485 *  0.691503 *   0.87073    1.000000    
    124 O2    c    0.670211 *  0.627909 *  0.859761 *   0.87073    1.000000    
    125 O2    c    0.952288 *  0.331077 *  0.527126 *   0.87073    1.000000    
    126 O3    c    0.358589 *  0.044628 *  0.192118 *   1.33043    1.000000    
    127 O3    c    0.754661 *  0.283123 *  0.002513 *   1.33043    1.000000    
    128 O2    c    0.694021 *  0.465416 *  0.343593 *   0.87073    1.000000    
    129 O2    c    0.532406 *  0.232240 *  0.673995 *   0.87073    1.000000    
    130 O2    c    0.224661 *  0.696969 *  0.507412 *   0.87073    1.000000    
    131 O2    c    0.307144 *  0.535375 *  0.837667 *   0.87073    1.000000    
    132 O2    c    0.462878 *  0.771184 *  0.173949 *   0.87073    1.000000    
    133 O2    c    0.303609 *  0.772421 *  0.316783 *   0.87073    1.000000    
    134 O2    c    0.462248 *  0.698860 *  0.983973 *   0.87073    1.000000    
    135 O2    c    0.231421 *  0.535288 *  0.652244 *   0.87073    1.000000    
    136 O2    c    0.696925 *  0.230265 *  0.818946 *   0.87073    1.000000    
    137 O2    c    0.528247 *  0.307819 *  0.488613 *   0.87073    1.000000    
    138 O2    c    0.755913 *  0.465498 *  0.148841 *   0.87073    1.000000    
    139 O3    c    0.771749 *  0.543503 *  0.017344 *   1.33043    1.000000    
    140 O2    c    0.464049 *  0.248544 *  0.361212 *   0.87073    1.000000    
    141 O2    c    0.750620 *  0.218877 *  0.691276 *   0.87073    1.000000    
    142 O2    c    0.211709 *  0.465399 *  0.524811 *   0.87073    1.000000    
    143 O2    c    0.537288 *  0.754917 *  0.858466 *   0.87073    1.000000    
    144 O2    c    0.251414 *  0.789461 *  0.192813 *   0.87073    1.000000    
    145 O2    c    0.530588 *  0.792082 *  0.297757 *   0.87073    1.000000    
    146 O2    c    0.247213 *  0.466556 *  0.965742 *   0.87073    1.000000    
    147 O2    c    0.215289 *  0.751239 *  0.635073 *   0.87073    1.000000    
    148 O2    c    0.465030 *  0.214451 *  0.801788 *   0.87073    1.000000    
    149 O2    c    0.744275 *  0.539355 *  0.472518 *   0.87073    1.000000    
    150 O2    c    0.775731 *  0.253368 *  0.135095 *   0.87073    1.000000    
    151 O2    c    0.230681 *  0.326397 *  0.891825 *   0.87073    1.000000    
    152 O2    c    0.674966 *  0.915015 *  0.226682 *   0.87073    1.000000    
    153 O2    c    0.088928 *  0.769317 *  0.562103 *   0.87073    1.000000    
    154 O2    c    0.766620 *  0.676680 *  0.396723 *   0.87073    1.000000    
    155 O2    c    0.322228 *  0.091864 *  0.727374 *   0.87073    1.000000    
    156 O2    c    0.890496 *  0.226109 *  0.061236 *   0.87073    1.000000    
    157 O2    c    0.319619 *  0.234662 *  0.433247 *   0.87073    1.000000    
    158 O2    c    0.891212 *  0.668357 *  0.093280 *   0.87073    1.000000    
    159 O2    c    0.768452 *  0.093777 *  0.764402 *   0.87073    1.000000    
    160 O2    c    0.678210 *  0.768313 *  0.933108 *   0.87073    1.000000    
    161 O2    c    0.089502 *  0.324702 *  0.599284 *   0.87073    1.000000    
    162 O2    c    0.235992 *  0.913363 *  0.266023 *   0.87073    1.000000    
    163 O2    c    0.578843 *  0.556298 *  0.987702 *   0.87073    1.000000    
    164 O2    c    0.445219 *  0.026095 *  0.321379 *   0.87073    1.000000    
    165 O2    c    0.973242 *  0.416081 *  0.655435 *   0.87073    1.000000    
    166 O2    c    0.408270 *  0.445402 *  0.487405 *   0.87073    1.000000    
    167 O2    c    0.558379 *  0.971708 *  0.818875 *   0.87073    1.000000    
    168 O2    c    0.013261 *  0.583493 *  0.146979 *   0.87073    1.000000    
    169 O2    c    0.558264 *  0.589969 *  0.340236 *   0.87073    1.000000    
    170 O2    c    0.014738 *  0.430999 *  0.006147 *   0.87073    1.000000    
    171 O2    c    0.410571 *  0.972754 *  0.671504 *   0.87073    1.000000    
    172 O2    c    0.443013 *  0.413041 *  0.838992 *   0.87073    1.000000    
    173 O2    c    0.965639 *  0.559484 *  0.507454 *   0.87073    1.000000    
    174 O3    c    0.597571 *  0.028623 *  0.166309 *   1.33043    1.000000    
    175 O3    c    0.597297 *  0.185319 *  0.254571 *   1.33043    1.000000    
    176 O2    c    0.833022 *  0.418123 *  0.582521 *   0.87073    1.000000    
    177 O2    c    0.584980 *  0.421333 *  0.913866 *   0.87073    1.000000    
    178 O2    c    0.415843 *  0.835171 *  0.745024 *   0.87073    1.000000    
    179 O2    c    0.152379 *  0.575369 *  0.077489 *   0.87073    1.000000    
    180 O2    c    0.412601 *  0.583917 *  0.412748 *   0.87073    1.000000    
    181 F     c    0.470355 *  0.947344 *  0.238257 *   0.56000    1.000000    
    182 F     c    0.093873 *  0.548152 *  0.579694 *   0.56000    1.000000    
    183 F     c    0.450564 *  0.553963 *  0.911521 *   0.56000    1.000000    
    184 F     c    0.547505 *  0.097364 *  0.744933 *   0.56000    1.000000    
    185 F     c    0.853065 *  0.435053 *  0.069455 *   0.56000    1.000000    
    186 F     c    0.544090 *  0.455162 *  0.413802 *   0.56000    1.000000    
    187 O3    s    0.935712 *  0.007283 *  0.991478 *  -3.33043    1.000000    
    188 O2    s    0.000192 *  0.924523 *  0.329195 *  -2.87073    1.000000    
    189 O2    s    0.072360 *  0.076068 *  0.661731 *  -2.87073    1.000000    
    190 O2    s    0.073910 *  0.003912 *  0.495592 *  -2.87073    1.000000    
    191 O2    s    0.998860 *  0.073681 *  0.827059 *  -2.87073    1.000000    
    192 O2    s    0.924859 *  0.929997 *  0.165382 *  -2.87073    1.000000    
    193 O2    s    0.352144 *  0.586961 *  0.328660 *  -2.87073    1.000000    
    194 O2    s    0.414075 *  0.768692 *  0.661971 *  -2.87073    1.000000    
    195 O2    s    0.226256 *  0.642327 *  0.993802 *  -2.87073    1.000000    
    196 O2    s    0.648342 *  0.413873 *  0.830619 *  -2.87073    1.000000    
    197 O3    s    0.582248 *  0.234872 *  0.168807 *  -3.33043    1.000000    
    198 O2    s    0.760494 *  0.355226 *  0.500506 *  -2.87073    1.000000    
    199 O3    s    0.572704 *  0.346438 *  0.996445 *  -3.33043    1.000000    
    200 O2    s    0.766468 *  0.416457 *  0.665389 *  -2.87073    1.000000    
    201 O2    s    0.650818 *  0.233009 *  0.338619 *  -2.87073    1.000000    
    202 O2    s    0.407747 *  0.649537 *  0.495961 *  -2.87073    1.000000    
    203 O2    s    0.224706 *  0.587324 *  0.161999 *  -2.87073    1.000000    
    204 O2    s    0.353249 *  0.765520 *  0.828135 *  -2.87073    1.000000    
    205 O2    s    0.124254 *  0.222724 *  0.964044 *  -2.87073    1.000000    
    206 O2    s    0.781237 *  0.902350 *  0.299334 *  -2.87073    1.000000    
    207 O2    s    0.094264 *  0.879329 *  0.633749 *  -2.87073    1.000000    
    208 O2    s    0.874738 *  0.787223 *  0.467692 *  -2.87073    1.000000    
    209 O2    s    0.216504 *  0.093808 *  0.799050 *  -2.87073    1.000000    
    210 O2    s    0.893962 *  0.121465 *  0.134760 *  -2.87073    1.000000    
    211 O2    s    0.215223 *  0.121638 *  0.361179 *  -2.87073    1.000000    
    212 O3    s    0.915731 *  0.785484 *  0.022398 *  -3.33043    1.000000    
    213 O2    s    0.877698 *  0.097492 *  0.692469 *  -2.87073    1.000000    
    214 O2    s    0.784786 *  0.878430 *  0.860390 *  -2.87073    1.000000    
    215 O2    s    0.089249 *  0.216612 *  0.527638 *  -2.87073    1.000000    
    216 O2    s    0.110254 *  0.896492 *  0.194491 *  -2.87073    1.000000    
    217 O2    s    0.919289 *  0.847276 *  0.246968 *  -2.87073    1.000000    
    218 O2    s    0.136863 *  0.068141 *  0.579336 *  -2.87073    1.000000    
    219 O2    s    0.935499 *  0.076565 *  0.909750 *  -2.87073    1.000000    
    220 O2    s    0.071246 *  0.139331 *  0.744863 *  -2.87073    1.000000    
    221 O3    s    0.872621 *  0.943462 *  0.082051 *  -3.33043    1.000000    
    222 O2    s    0.066383 *  0.927301 *  0.413040 *  -2.87073    1.000000    
    223 O2    s    0.903878 *  0.197560 *  0.977378 *  -2.87073    1.000000    
    224 O2    s    0.793760 *  0.701810 *  0.314667 *  -2.87073    1.000000    
    225 O2    s    0.294354 *  0.093259 *  0.645314 *  -2.87073    1.000000    
    226 O2    s    0.086363 *  0.796095 *  0.479779 *  -2.87073    1.000000    
    227 O2    s    0.206602 *  0.295874 *  0.810025 *  -2.87073    1.000000    
    228 O2    s    0.703135 *  0.898115 *  0.144129 *  -2.87073    1.000000    
    229 O2    s    0.205920 *  0.910602 *  0.348617 *  -2.87073    1.000000    
    230 O3    s    0.692081 *  0.790277 *  0.014983 *  -3.33043    1.000000    
    231 O2    s    0.091987 *  0.297760 *  0.680932 *  -2.87073    1.000000    
    232 O2    s    0.794752 *  0.090292 *  0.845917 *  -2.87073    1.000000    
    233 O2    s    0.292016 *  0.210037 *  0.515498 *  -2.87073    1.000000    
    234 O2    s    0.895675 *  0.702067 *  0.177002 *  -2.87073    1.000000    
    235 O2    s    0.326846 *  0.661105 *  0.245449 *  -2.87073    1.000000    
    236 O2    s    0.341646 *  0.673058 *  0.579394 *  -2.87073    1.000000    
    237 O2    s    0.324650 *  0.672123 *  0.910845 *  -2.87073    1.000000    
    238 O2    s    0.671048 *  0.344841 *  0.747417 *  -2.87073    1.000000    
    239 O3    s    0.625126 *  0.308191 *  0.085665 *  -3.33043    1.000000    
    240 O2    s    0.670377 *  0.333646 *  0.418144 *  -2.87073    1.000000    
    241 O2    s    0.374784 *  0.340915 *  0.962256 *  -2.87073    1.000000    
    242 O2    s    0.665037 *  0.039727 *  0.299041 *  -2.87073    1.000000    
    243 O2    s    0.963355 *  0.624990 *  0.633073 *  -2.87073    1.000000    
    244 O2    s    0.618647 *  0.664192 *  0.465205 *  -2.87073    1.000000    
    245 O2    s    0.339189 *  0.962197 *  0.797064 *  -2.87073    1.000000    
    246 O2    s    0.024243 *  0.377081 *  0.129338 *  -2.87073    1.000000    
    247 O2    s    0.339094 *  0.377056 *  0.361547 *  -2.87073    1.000000    
    248 O2    s    0.027362 *  0.648563 *  0.025104 *  -2.87073    1.000000    
    249 O2    s    0.622641 *  0.966210 *  0.693796 *  -2.87073    1.000000    
    250 O2    s    0.660394 *  0.624572 *  0.862053 *  -2.87073    1.000000    
    251 O2    s    0.959299 *  0.341201 *  0.529497 *  -2.87073    1.000000    
    252 O3    s    0.357210 *  0.033728 *  0.194922 *  -3.33043    1.000000    
    253 O3    s    0.765375 *  0.289703 *  0.005636 *  -3.33043    1.000000    
    254 O2    s    0.686753 *  0.465229 *  0.346813 *  -2.87073    1.000000    
    255 O2    s    0.532943 *  0.225063 *  0.677171 *  -2.87073    1.000000    
    256 O2    s    0.217771 *  0.689467 *  0.510585 *  -2.87073    1.000000    
    257 O2    s    0.314233 *  0.535666 *  0.840989 *  -2.87073    1.000000    
    258 O2    s    0.461591 *  0.777042 *  0.176505 *  -2.87073    1.000000    
    259 O2    s    0.311026 *  0.778788 *  0.314223 *  -2.87073    1.000000    
    260 O2    s    0.461141 *  0.690504 *  0.980964 *  -2.87073    1.000000    
    261 O2    s    0.224059 *  0.535764 *  0.649207 *  -2.87073    1.000000    
    262 O2    s    0.689239 *  0.223408 *  0.815851 *  -2.87073    1.000000    
    263 O2    s    0.529042 *  0.315489 *  0.485510 *  -2.87073    1.000000    
    264 O2    s    0.763058 *  0.465825 *  0.146407 *  -2.87073    1.000000    
    265 O3    s    0.781088 *  0.544769 *  0.020570 *  -3.33043    1.000000    
    266 O2    s    0.466558 *  0.256709 *  0.363760 *  -2.87073    1.000000    
    267 O2    s    0.742576 *  0.213401 *  0.693903 *  -2.87073    1.000000    
    268 O2    s    0.206509 *  0.468244 *  0.527435 *  -2.87073    1.000000    
    269 O2    s    0.534212 *  0.746258 *  0.860904 *  -2.87073    1.000000    
    270 O2    s    0.258190 *  0.792671 *  0.194811 *  -2.87073    1.000000    
    271 O2    s    0.527987 *  0.795480 *  0.295792 *  -2.87073    1.000000    
    272 O2    s    0.255570 *  0.469970 *  0.963147 *  -2.87073    1.000000    
    273 O2    s    0.209909 *  0.743447 *  0.632513 *  -2.87073    1.000000    
    274 O2    s    0.467785 *  0.209548 *  0.799206 *  -2.87073    1.000000    
    275 O2    s    0.736809 *  0.536516 *  0.469737 *  -2.87073    1.000000    
    276 O2    s    0.780012 *  0.258468 *  0.132683 *  -2.87073    1.000000    
    277 O2    s    0.240689 *  0.336046 *  0.892655 *  -2.87073    1.000000    
    278 O2    s    0.666690 *  0.914030 *  0.227805 *  -2.87073    1.000000    
    279 O2    s    0.089179 *  0.759924 *  0.562933 *  -2.87073    1.000000    
    280 O2    s    0.756857 *  0.667168 *  0.397586 *  -2.87073    1.000000    
    281 O2    s    0.331965 *  0.092144 *  0.728251 *  -2.87073    1.000000    
    282 O2    s    0.890634 *  0.234278 *  0.062230 *  -2.87073    1.000000    
    283 O2    s    0.329352 *  0.243908 *  0.432314 *  -2.87073    1.000000    
    284 O2    s    0.891616 *  0.659722 *  0.093138 *  -2.87073    1.000000    
    285 O2    s    0.759002 *  0.093934 *  0.763410 *  -2.87073    1.000000    
    286 O2    s    0.668301 *  0.759258 *  0.932000 *  -2.87073    1.000000    
    287 O2    s    0.089839 *  0.334329 *  0.598322 *  -2.87073    1.000000    
    288 O2    s    0.244064 *  0.912789 *  0.265510 *  -2.87073    1.000000    
    289 O2    s    0.575437 *  0.557397 *  0.984363 *  -2.87073    1.000000    
    290 O2    s    0.443839 *  0.022153 *  0.318497 *  -2.87073    1.000000    
    291 O2    s    0.977725 *  0.420425 *  0.652052 *  -2.87073    1.000000    
    292 O2    s    0.412878 *  0.445061 *  0.484117 *  -2.87073    1.000000    
    293 O2    s    0.558562 *  0.976574 *  0.815554 *  -2.87073    1.000000    
    294 O2    s    0.009734 *  0.579211 *  0.144352 *  -2.87073    1.000000    
    295 O2    s    0.557941 *  0.584668 *  0.343662 *  -2.87073    1.000000    
    296 O2    s    0.011369 *  0.432243 *  0.008869 *  -2.87073    1.000000    
    297 O2    s    0.415451 *  0.977784 *  0.674943 *  -2.87073    1.000000    
    298 O2    s    0.442607 *  0.417851 *  0.842235 *  -2.87073    1.000000    
    299 O2    s    0.971106 *  0.560053 *  0.510861 *  -2.87073    1.000000    
    300 O3    s    0.593334 *  0.019334 *  0.169927 *  -3.33043    1.000000    
    301 O3    s    0.591897 *  0.172532 *  0.256214 *  -3.33043    1.000000    
    302 O2    s    0.844168 *  0.423869 *  0.582473 *  -2.87073    1.000000    
    303 O2    s    0.579427 *  0.426082 *  0.913540 *  -2.87073    1.000000    
    304 O2    s    0.421467 *  0.846195 *  0.745043 *  -2.87073    1.000000    
    305 O2    s    0.142436 *  0.570424 *  0.077683 *  -2.87073    1.000000    
    306 O2    s    0.418291 *  0.578494 *  0.412758 *  -2.87073    1.000000    
    307 F     s    0.474294 *  0.957529 *  0.235837 *  -1.56000    1.000000    
    308 F     s    0.094194 *  0.548208 *  0.579558 *  -1.56000    1.000000    
    309 F     s    0.450190 *  0.554723 *  0.911436 *  -1.56000    1.000000    
    310 F     s    0.547731 *  0.097802 *  0.744785 *  -1.56000    1.000000    
    311 F     s    0.843626 *  0.431701 *  0.067219 *  -1.56000    1.000000    
    312 F     s    0.544174 *  0.455112 *  0.413636 *  -1.56000    1.000000    
--------------------------------------------------------------------------------



********************************************************************************
*  General input information                                                   *
********************************************************************************

  Species output for all configurations : 

--------------------------------------------------------------------------------
  Species    Type    Atomic    Atomic    Charge       Radii (Angs)     Library
                     Number     Mass       (e)     Cova   Ionic  VDW   Symbol
--------------------------------------------------------------------------------
    Si       Core       14      28.09   4.000000   1.200  0.000  2.100          
    O1       Core        8      16.00   1.733957   0.730  0.000  1.360          
    O1       Shell       8       0.00  -3.733957   0.730  0.000  1.360          
    O2       Core        8      16.00   0.870733   0.730  0.000  1.360          
    O2       Shell       8       0.00  -2.870733   0.730  0.000  1.360          
    O3       Core        8      16.00   1.330431   0.730  0.000  1.360          
    O3       Shell       8       0.00  -3.330431   0.730  0.000  1.360          
    F        Core        9      19.00   0.560000   0.710  0.000  1.300          
    F        Shell       9       0.00  -1.560000   0.710  0.000  1.300          
    Ge       Core       32      72.61   4.000000   1.170  0.000  1.750          
--------------------------------------------------------------------------------


  Lattice summation method               =    Ewald          (3-D)
                                         =    Parry          (2-D)
                                         =    Saunders et al (1-D)
  Accuracy factor for lattice sums       =   12.000


  Time limit = Infinity

  Maximum range for interatomic potentials =        16.000000 Angstroms

  Taper potentials to zero over   1.0000 Angstroms using polynomial

  General interatomic potentials :

--------------------------------------------------------------------------------
Atom  Types   Potential         A         B         C         D     Cutoffs(Ang)
  1     2                                                            Min    Max 
--------------------------------------------------------------------------------
Si   c O1   s Buckingham    0.132E+04 0.318      10.1      0.00     0.000 16.000
Si   c O2   s Buckingham    0.132E+04 0.318      10.1      0.00     0.000 16.000
Si   c O3   s Buckingham    0.132E+04 0.318      10.1      0.00     0.000 16.000
Ge   c O1   s Buckingham    0.150E+04 0.326      16.8      0.00     0.000 16.000
Ge   c O2   s Buckingham    0.150E+04 0.326      16.8      0.00     0.000 16.000
Ge   c O3   s Buckingham    0.150E+04 0.326      16.8      0.00     0.000 16.000
O1   s O1   s Buckingham    0.228E+05 0.149      10.9      0.00     0.000 16.000
O1   s O2   s Buckingham    0.228E+05 0.149      10.9      0.00     0.000 16.000
O1   s O3   s Buckingham    0.228E+05 0.149      10.9      0.00     0.000 16.000
O2   s O2   s Buckingham    0.228E+05 0.149      10.9      0.00     0.000 16.000
O2   s O3   s Buckingham    0.228E+05 0.149      10.9      0.00     0.000 16.000
O3   s O3   s Buckingham    0.228E+05 0.149      10.9      0.00     0.000 16.000
Si   c F    s Buckingham     977.     0.282      0.00      0.00     0.000 16.000
Ge   c F    s Buckingham     681.     0.320      0.00      0.00     0.000 16.000
F    s F    s Buckingham     540.     0.262      0.00      0.00     0.000 16.000
O1   s F    s Buckingham    0.168E+04 0.268      0.00      0.00     0.000 16.000
O2   s F    s Buckingham    0.168E+04 0.268      0.00      0.00     0.000 16.000
O3   s F    s Buckingham    0.168E+04 0.268      0.00      0.00     0.000 16.000
O2   c O2   s Spring (c-s)   76.0      0.00      0.00      0.00     0.000  0.800
O3   c O3   s Spring (c-s)   128.      0.00      0.00      0.00     0.000  0.800
O1   c O1   s Spring (c-s)   180.      0.00      0.00      0.00     0.000  0.800
F    c F    s Spring (c-s)   33.5      0.00      0.00      0.00     0.000  0.800
--------------------------------------------------------------------------------

  General Three-body potentials :

  Harmonic form:

--------------------------------------------------------------------------------
Atom    Atom    Atom           Force Constants            Theta     Cutoffs  
  1       2       3     (eVrad**-2/eVrad**-3/eVrad**-4)   (deg)  1-2  1-3  2-3
--------------------------------------------------------------------------------
Si    c O1    s O1    s  1.261        0.0000    0.0000   109.470 0.00 0.00 0.00
                                                                 1.90 1.90 3.50
Si    c O1    s O2    s  1.261        0.0000    0.0000   109.470 0.00 0.00 0.00
                                                                 1.90 1.90 3.50
Si    c O2    s O2    s  1.261        0.0000    0.0000   109.470 0.00 0.00 0.00
                                                                 1.90 1.90 3.50
--------------------------------------------------------------------------------

********************************************************************************
*  Output for configuration   1                                                *
********************************************************************************


  Components of energy : 

--------------------------------------------------------------------------------
  Interatomic potentials     =        2063.87579297 eV
  Three-body potentials      =           0.46455144 eV
  Monopole - monopole (real) =       -6614.58137633 eV
  Monopole - monopole (recip)=       -3170.01051011 eV
  Monopole - monopole (total)=       -9784.59188644 eV
  Neutralising energy        =          -6.45730697 eV
--------------------------------------------------------------------------------
  Total lattice energy       =       -7726.70884899 eV
--------------------------------------------------------------------------------
  Total lattice energy       =         -745509.2904 kJ/(mole unit cells)
--------------------------------------------------------------------------------


  Number of variables =      939

  Maximum number of calculations  =          1000
  Maximum Hessian update interval =            10
  Maximum step size               =   1.000000000
  Maximum parameter tolerance     =   0.000010000
  Maximum function  tolerance     =   0.000010000
  Maximum gradient  tolerance     =   0.001000000
  Maximum gradient  component     =   0.010000000

  Symmetry not applied to optimisation

  Cell parameters to be optimised using strains

  Newton-Raphson optimiser to be used

  BFGS hessian update to be used

  Dumpfile to be written after every cycle

  Start of bulk optimisation :

  Cycle:      0 Energy:     -7726.708849  Gnorm:      0.006868  CPU:    1.059
  ** Hessian calculated **
  Cycle:      1 Energy:     -7726.779710  Gnorm:      0.004484  CPU:    2.961
  Cycle:      2 Energy:     -7726.780652  Gnorm:      0.000794  CPU:    4.340
  Cycle:      3 Energy:     -7726.780751  Gnorm:      0.000197  CPU:    5.719
  Cycle:      4 Energy:     -7726.780753  Gnorm:      0.000054  CPU:    7.098


  **** Optimisation achieved ****


  Final energy =   -7726.78075328 eV
  Final Gnorm  =       0.00000685

  Components of energy : 

--------------------------------------------------------------------------------
  Interatomic potentials     =        2063.98059382 eV
  Three-body potentials      =           0.47441100 eV
  Monopole - monopole (real) =       -6615.65625531 eV
  Monopole - monopole (recip)=       -3169.12399811 eV
  Monopole - monopole (total)=       -9784.78025341 eV
  Neutralising energy        =          -6.45550468 eV
--------------------------------------------------------------------------------
  Total lattice energy       =       -7726.78075328 eV
--------------------------------------------------------------------------------
  Total lattice energy       =         -745516.2280 kJ/(mole unit cells)
--------------------------------------------------------------------------------

  Final fractional coordinates of atoms :

--------------------------------------------------------------------------------
   No.  Atomic        x           y          z          Radius
        Label       (Frac)      (Frac)     (Frac)       (Angs) 
--------------------------------------------------------------------------------
     1  Ge    c     0.699600    0.375700    0.033890    0.000000
     2  Si    c     0.601643    0.324247    0.367741    0.000000
     3  Si    c     0.662221    0.300849    0.697321    0.000000
     4  Si    c     0.275065    0.623229    0.529241    0.000000
     5  Si    c     0.369399    0.677736    0.861675    0.000000
     6  Si    c     0.302457    0.701842    0.194786    0.000000
     7  Si    c     0.359421    0.701917    0.296944    0.000000
     8  Si    c     0.309740    0.619756    0.961358    0.000000
     9  Si    c     0.283312    0.681487    0.629783    0.000000
    10  Si    c     0.609606    0.300021    0.797947    0.000000
    11  Si    c     0.655100    0.384660    0.468224    0.000000
    12  Si    c     0.664205    0.307602    0.132825    0.000000
    13  Si    c     0.525610    0.415987    0.965649    0.000000
    14  Si    c     0.573273    0.121912    0.301828    0.000000
    15  Si    c     0.872414    0.474856    0.633432    0.000000
    16  Si    c     0.446554    0.586660    0.464167    0.000000
    17  Si    c     0.405088    0.887415    0.796326    0.000000
    18  Si    c     0.089302    0.524996    0.129494    0.000000
    19  Si    c     0.397161    0.529334    0.362745    0.000000
    20  Si    c     0.095474    0.572780    0.026202    0.000000
    21  Si    c     0.457070    0.892619    0.694549    0.000000
    22  Si    c     0.575033    0.473368    0.863179    0.000000
    23  Si    c     0.867915    0.421378    0.531966    0.000000
    24  Ge    c     0.507455    0.093826    0.202663    0.000000
    25  Si    c     0.294226    0.400704    0.846253    0.000000
    26  Si    c     0.586829    0.902900    0.177442    0.000000
    27  Si    c     0.074208    0.700717    0.515801    0.000000
    28  Si    c     0.676858    0.600233    0.350550    0.000000
    29  Si    c     0.384379    0.100080    0.681085    0.000000
    30  Si    c     0.881313    0.285342    0.012471    0.000000
    31  Si    c     0.375787    0.307095    0.479697    0.000000
    32  Si    c     0.872939    0.594554    0.140913    0.000000
    33  Si    c     0.686603    0.098402    0.810810    0.000000
    34  Si    c     0.585899    0.694978    0.977939    0.000000
    35  Si    c     0.082670    0.403738    0.645738    0.000000
    36  Si    c     0.284867    0.907055    0.312974    0.000000
    37  Si    c     0.247171    0.343515    0.946574    0.000000
    38  Si    c     0.645711    0.916494    0.280894    0.000000
    39  Si    c     0.073074    0.753035    0.616526    0.000000
    40  Si    c     0.726101    0.664147    0.450930    0.000000
    41  Si    c     0.328163    0.089148    0.781792    0.000000
    42  Si    c     0.883540    0.242976    0.116241    0.000000
    43  Si    c     0.319507    0.251725    0.378970    0.000000
    44  Si    c     0.893961    0.656729    0.038365    0.000000
    45  Si    c     0.736338    0.094073    0.710187    0.000000
    46  Si    c     0.650474    0.751318    0.878241    0.000000
    47  Si    c     0.067976    0.342534    0.545085    0.000000
    48  Si    c     0.227146    0.912602    0.210767    0.000000
    49  Si    c     0.970093    0.122960    0.960487    0.000000
    50  Si    c     0.856488    0.843666    0.297484    0.000000
    51  Si    c     0.135204    0.032503    0.630240    0.000000
    52  Si    c     0.007302    0.881166    0.464154    0.000000
    53  Si    c     0.111571    0.151827    0.795492    0.000000
    54  Si    c     0.832996    0.968569    0.130328    0.000000
    55  Si    c     0.101907    0.970600    0.362950    0.000000
    56  Ge    c     0.841105    0.880556    0.027097    0.000000
    57  Si    c     0.016327    0.155436    0.694978    0.000000
    58  Si    c     0.869146    0.030577    0.860188    0.000000
    59  Si    c     0.128836    0.124587    0.529586    0.000000
    60  Si    c     0.941746    0.837825    0.195861    0.000000
    61  O3    c     0.934458    0.001385    0.990581    0.000000
    62  O2    c     0.983068    0.928030    0.328257    0.000000
    63  O2    c     0.055156    0.076243    0.661225    0.000000
    64  O2    c     0.051971    0.006323    0.495041    0.000000
    65  O2    c     0.986193    0.069862    0.825859    0.000000
    66  O2    c     0.909688    0.927445    0.164972    0.000000
    67  O2    c     0.322851    0.579620    0.329045    0.000000
    68  O2    c     0.408534    0.767822    0.661655    0.000000
    69  O2    c     0.221098    0.651142    0.994642    0.000000
    70  O2    c     0.649818    0.422658    0.830781    0.000000
    71  O3    c     0.558282    0.233394    0.169477    0.000000
    72  O2    c     0.738062    0.344974    0.501021    0.000000
    73  O3    c     0.566144    0.336970    0.996878    0.000000
    74  O2    c     0.748242    0.426481    0.665839    0.000000
    75  O2    c     0.643756    0.235987    0.339401    0.000000
    76  O2    c     0.396239    0.662465    0.495635    0.000000
    77  O2    c     0.213583    0.577421    0.163202    0.000000
    78  O2    c     0.330632    0.761527    0.828323    0.000000
    79  O2    c     0.122593    0.217784    0.966843    0.000000
    80  O2    c     0.767509    0.909095    0.301688    0.000000
    81  O2    c     0.073585    0.878947    0.636622    0.000000
    82  O2    c     0.852829    0.792411    0.470201    0.000000
    83  O2    c     0.201436    0.087764    0.801595    0.000000
    84  O2    c     0.884752    0.120482    0.138944    0.000000
    85  O2    c     0.192959    0.124984    0.358533    0.000000
    86  O3    c     0.916494    0.792296    0.021257    0.000000
    87  O2    c     0.862021    0.094005    0.689998    0.000000
    88  O2    c     0.777301    0.876124    0.857775    0.000000
    89  O2    c     0.064066    0.214165    0.525411    0.000000
    90  O2    c     0.094299    0.898206    0.192191    0.000000
    91  O2    c     0.899535    0.843860    0.246590    0.000000
    92  O2    c     0.118365    0.066898    0.579099    0.000000
    93  O2    c     0.931672    0.077907    0.909062    0.000000
    94  O2    c     0.060483    0.140223    0.744528    0.000000
    95  O3    c     0.862642    0.946761    0.080405    0.000000
    96  O2    c     0.045273    0.927992    0.412782    0.000000
    97  O2    c     0.891089    0.191621    0.975875    0.000000
    98  O2    c     0.775795    0.694895    0.312345    0.000000
    99  O2    c     0.287178    0.103145    0.642650    0.000000
   100  O2    c     0.074965    0.798508    0.477328    0.000000
   101  O2    c     0.195242    0.303186    0.807744    0.000000
   102  O2    c     0.679548    0.886444    0.141253    0.000000
   103  O2    c     0.187513    0.904462    0.351466    0.000000
   104  O3    c     0.678255    0.792362    0.017301    0.000000
   105  O2    c     0.086470    0.307547    0.683680    0.000000
   106  O2    c     0.785334    0.098519    0.848817    0.000000
   107  O2    c     0.280238    0.210500    0.518101    0.000000
   108  O2    c     0.871675    0.689629    0.179866    0.000000
   109  O2    c     0.305401    0.652125    0.245964    0.000000
   110  O2    c     0.336835    0.681193    0.579068    0.000000
   111  O2    c     0.307632    0.676864    0.911137    0.000000
   112  O2    c     0.664197    0.357480    0.747629    0.000000
   113  O3    c     0.605362    0.299167    0.083144    0.000000
   114  O2    c     0.657874    0.328960    0.418359    0.000000
   115  O2    c     0.367600    0.332707    0.964982    0.000000
   116  O2    c     0.656849    0.047169    0.300900    0.000000
   117  O2    c     0.941918    0.631108    0.635542    0.000000
   118  O2    c     0.603176    0.675293    0.467264    0.000000
   119  O2    c     0.318024    0.956314    0.799381    0.000000
   120  O2    c     0.017217    0.369844    0.132493    0.000000
   121  O2    c     0.309932    0.373205    0.359003    0.000000
   122  O2    c     0.025265    0.656924    0.024306    0.000000
   123  O2    c     0.613446    0.961932    0.691307    0.000000
   124  O2    c     0.660484    0.629657    0.859546    0.000000
   125  O2    c     0.934751    0.332900    0.527261    0.000000
   126  O3    c     0.340125    0.042836    0.191926    0.000000
   127  O3    c     0.749866    0.280730    0.002299    0.000000
   128  O2    c     0.674630    0.465294    0.343670    0.000000
   129  O2    c     0.519151    0.234061    0.673986    0.000000
   130  O2    c     0.206393    0.698300    0.507141    0.000000
   131  O2    c     0.296361    0.535491    0.838208    0.000000
   132  O2    c     0.446469    0.770111    0.174143    0.000000
   133  O2    c     0.287069    0.773587    0.317444    0.000000
   134  O2    c     0.452581    0.697367    0.984330    0.000000
   135  O2    c     0.217072    0.538509    0.652076    0.000000
   136  O2    c     0.685305    0.230969    0.819187    0.000000
   137  O2    c     0.510146    0.309151    0.488630    0.000000
   138  O2    c     0.741700    0.460862    0.148329    0.000000
   139  O3    c     0.767278    0.542619    0.016978    0.000000
   140  O2    c     0.445072    0.248509    0.361257    0.000000
   141  O2    c     0.737801    0.221008    0.691169    0.000000
   142  O2    c     0.193660    0.466908    0.524591    0.000000
   143  O2    c     0.526246    0.755521    0.858429    0.000000
   144  O2    c     0.234840    0.788398    0.192524    0.000000
   145  O2    c     0.513951    0.793532    0.298223    0.000000
   146  O2    c     0.238800    0.464759    0.966008    0.000000
   147  O2    c     0.200546    0.754037    0.634995    0.000000
   148  O2    c     0.453428    0.215096    0.802085    0.000000
   149  O2    c     0.725610    0.540440    0.472488    0.000000
   150  O2    c     0.762819    0.249714    0.135242    0.000000
   151  O2    c     0.224380    0.326363    0.892272    0.000000
   152  O2    c     0.657817    0.915499    0.226628    0.000000
   153  O2    c     0.072233    0.771378    0.562162    0.000000
   154  O2    c     0.747156    0.676914    0.396716    0.000000
   155  O2    c     0.310151    0.093280    0.727472    0.000000
   156  O2    c     0.881813    0.223473    0.062034    0.000000
   157  O2    c     0.301013    0.235318    0.433196    0.000000
   158  O2    c     0.879263    0.664958    0.093698    0.000000
   159  O2    c     0.756510    0.095518    0.764408    0.000000
   160  O2    c     0.668452    0.769736    0.932870    0.000000
   161  O2    c     0.073691    0.327560    0.599308    0.000000
   162  O2    c     0.218256    0.911853    0.265938    0.000000
   163  O2    c     0.573339    0.557825    0.987694    0.000000
   164  O2    c     0.427584    0.026839    0.321237    0.000000
   165  O2    c     0.959384    0.419776    0.655624    0.000000
   166  O2    c     0.389960    0.446369    0.487486    0.000000
   167  O2    c     0.547264    0.972695    0.818989    0.000000
   168  O2    c     0.998808    0.578872    0.147660    0.000000
   169  O2    c     0.538868    0.589478    0.340133    0.000000
   170  O2    c     0.006894    0.428862    0.006592    0.000000
   171  O2    c     0.397935    0.975119    0.671415    0.000000
   172  O2    c     0.434088    0.415277    0.838961    0.000000
   173  O2    c     0.947548    0.561243    0.507506    0.000000
   174  O3    c     0.578973    0.026536    0.165875    0.000000
   175  O3    c     0.578518    0.184543    0.254187    0.000000
   176  O2    c     0.817157    0.420782    0.582796    0.000000
   177  O2    c     0.577749    0.423596    0.913833    0.000000
   178  O2    c     0.404355    0.837113    0.745006    0.000000
   179  O2    c     0.140459    0.571250    0.078522    0.000000
   180  O2    c     0.393517    0.583863    0.412774    0.000000
   181  F     c     0.452709    0.946458    0.238186    0.000000
   182  F     c     0.077491    0.550906    0.579506    0.000000
   183  F     c     0.442338    0.555977    0.911957    0.000000
   184  F     c     0.535795    0.099035    0.744924    0.000000
   185  F     c     0.847427    0.433261    0.069978    0.000000
   186  F     c     0.524406    0.455411    0.413730    0.000000
   187  O3    s     0.930054    0.004129    0.990505    0.000000
   188  O2    s     0.982273    0.923464    0.328706    0.000000
   189  O2    s     0.059861    0.080117    0.661485    0.000000
   190  O2    s     0.055465    0.005388    0.495401    0.000000
   191  O2    s     0.987271    0.074691    0.826258    0.000000
   192  O2    s     0.904799    0.921778    0.164658    0.000000
   193  O2    s     0.334149    0.587649    0.328968    0.000000
   194  O2    s     0.400432    0.771530    0.661672    0.000000
   195  O2    s     0.216839    0.639747    0.994599    0.000000
   196  O2    s     0.638104    0.415030    0.830621    0.000000
   197  O3    s     0.566208    0.231478    0.167854    0.000000
   198  O2    s     0.742631    0.357017    0.500724    0.000000
   199  O3    s     0.570708    0.348347    0.995937    0.000000
   200  O2    s     0.752488    0.418787    0.665655    0.000000
   201  O2    s     0.632247    0.233466    0.338514    0.000000
   202  O2    s     0.389203    0.650568    0.495765    0.000000
   203  O2    s     0.210050    0.585010    0.163040    0.000000
   204  O2    s     0.342289    0.766168    0.828371    0.000000
   205  O2    s     0.118999    0.220677    0.964019    0.000000
   206  O2    s     0.764196    0.902964    0.299094    0.000000
   207  O2    s     0.080054    0.882137    0.633888    0.000000
   208  O2    s     0.856035    0.788527    0.467593    0.000000
   209  O2    s     0.205014    0.094675    0.798934    0.000000
   210  O2    s     0.879306    0.117571    0.135744    0.000000
   211  O2    s     0.196298    0.121632    0.361070    0.000000
   212  O3    s     0.907856    0.785828    0.023494    0.000000
   213  O2    s     0.865496    0.100556    0.692579    0.000000
   214  O2    s     0.774082    0.879812    0.860113    0.000000
   215  O2    s     0.071307    0.217809    0.527837    0.000000
   216  O2    s     0.091701    0.892913    0.194649    0.000000
   217  O2    s     0.899361    0.843182    0.246719    0.000000
   218  O2    s     0.121423    0.069641    0.579155    0.000000
   219  O2    s     0.928730    0.077490    0.909195    0.000000
   220  O2    s     0.061152    0.143280    0.744569    0.000000
   221  O3    s     0.857509    0.943580    0.081457    0.000000
   222  O2    s     0.047478    0.927645    0.412830    0.000000
   223  O2    s     0.898666    0.194214    0.978153    0.000000
   224  O2    s     0.774289    0.701200    0.314704    0.000000
   225  O2    s     0.280787    0.095336    0.645183    0.000000
   226  O2    s     0.067639    0.797440    0.479820    0.000000
   227  O2    s     0.196388    0.296986    0.810342    0.000000
   228  O2    s     0.685815    0.896358    0.143753    0.000000
   229  O2    s     0.188614    0.911588    0.348708    0.000000
   230  O3    s     0.683375    0.790736    0.014467    0.000000
   231  O2    s     0.078690    0.301442    0.680957    0.000000
   232  O2    s     0.784000    0.091291    0.846083    0.000000
   233  O2    s     0.274000    0.211403    0.515313    0.000000
   234  O2    s     0.879396    0.696005    0.177635    0.000000
   235  O2    s     0.310689    0.662321    0.246038    0.000000
   236  O2    s     0.325067    0.675272    0.579104    0.000000
   237  O2    s     0.313979    0.671206    0.911275    0.000000
   238  O2    s     0.658420    0.345776    0.747563    0.000000
   239  O3    s     0.617622    0.305204    0.084699    0.000000
   240  O2    s     0.651654    0.334326    0.418226    0.000000
   241  O2    s     0.369875    0.342200    0.962977    0.000000
   242  O2    s     0.647672    0.040632    0.298882    0.000000
   243  O2    s     0.948566    0.627865    0.633315    0.000000
   244  O2    s     0.599993    0.665057    0.465223    0.000000
   245  O2    s     0.327978    0.963146    0.797219    0.000000
   246  O2    s     0.011290    0.373387    0.130527    0.000000
   247  O2    s     0.319886    0.376808    0.361441    0.000000
   248  O2    s     0.019517    0.647709    0.025962    0.000000
   249  O2    s     0.610181    0.968599    0.693619    0.000000
   250  O2    s     0.650692    0.626319    0.861868    0.000000
   251  O2    s     0.941779    0.342991    0.529603    0.000000
   252  O3    s     0.338860    0.031978    0.194718    0.000000
   253  O3    s     0.760665    0.287511    0.005538    0.000000
   254  O2    s     0.667384    0.465073    0.346877    0.000000
   255  O2    s     0.519660    0.226852    0.677144    0.000000
   256  O2    s     0.199553    0.690844    0.510347    0.000000
   257  O2    s     0.303606    0.535950    0.841471    0.000000
   258  O2    s     0.445205    0.776078    0.176676    0.000000
   259  O2    s     0.294383    0.779946    0.314828    0.000000
   260  O2    s     0.451502    0.689071    0.981237    0.000000
   261  O2    s     0.209693    0.538986    0.649077    0.000000
   262  O2    s     0.677668    0.224092    0.816091    0.000000
   263  O2    s     0.510951    0.316801    0.485521    0.000000
   264  O2    s     0.749045    0.461379    0.146011    0.000000
   265  O3    s     0.776713    0.544258    0.020315    0.000000
   266  O2    s     0.447600    0.256670    0.363779    0.000000
   267  O2    s     0.729752    0.215502    0.693813    0.000000
   268  O2    s     0.188495    0.469710    0.527236    0.000000
   269  O2    s     0.523256    0.746918    0.860871    0.000000
   270  O2    s     0.241543    0.791607    0.194604    0.000000
   271  O2    s     0.511324    0.796866    0.296229    0.000000
   272  O2    s     0.247314    0.468318    0.963453    0.000000
   273  O2    s     0.195181    0.746249    0.632459    0.000000
   274  O2    s     0.456157    0.210207    0.799476    0.000000
   275  O2    s     0.718193    0.537620    0.469732    0.000000
   276  O2    s     0.767144    0.254751    0.132853    0.000000
   277  O2    s     0.234211    0.336098    0.893065    0.000000
   278  O2    s     0.649587    0.914432    0.227724    0.000000
   279  O2    s     0.072527    0.761988    0.562989    0.000000
   280  O2    s     0.737477    0.667438    0.397595    0.000000
   281  O2    s     0.319867    0.093556    0.728297    0.000000
   282  O2    s     0.881914    0.231551    0.062921    0.000000
   283  O2    s     0.310753    0.244543    0.432241    0.000000
   284  O2    s     0.879881    0.656607    0.093574    0.000000
   285  O2    s     0.747049    0.095662    0.763456    0.000000
   286  O2    s     0.658524    0.760485    0.931722    0.000000
   287  O2    s     0.074012    0.337106    0.598347    0.000000
   288  O2    s     0.226364    0.911440    0.265459    0.000000
   289  O2    s     0.569710    0.558807    0.984388    0.000000
   290  O2    s     0.426204    0.022842    0.318388    0.000000
   291  O2    s     0.963772    0.423996    0.652226    0.000000
   292  O2    s     0.394562    0.446040    0.484173    0.000000
   293  O2    s     0.547389    0.977523    0.815697    0.000000
   294  O2    s     0.995353    0.574681    0.145019    0.000000
   295  O2    s     0.538658    0.584222    0.343596    0.000000
   296  O2    s     0.003559    0.429846    0.009326    0.000000
   297  O2    s     0.402771    0.980133    0.674844    0.000000
   298  O2    s     0.433520    0.419858    0.842240    0.000000
   299  O2    s     0.953087    0.561786    0.510908    0.000000
   300  O3    s     0.574984    0.017274    0.169499    0.000000
   301  O3    s     0.573266    0.171838    0.255890    0.000000
   302  O2    s     0.828291    0.426479    0.582704    0.000000
   303  O2    s     0.572350    0.428236    0.913491    0.000000
   304  O2    s     0.409885    0.848045    0.745055    0.000000
   305  O2    s     0.130578    0.566534    0.078649    0.000000
   306  O2    s     0.399307    0.578465    0.412806    0.000000
   307  F     s     0.456660    0.956791    0.235696    0.000000
   308  F     s     0.077798    0.551001    0.579346    0.000000
   309  F     s     0.442029    0.556893    0.911916    0.000000
   310  F     s     0.536052    0.099474    0.744770    0.000000
   311  F     s     0.837138    0.429494    0.067395    0.000000
   312  F     s     0.524400    0.455359    0.413554    0.000000
--------------------------------------------------------------------------------

  Final Cartesian lattice vectors (Angstroms) :

       11.978872    0.001547   -0.012646
       -6.042988   10.376591    0.006012
       -0.243840   -0.079205   29.479204


  Final cell parameters and derivatives :

--------------------------------------------------------------------------------
       a           11.978879 Angstrom     dE/de1(xx)     0.000011 eV/strain
       b           12.007972 Angstrom     dE/de2(yy)     0.000102 eV/strain
       c           29.480319 Angstrom     dE/de3(zz)     0.000085 eV/strain
       alpha       89.865842 Degrees      dE/de4(yz)     0.000056 eV/strain
       beta        90.534423 Degrees      dE/de5(xz)     0.000064 eV/strain
       gamma      120.207739 Degrees      dE/de6(xy)    -0.000066 eV/strain
--------------------------------------------------------------------------------

  Primitive cell volume =          3664.504288 Angs**3

  Density of cell =      1.745964 g/cm**3

  Non-primitive cell volume =          3664.504288 Angs**3


  Final internal derivatives :

--------------------------------------------------------------------------------
   No.  Atomic          a             b             c           Radius
        Label          (eV)          (eV)          (eV)        (eV/Angs)
--------------------------------------------------------------------------------
      1 Ge    c       0.000000      0.000000      0.000000      0.000000
      2 Si    c      -0.000046      0.000023     -0.000290      0.000000
      3 Si    c      -0.000035     -0.000054     -0.000035      0.000000
      4 Si    c      -0.000011     -0.000068     -0.000499      0.000000
      5 Si    c       0.000057      0.000085     -0.000046      0.000000
      6 Si    c       0.000016      0.000031     -0.000174      0.000000
      7 Si    c       0.000073      0.000027     -0.000074      0.000000
      8 Si    c      -0.000006      0.000069      0.000081      0.000000
      9 Si    c      -0.000153      0.000030      0.000507      0.000000
     10 Si    c      -0.000045     -0.000027      0.000129      0.000000
     11 Si    c       0.000012     -0.000006      0.000163      0.000000
     12 Si    c      -0.000329      0.000143     -0.001498      0.000000
     13 Si    c      -0.000310     -0.000140     -0.000388      0.000000
     14 Si    c      -0.000031      0.000030      0.000016      0.000000
     15 Si    c       0.000027      0.000039      0.000288      0.000000
     16 Si    c       0.000065     -0.000056      0.000200      0.000000
     17 Si    c      -0.000031      0.000039      0.000343      0.000000
     18 Si    c       0.000100      0.000012     -0.000326      0.000000
     19 Si    c       0.000023     -0.000022     -0.000360      0.000000
     20 Si    c       0.000109      0.000007      0.000182      0.000000
     21 Si    c       0.000020      0.000082     -0.000169      0.000000
     22 Si    c      -0.000119     -0.000012     -0.000286      0.000000
     23 Si    c       0.000071     -0.000025     -0.000299      0.000000
     24 Ge    c      -0.000161     -0.000161      0.000731      0.000000
     25 Si    c       0.000104      0.000015      0.000282      0.000000
     26 Si    c      -0.000077     -0.000047     -0.000107      0.000000
     27 Si    c      -0.000041     -0.000010     -0.000285      0.000000
     28 Si    c      -0.000018     -0.000063     -0.000174      0.000000
     29 Si    c       0.000038     -0.000033     -0.000335      0.000000
     30 Si    c       0.000065     -0.000095      0.000436      0.000000
     31 Si    c      -0.000005      0.000026      0.000188      0.000000
     32 Si    c      -0.000007     -0.000192     -0.000087      0.000000
     33 Si    c      -0.000042      0.000029      0.000194      0.000000
     34 Si    c      -0.000402      0.000292     -0.000141      0.000000
     35 Si    c      -0.000040      0.000063      0.000272      0.000000
     36 Si    c       0.000080     -0.000024      0.000013      0.000000
     37 Si    c      -0.000014     -0.000064     -0.000284      0.000000
     38 Si    c      -0.000088      0.000001      0.000210      0.000000
     39 Si    c      -0.000004     -0.000017      0.000351      0.000000
     40 Si    c       0.000024     -0.000027      0.000286      0.000000
     41 Si    c       0.000021     -0.000003      0.000214      0.000000
     42 Si    c      -0.000221      0.000200     -0.000606      0.000000
     43 Si    c       0.000022      0.000021     -0.000217      0.000000
     44 Si    c      -0.000005      0.000164      0.000288      0.000000
     45 Si    c      -0.000018      0.000013     -0.000287      0.000000
     46 Si    c      -0.000128      0.000071     -0.000181      0.000000
     47 Si    c       0.000019     -0.000010     -0.000376      0.000000
     48 Si    c       0.000062      0.000038      0.000012      0.000000
     49 Si    c       0.000086      0.000050     -0.000267      0.000000
     50 Si    c       0.000046     -0.000050     -0.000272      0.000000
     51 Si    c       0.000099     -0.000088      0.000401      0.000000
     52 Si    c       0.000001     -0.000034      0.000272      0.000000
     53 Si    c       0.000162     -0.000120      0.000377      0.000000
     54 Si    c       0.000207     -0.000100     -0.000182      0.000000
     55 Si    c       0.000056      0.000024     -0.000079      0.000000
     56 Ge    c       0.000102      0.000615     -0.000903      0.000000
     57 Si    c      -0.000061      0.000034     -0.000279      0.000000
     58 Si    c      -0.000073     -0.000006     -0.000513      0.000000
     59 Si    c      -0.000024      0.000102     -0.000684      0.000000
     60 Si    c       0.000113      0.000021     -0.000139      0.000000
     61 O3    c      -0.000387     -0.000941      0.002925      0.000000
     62 O2    c      -0.000030      0.000022      0.000015      0.000000
     63 O2    c      -0.000048      0.000047      0.000091      0.000000
     64 O2    c       0.000002     -0.000015      0.000027      0.000000
     65 O2    c      -0.000117     -0.000032      0.000150      0.000000
     66 O2    c      -0.000263      0.000236     -0.000298      0.000000
     67 O2    c       0.000062     -0.000115      0.000318      0.000000
     68 O2    c       0.000085     -0.000039      0.000055      0.000000
     69 O2    c       0.000118     -0.000057     -0.000200      0.000000
     70 O2    c       0.000010     -0.000011     -0.000100      0.000000
     71 O3    c      -0.000254      0.000548     -0.000708      0.000000
     72 O2    c      -0.000023     -0.000021      0.000002      0.000000
     73 O3    c      -0.000555     -0.000119      0.000394      0.000000
     74 O2    c       0.000013      0.000077     -0.000169      0.000000
     75 O2    c      -0.000025      0.000056      0.000144      0.000000
     76 O2    c      -0.000030      0.000045      0.000130      0.000000
     77 O2    c       0.000080     -0.000025      0.000304      0.000000
     78 O2    c       0.000036     -0.000078      0.000033      0.000000
     79 O2    c       0.000075     -0.000037     -0.000157      0.000000
     80 O2    c       0.000032     -0.000011      0.000125      0.000000
     81 O2    c      -0.000010      0.000020      0.000027      0.000000
     82 O2    c       0.000027      0.000008      0.000058      0.000000
     83 O2    c       0.000008     -0.000014      0.000011      0.000000
     84 O2    c       0.000108     -0.000121      0.000082      0.000000
     85 O2    c       0.000010     -0.000021      0.000010      0.000000
     86 O3    c       0.000130      0.000094     -0.000592      0.000000
     87 O2    c       0.000079     -0.000026     -0.000054      0.000000
     88 O2    c       0.000026     -0.000008     -0.000041      0.000000
     89 O2    c      -0.000022      0.000010      0.000023      0.000000
     90 O2    c      -0.000000      0.000034     -0.000080      0.000000
     91 O2    c      -0.000171      0.000056      0.001460      0.000000
     92 O2    c       0.000020     -0.000115      0.000397      0.000000
     93 O2    c       0.000226      0.000013      0.000748      0.000000
     94 O2    c      -0.000103      0.000055     -0.000778      0.000000
     95 O3    c       0.000140     -0.000194      0.000055      0.000000
     96 O2    c      -0.000007     -0.000003      0.000081      0.000000
     97 O2    c       0.000264     -0.000124      0.000049      0.000000
     98 O2    c       0.000009      0.000035      0.000001      0.000000
     99 O2    c      -0.000003     -0.000016     -0.000039      0.000000
    100 O2    c       0.000009      0.000016     -0.000034      0.000000
    101 O2    c      -0.000006      0.000140     -0.000049      0.000000
    102 O2    c      -0.000072      0.000014     -0.000004      0.000000
    103 O2    c       0.000001     -0.000006      0.000107      0.000000
    104 O3    c      -0.000121     -0.000005     -0.000214      0.000000
    105 O2    c       0.000016     -0.000023      0.000063      0.000000
    106 O2    c       0.000025     -0.000003     -0.000007      0.000000
    107 O2    c       0.000004     -0.000009      0.000058      0.000000
    108 O2    c      -0.000021     -0.000060      0.000178      0.000000
    109 O2    c       0.000008     -0.000009      0.000031      0.000000
    110 O2    c       0.000149     -0.000007     -0.000163      0.000000
    111 O2    c       0.000010     -0.000023      0.000044      0.000000
    112 O2    c       0.000004      0.000043     -0.000087      0.000000
    113 O3    c       0.000145      0.000083     -0.000568      0.000000
    114 O2    c       0.000053     -0.000044      0.000093      0.000000
    115 O2    c       0.000056     -0.000040     -0.000082      0.000000
    116 O2    c       0.000032     -0.000035      0.000085      0.000000
    117 O2    c      -0.000008     -0.000035      0.000096      0.000000
    118 O2    c       0.000001     -0.000007      0.000094      0.000000
    119 O2    c       0.000011     -0.000011      0.000054      0.000000
    120 O2    c       0.000015     -0.000075      0.000005      0.000000
    121 O2    c       0.000019      0.000000     -0.000054      0.000000
    122 O2    c       0.000032      0.000034     -0.000154      0.000000
    123 O2    c      -0.000030     -0.000004     -0.000105      0.000000
    124 O2    c       0.000011      0.000041     -0.000111      0.000000
    125 O2    c      -0.000044      0.000027     -0.000094      0.000000
    126 O3    c       0.000015     -0.000039      0.000055      0.000000
    127 O3    c       0.000430     -0.000210      0.000244      0.000000
    128 O2    c      -0.000003     -0.000007     -0.000039      0.000000
    129 O2    c       0.000031      0.000010     -0.000016      0.000000
    130 O2    c       0.000100     -0.000053     -0.000137      0.000000
    131 O2    c       0.000058     -0.000186     -0.000125      0.000000
    132 O2    c       0.000048      0.000056      0.000048      0.000000
    133 O2    c      -0.000051      0.000087      0.000086      0.000000
    134 O2    c       0.000322     -0.000151     -0.000115      0.000000
    135 O2    c       0.000023      0.000050      0.000064      0.000000
    136 O2    c       0.000002      0.000004      0.000005      0.000000
    137 O2    c       0.000016     -0.000014      0.000061      0.000000
    138 O2    c       0.000048      0.000228     -0.000041      0.000000
    139 O3    c       0.000136      0.000800     -0.000378      0.000000
    140 O2    c       0.000043     -0.000003     -0.000034      0.000000
    141 O2    c       0.000055     -0.000050     -0.000083      0.000000
    142 O2    c       0.000027      0.000033     -0.000105      0.000000
    143 O2    c      -0.000004     -0.000050      0.000077      0.000000
    144 O2    c       0.000050     -0.000052     -0.000109      0.000000
    145 O2    c       0.000008      0.000021      0.000025      0.000000
    146 O2    c       0.000014      0.000010      0.000023      0.000000
    147 O2    c       0.000067     -0.000027      0.000127      0.000000
    148 O2    c       0.000027      0.000009      0.000046      0.000000
    149 O2    c       0.000004      0.000045      0.000096      0.000000
    150 O2    c       0.000180     -0.000135     -0.000112      0.000000
    151 O2    c       0.000026      0.000011     -0.000249      0.000000
    152 O2    c       0.000027     -0.000006      0.000042      0.000000
    153 O2    c      -0.000028      0.000076     -0.000199      0.000000
    154 O2    c       0.000036      0.000032     -0.000055      0.000000
    155 O2    c      -0.000096      0.000057      0.000049      0.000000
    156 O2    c       0.000001      0.000078      0.000575      0.000000
    157 O2    c      -0.000002     -0.000038      0.000109      0.000000
    158 O2    c       0.000025     -0.000009     -0.000360      0.000000
    159 O2    c       0.000080     -0.000049      0.000086      0.000000
    160 O2    c      -0.000042     -0.000013      0.000209      0.000000
    161 O2    c       0.000044     -0.000099      0.000191      0.000000
    162 O2    c       0.000038     -0.000010      0.000153      0.000000
    163 O2    c      -0.000001      0.000270      0.000564      0.000000
    164 O2    c      -0.000059     -0.000028      0.000006      0.000000
    165 O2    c      -0.000016     -0.000004      0.000065      0.000000
    166 O2    c       0.000010     -0.000017      0.000016      0.000000
    167 O2    c      -0.000033     -0.000005     -0.000017      0.000000
    168 O2    c       0.000016      0.000006      0.000039      0.000000
    169 O2    c      -0.000018      0.000002     -0.000011      0.000000
    170 O2    c       0.000020     -0.000041     -0.000030      0.000000
    171 O2    c       0.000002     -0.000027     -0.000045      0.000000
    172 O2    c      -0.000125      0.000051     -0.000009      0.000000
    173 O2    c       0.000006     -0.000006     -0.000083      0.000000
    174 O3    c       0.000086     -0.000049     -0.000233      0.000000
    175 O3    c      -0.000056      0.000052      0.000128      0.000000
    176 O2    c      -0.000094     -0.000006     -0.000012      0.000000
    177 O2    c      -0.000090      0.000000      0.000145      0.000000
    178 O2    c       0.000018     -0.000096     -0.000090      0.000000
    179 O2    c      -0.000006     -0.000035      0.000347      0.000000
    180 O2    c      -0.000048      0.000070      0.000139      0.000000
    181 F     c       0.000018      0.000017     -0.000031      0.000000
    182 F     c      -0.000006     -0.000002      0.000027      0.000000
    183 F     c      -0.000001     -0.000032      0.000006      0.000000
    184 F     c      -0.000022      0.000002     -0.000026      0.000000
    185 F     c      -0.000215     -0.000064      0.000078      0.000000
    186 F     c       0.000004     -0.000010     -0.000035      0.000000
    187 O3    s      -0.000239      0.000729     -0.001219      0.000000
    188 O2    s       0.000000     -0.000001     -0.000172      0.000000
    189 O2    s       0.000007     -0.000025      0.000085      0.000000
    190 O2    s      -0.000044      0.000017     -0.000153      0.000000
    191 O2    s       0.000041      0.000004      0.000033      0.000000
    192 O2    s      -0.000064     -0.000039     -0.000300      0.000000
    193 O2    s      -0.000022      0.000034     -0.000112      0.000000
    194 O2    s       0.000056     -0.000011      0.000000      0.000000
    195 O2    s      -0.000010     -0.000011      0.000015      0.000000
    196 O2    s       0.000000      0.000003      0.000072      0.000000
    197 O3    s       0.000410     -0.000510      0.000166      0.000000
    198 O2    s      -0.000009     -0.000006     -0.000064      0.000000
    199 O3    s       0.000582      0.000035     -0.001145      0.000000
    200 O2    s      -0.000050      0.000008      0.000032      0.000000
    201 O2    s       0.000019     -0.000053     -0.000083      0.000000
    202 O2    s       0.000045     -0.000004     -0.000060      0.000000
    203 O2    s      -0.000087      0.000113     -0.000086      0.000000
    204 O2    s       0.000011      0.000006      0.000086      0.000000
    205 O2    s      -0.000066      0.000095      0.000348      0.000000
    206 O2    s       0.000039     -0.000046     -0.000275      0.000000
    207 O2    s      -0.000031      0.000005      0.000076      0.000000
    208 O2    s      -0.000029      0.000016     -0.000051      0.000000
    209 O2    s       0.000057     -0.000104      0.000071      0.000000
    210 O2    s      -0.000134      0.000058     -0.000170      0.000000
    211 O2    s      -0.000006      0.000005     -0.000005      0.000000
    212 O3    s      -0.000189     -0.000110      0.000804      0.000000
    213 O2    s      -0.000001     -0.000032      0.000073      0.000000
    214 O2    s      -0.000106      0.000014      0.000126      0.000000
    215 O2    s      -0.000048      0.000006     -0.000096      0.000000
    216 O2    s       0.000132     -0.000070      0.000033      0.000000
    217 O2    s      -0.000022      0.000067     -0.000214      0.000000
    218 O2    s       0.000038      0.000041     -0.000044      0.000000
    219 O2    s      -0.000199      0.000079     -0.000053      0.000000
    220 O2    s       0.000004     -0.000040     -0.000039      0.000000
    221 O3    s       0.000068      0.000005     -0.000254      0.000000
    222 O2    s       0.000013      0.000007     -0.000001      0.000000
    223 O2    s      -0.000092     -0.000025      0.000254      0.000000
    224 O2    s      -0.000019      0.000065     -0.000127      0.000000
    225 O2    s      -0.000020      0.000052     -0.000015      0.000000
    226 O2    s       0.000003      0.000004     -0.000100      0.000000
    227 O2    s       0.000034      0.000090      0.000293      0.000000
    228 O2    s       0.000084      0.000071      0.000035      0.000000
    229 O2    s       0.000031     -0.000023     -0.000181      0.000000
    230 O3    s       0.000229     -0.000093      0.000121      0.000000
    231 O2    s      -0.000009     -0.000017      0.000098      0.000000
    232 O2    s      -0.000043     -0.000064      0.000169      0.000000
    233 O2    s       0.000072     -0.000043     -0.000071      0.000000
    234 O2    s       0.000074     -0.000063     -0.000476      0.000000
    235 O2    s      -0.000014      0.000033     -0.000112      0.000000
    236 O2    s      -0.000040     -0.000014     -0.000001      0.000000
    237 O2    s       0.000006     -0.000006      0.000048      0.000000
    238 O2    s      -0.000003     -0.000015      0.000187      0.000000
    239 O3    s       0.000221     -0.000081      0.000070      0.000000
    240 O2    s      -0.000022      0.000023     -0.000002      0.000000
    241 O2    s       0.000069      0.000073      0.000250      0.000000
    242 O2    s      -0.000028      0.000005     -0.000177      0.000000
    243 O2    s      -0.000050      0.000035     -0.000088      0.000000
    244 O2    s       0.000019     -0.000013     -0.000167      0.000000
    245 O2    s      -0.000015     -0.000008     -0.000068      0.000000
    246 O2    s      -0.000112      0.000088     -0.000145      0.000000
    247 O2    s      -0.000031      0.000034      0.000124      0.000000
    248 O2    s      -0.000226     -0.000027      0.000422      0.000000
    249 O2    s       0.000034     -0.000044      0.000172      0.000000
    250 O2    s       0.000011     -0.000002      0.000189      0.000000
    251 O2    s       0.000023     -0.000047      0.000081      0.000000
    252 O3    s      -0.000018      0.000036     -0.000025      0.000000
    253 O3    s      -0.000557      0.000323     -0.000354      0.000000
    254 O2    s       0.000045     -0.000023      0.000074      0.000000
    255 O2    s      -0.000040     -0.000001     -0.000001      0.000000
    256 O2    s       0.000004      0.000025      0.000157      0.000000
    257 O2    s       0.000006      0.000027      0.000189      0.000000
    258 O2    s      -0.000008     -0.000016      0.000018      0.000000
    259 O2    s       0.000003      0.000037     -0.000171      0.000000
    260 O2    s      -0.000039      0.000003      0.000038      0.000000
    261 O2    s       0.000036     -0.000048     -0.000098      0.000000
    262 O2    s      -0.000010      0.000032      0.000050      0.000000
    263 O2    s      -0.000009      0.000004     -0.000092      0.000000
    264 O2    s       0.000051     -0.000211      0.000056      0.000000
    265 O3    s       0.000128     -0.000779      0.000689      0.000000
    266 O2    s       0.000006     -0.000047      0.000015      0.000000
    267 O2    s      -0.000005     -0.000035      0.000099      0.000000
    268 O2    s       0.000037     -0.000012      0.000072      0.000000
    269 O2    s       0.000025      0.000037     -0.000010      0.000000
    270 O2    s       0.000023     -0.000056      0.000086      0.000000
    271 O2    s       0.000011      0.000036     -0.000130      0.000000
    272 O2    s      -0.000065      0.000032      0.000053      0.000000
    273 O2    s      -0.000025      0.000011     -0.000112      0.000000
    274 O2    s       0.000008      0.000028      0.000011      0.000000
    275 O2    s      -0.000030     -0.000009     -0.000192      0.000000
    276 O2    s      -0.000088      0.000143     -0.000271      0.000000
    277 O2    s       0.000029      0.000026     -0.000094      0.000000
    278 O2    s      -0.000018     -0.000001     -0.000127      0.000000
    279 O2    s       0.000010     -0.000040      0.000116      0.000000
    280 O2    s      -0.000014     -0.000015      0.000124      0.000000
    281 O2    s       0.000061     -0.000057      0.000016      0.000000
    282 O2    s       0.000006     -0.000044     -0.000045      0.000000
    283 O2    s      -0.000003      0.000032     -0.000036      0.000000
    284 O2    s      -0.000005     -0.000013     -0.000767      0.000000
    285 O2    s      -0.000062      0.000021     -0.000113      0.000000
    286 O2    s       0.000076     -0.000044      0.000048      0.000000
    287 O2    s      -0.000013      0.000023     -0.000144      0.000000
    288 O2    s       0.000008     -0.000030     -0.000001      0.000000
    289 O2    s      -0.000042     -0.000064     -0.000705      0.000000
    290 O2    s      -0.000000     -0.000052     -0.000193      0.000000
    291 O2    s      -0.000032     -0.000020      0.000053      0.000000
    292 O2    s       0.000018     -0.000026     -0.000077      0.000000
    293 O2    s       0.000040     -0.000025      0.000047      0.000000
    294 O2    s       0.000043     -0.000033     -0.000198      0.000000
    295 O2    s      -0.000016      0.000039      0.000042      0.000000
    296 O2    s       0.000023      0.000060     -0.000062      0.000000
    297 O2    s       0.000005     -0.000004      0.000083      0.000000
    298 O2    s      -0.000047      0.000006      0.000148      0.000000
    299 O2    s      -0.000037      0.000024      0.000026      0.000000
    300 O3    s      -0.000070      0.000028      0.000437      0.000000
    301 O3    s       0.000118     -0.000136     -0.000093      0.000000
    302 O2    s       0.000020     -0.000001      0.000073      0.000000
    303 O2    s       0.000045      0.000054      0.000415      0.000000
    304 O2    s      -0.000020      0.000058      0.000033      0.000000
    305 O2    s      -0.000114      0.000062      0.000005      0.000000
    306 O2    s       0.000062     -0.000078     -0.000148      0.000000
    307 F     s      -0.000011      0.000059     -0.000067      0.000000
    308 F     s       0.000027     -0.000002     -0.000039      0.000000
    309 F     s       0.000036      0.000032      0.000109      0.000000
    310 F     s       0.000044     -0.000031      0.000066      0.000000
    311 F     s      -0.000257      0.000230     -0.000986      0.000000
    312 F     s       0.000009      0.000021      0.000117      0.000000
--------------------------------------------------------------------------------
  Maximum abs         0.000582      0.000941      0.002925      0.000000
--------------------------------------------------------------------------------


  Time to end of optimisation =       8.4779 seconds


  Peak dynamic memory used =      19.13 MB 


  Timing analysis for GULP :

--------------------------------------------------------------------------------
  Task / Subroutine                                          Time (Seconds)
--------------------------------------------------------------------------------
  Calculation of reciprocal space energy and derivatives          0.3115
  Calculation of real space energy and derivatives                7.1406
  Calculation of three-body energy and derivatives                0.7947
  Calculation of matrix inversion                                 0.1920
--------------------------------------------------------------------------------
  Total CPU time                                                  8.4780
--------------------------------------------------------------------------------


  Dump file written as out.res                                                 
  CIF file written as out.cif                                                 


  Job Finished at 03:55.04  2nd December   2016                               

