********************************************************************************
*                       GENERAL UTILITY LATTICE PROGRAM                        *
*                                 Julian Gale                                  *
*                      Nanochemistry Research Institute                        *
*                           Department of Chemistry                            *
*                    Curtin University, Western Australia                      *
********************************************************************************
* Version = 4.2.0 * Last modified =  20th January 2014                         *
********************************************************************************
*  optimise     - perform optimisation run                                     *
*  conp         - constant pressure calculation                                *
*  qok          - running with non charge neutral cell is OK                   *
********************************************************************************

  Job Started  at 03:03.53  2nd December   2016                               

  Number of CPUs =     1


  Total number of configurations input =   1

********************************************************************************
*  Input for Configuration =   1                                               *
********************************************************************************

  Formula = Ge3Si57O120F6                                               

  Number of irreducible atoms/shells =     312


  Total number atoms/shells =     312

  Dimensionality = 3               :  Bulk   


  Charge on solid   =  -6.000000 =>neutralising background added


  Cartesian lattice vectors (Angstroms) :

       11.948244    0.000000    0.000000
       -6.058963   10.396238    0.000000
       -0.319873   -0.418956   29.381573

  Cell parameters (Angstroms/Degrees):

  a =      11.9482    alpha =  90.3917
  b =      12.0330    beta  =  90.6237
  c =      29.3863    gamma = 120.2338

  Initial cell volume =        3649.684784 Angs**3

  Temperature of configuration =  0.000     K 

  Pressure of configuration =         0.000 GPa 

  Fractional coordinates of asymmetric unit :

--------------------------------------------------------------------------------
   No.  Atomic       x           y          z         Charge      Occupancy
        Label      (Frac)      (Frac)     (Frac)        (e)         (Frac)  
--------------------------------------------------------------------------------
      1 Ge    c    0.699600    0.375700    0.033890     4.00000    1.000000    
      2 Si    c    0.619325 *  0.323189 *  0.364729 *   4.00000    1.000000    
      3 Si    c    0.681938 *  0.299356 *  0.696729 *   4.00000    1.000000    
      4 Si    c    0.295605 *  0.620062 *  0.529990 *   4.00000    1.000000    
      5 Si    c    0.373336 *  0.682264 *  0.859752 *   4.00000    1.000000    
      6 Si    c    0.318727 *  0.704457 *  0.196105 *   4.00000    1.000000    
      7 Si    c    0.374057 *  0.697581 *  0.296908 *   4.00000    1.000000    
      8 Si    c    0.309561 *  0.617583 *  0.961491 *   4.00000    1.000000    
      9 Si    c    0.298005 *  0.676353 *  0.630952 *   4.00000    1.000000    
     10 Si    c    0.634415 *  0.303491 *  0.797791 *   4.00000    1.000000    
     11 Si    c    0.675146 *  0.381487 *  0.465642 *   4.00000    1.000000    
     12 Si    c    0.682592 *  0.317686 *  0.132903 *   4.00000    1.000000    
     13 Si    c    0.524750 *  0.407292 *  0.964260 *   4.00000    1.000000    
     14 Si    c    0.581671 *  0.108753 *  0.301979 *   4.00000    1.000000    
     15 Si    c    0.889602 *  0.471470 *  0.631997 *   4.00000    1.000000    
     16 Si    c    0.466334 *  0.582924 *  0.464159 *   4.00000    1.000000    
     17 Si    c    0.422435 *  0.898826 *  0.797427 *   4.00000    1.000000    
     18 Si    c    0.104865 *  0.533032 *  0.128899 *   4.00000    1.000000    
     19 Si    c    0.413122 *  0.526283 *  0.361891 *   4.00000    1.000000    
     20 Si    c    0.095132 *  0.576680 *  0.025265 *   4.00000    1.000000    
     21 Si    c    0.470595 *  0.890253 *  0.696134 *   4.00000    1.000000    
     22 Si    c    0.589666 *  0.469957 *  0.860959 *   4.00000    1.000000    
     23 Si    c    0.887507 *  0.418007 *  0.530214 *   4.00000    1.000000    
     24 Si    c    0.526184 *  0.110919 *  0.200390 *   4.00000    1.000000    
     25 Ge    c    0.315390 *  0.413598 *  0.852518 *   4.00000    1.000000    
     26 Si    c    0.598139 *  0.905230 *  0.182996 *   4.00000    1.000000    
     27 Si    c    0.094349 *  0.697063 *  0.515472 *   4.00000    1.000000    
     28 Si    c    0.694268 *  0.598045 *  0.348855 *   4.00000    1.000000    
     29 Si    c    0.401238 *  0.099566 *  0.682316 *   4.00000    1.000000    
     30 Si    c    0.884033 *  0.287726 *  0.011088 *   4.00000    1.000000    
     31 Si    c    0.395612 *  0.303663 *  0.479238 *   4.00000    1.000000    
     32 Si    c    0.889487 *  0.602783 *  0.142891 *   4.00000    1.000000    
     33 Si    c    0.707066 *  0.100717 *  0.812017 *   4.00000    1.000000    
     34 Ge    c    0.594991 *  0.695799 *  0.978696 *   4.00000    1.000000    
     35 Si    c    0.098439 *  0.398296 *  0.646226 *   4.00000    1.000000    
     36 Si    c    0.299120 *  0.899005 *  0.314084 *   4.00000    1.000000    
     37 Si    c    0.241701 *  0.332445 *  0.947831 *   4.00000    1.000000    
     38 Si    c    0.656972 *  0.907906 *  0.284040 *   4.00000    1.000000    
     39 Si    c    0.089227 *  0.749900 *  0.616480 *   4.00000    1.000000    
     40 Si    c    0.746083 *  0.660339 *  0.449837 *   4.00000    1.000000    
     41 Si    c    0.347575 *  0.100581 *  0.783165 *   4.00000    1.000000    
     42 Si    c    0.899513 *  0.250269 *  0.114677 *   4.00000    1.000000    
     43 Si    c    0.337625 *  0.249923 *  0.377911 *   4.00000    1.000000    
     44 Si    c    0.893384 *  0.659056 *  0.040169 *   4.00000    1.000000    
     45 Si    c    0.751906 *  0.090202 *  0.711001 *   4.00000    1.000000    
     46 Si    c    0.662358 *  0.751527 *  0.876056 *   4.00000    1.000000    
     47 Si    c    0.087790 *  0.339939 *  0.544852 *   4.00000    1.000000    
     48 Si    c    0.246288 *  0.910220 *  0.213286 *   4.00000    1.000000    
     49 Si    c    0.968366 *  0.117206 *  0.964006 *   4.00000    1.000000    
     50 Si    c    0.873823 *  0.843917 *  0.298611 *   4.00000    1.000000    
     51 Si    c    0.151210 *  0.029810 *  0.631100 *   4.00000    1.000000    
     52 Si    c    0.027823 *  0.877762 *  0.464951 *   4.00000    1.000000    
     53 Si    c    0.128807 *  0.162001 *  0.798496 *   4.00000    1.000000    
     54 Si    c    0.847070 *  0.976606 *  0.132848 *   4.00000    1.000000    
     55 Si    c    0.120563 *  0.968156 *  0.364092 *   4.00000    1.000000    
     56 Si    c    0.845505 *  0.884071 *  0.031594 *   4.00000    1.000000    
     57 Si    c    0.031425 *  0.151491 *  0.696701 *   4.00000    1.000000    
     58 Si    c    0.884638 *  0.028484 *  0.861719 *   4.00000    1.000000    
     59 Si    c    0.149687 *  0.123048 *  0.530201 *   4.00000    1.000000    
     60 Si    c    0.966295 *  0.851677 *  0.196989 *   4.00000    1.000000    
     61 O2    c    0.924535 *  0.002854 *  0.999129 *   0.87073    1.000000    
     62 O2    c    0.997957 *  0.924432 *  0.330899 *   0.87073    1.000000    
     63 O2    c    0.071245 *  0.071565 *  0.663198 *   0.87073    1.000000    
     64 O2    c    0.070939 *  0.000850 *  0.497079 *   0.87073    1.000000    
     65 O2    c    0.006051 *  0.070432 *  0.829891 *   0.87073    1.000000    
     66 O2    c    0.928490 *  0.939237 *  0.166956 *   0.87073    1.000000    
     67 O2    c    0.336265 *  0.574004 *  0.328503 *   0.87073    1.000000    
     68 O2    c    0.421872 *  0.763503 *  0.663919 *   0.87073    1.000000    
     69 O2    c    0.218839 *  0.651170 *  0.992899 *   0.87073    1.000000    
     70 O2    c    0.676847 *  0.426433 *  0.831621 *   0.87073    1.000000    
     71 O2    c    0.575373 *  0.239870 *  0.171019 *   0.87073    1.000000    
     72 O2    c    0.758922 *  0.341581 *  0.498051 *   0.87073    1.000000    
     73 O3    c    0.566909 *  0.330534 *  0.996518 *   1.33043    1.000000    
     74 O2    c    0.764829 *  0.421946 *  0.664271 *   0.87073    1.000000    
     75 O2    c    0.658865 *  0.235285 *  0.334234 *   0.87073    1.000000    
     76 O2    c    0.417352 *  0.658755 *  0.496633 *   0.87073    1.000000    
     77 O2    c    0.231881 *  0.584148 *  0.161266 *   0.87073    1.000000    
     78 O2    c    0.343725 *  0.778304 *  0.830893 *   0.87073    1.000000    
     79 O2    c    0.120873 *  0.212116 *  0.972900 *   0.87073    1.000000    
     80 O2    c    0.783269 *  0.907156 *  0.304239 *   0.87073    1.000000    
     81 O2    c    0.088768 *  0.876004 *  0.636100 *   0.87073    1.000000    
     82 O2    c    0.872947 *  0.788104 *  0.469875 *   0.87073    1.000000    
     83 O2    c    0.225401 *  0.103773 *  0.804137 *   0.87073    1.000000    
     84 O2    c    0.905104 *  0.130324 *  0.137093 *   0.87073    1.000000    
     85 O2    c    0.211087 *  0.121455 *  0.357833 *   0.87073    1.000000    
     86 O2    c    0.908230 *  0.793984 *  0.023702 *   0.87073    1.000000    
     87 O2    c    0.876502 *  0.088995 *  0.690262 *   0.87073    1.000000    
     88 O2    c    0.786733 *  0.875157 *  0.854659 *   0.87073    1.000000    
     89 O2    c    0.085490 *  0.212614 *  0.524702 *   0.87073    1.000000    
     90 O2    c    0.120668 *  0.912467 *  0.192944 *   0.87073    1.000000    
     91 O2    c    0.924043 *  0.855781 *  0.247817 *   0.87073    1.000000    
     92 O2    c    0.137937 *  0.069413 *  0.580352 *   0.87073    1.000000    
     93 O2    c    0.933001 *  0.057267 *  0.913818 *   0.87073    1.000000    
     94 O2    c    0.071293 *  0.137325 *  0.747045 *   0.87073    1.000000    
     95 O2    c    0.865534 *  0.936960 *  0.082993 *   0.87073    1.000000    
     96 O2    c    0.068128 *  0.929992 *  0.414447 *   0.87073    1.000000    
     97 O2    c    0.894326 *  0.195624 *  0.973289 *   0.87073    1.000000    
     98 O2    c    0.791916 *  0.693146 *  0.310376 *   0.87073    1.000000    
     99 O2    c    0.303592 *  0.099977 *  0.643422 *   0.87073    1.000000    
    100 O2    c    0.095936 *  0.794963 *  0.477171 *   0.87073    1.000000    
    101 O3    c    0.202284 *  0.308454 *  0.809749 *   1.33043    1.000000    
    102 O2    c    0.694549 *  0.904996 *  0.144329 *   0.87073    1.000000    
    103 O2    c    0.202366 *  0.898031 *  0.352583 *   0.87073    1.000000    
    104 O3    c    0.693883 *  0.803182 *  0.021172 *   1.33043    1.000000    
    105 O2    c    0.101053 *  0.302755 *  0.684296 *   0.87073    1.000000    
    106 O2    c    0.805190 *  0.101413 *  0.850844 *   0.87073    1.000000    
    107 O2    c    0.301189 *  0.207434 *  0.517823 *   0.87073    1.000000    
    108 O2    c    0.894249 *  0.702520 *  0.181165 *   0.87073    1.000000    
    109 O2    c    0.317888 *  0.643025 *  0.245516 *   0.87073    1.000000    
    110 O2    c    0.355042 *  0.677250 *  0.580547 *   0.87073    1.000000    
    111 O2    c    0.310349 *  0.668500 *  0.910386 *   0.87073    1.000000    
    112 O2    c    0.687218 *  0.358647 *  0.747251 *   0.87073    1.000000    
    113 O3    c    0.612066 *  0.304804 *  0.085327 *   1.33043    1.000000    
    114 O2    c    0.676827 *  0.325444 *  0.415224 *   0.87073    1.000000    
    115 O2    c    0.367093 *  0.322126 *  0.962186 *   0.87073    1.000000    
    116 O2    c    0.668742 *  0.039701 *  0.303725 *   0.87073    1.000000    
    117 O2    c    0.957614 *  0.627344 *  0.634783 *   0.87073    1.000000    
    118 O2    c    0.623402 *  0.671064 *  0.467082 *   0.87073    1.000000    
    119 O2    c    0.336025 *  0.967513 *  0.800429 *   0.87073    1.000000    
    120 O2    c    0.032585 *  0.377807 *  0.130801 *   0.87073    1.000000    
    121 O2    c    0.325948 *  0.370019 *  0.358573 *   0.87073    1.000000    
    122 O2    c    0.024151 *  0.660822 *  0.023540 *   0.87073    1.000000    
    123 O2    c    0.627161 *  0.958218 *  0.692510 *   0.87073    1.000000    
    124 O2    c    0.667628 *  0.626732 *  0.858452 *   0.87073    1.000000    
    125 O2    c    0.954546 *  0.329592 *  0.526135 *   0.87073    1.000000    
    126 O2    c    0.369380 *  0.041716 *  0.195638 *   0.87073    1.000000    
    127 O3    c    0.749975 *  0.279647 *  0.002662 *   1.33043    1.000000    
    128 O2    c    0.693594 *  0.464020 *  0.341190 *   0.87073    1.000000    
    129 O2    c    0.537147 *  0.231034 *  0.674240 *   0.87073    1.000000    
    130 O2    c    0.227481 *  0.695242 *  0.507704 *   0.87073    1.000000    
    131 O3    c    0.303130 *  0.547358 *  0.833985 *   1.33043    1.000000    
    132 O2    c    0.461652 *  0.772937 *  0.173544 *   0.87073    1.000000    
    133 O2    c    0.298376 *  0.764666 *  0.319364 *   0.87073    1.000000    
    134 O3    c    0.452720 *  0.699608 *  0.982497 *   1.33043    1.000000    
    135 O2    c    0.232402 *  0.534064 *  0.653048 *   0.87073    1.000000    
    136 O2    c    0.710162 *  0.235488 *  0.819533 *   0.87073    1.000000    
    137 O2    c    0.531161 *  0.306464 *  0.486985 *   0.87073    1.000000    
    138 O2    c    0.758150 *  0.467794 *  0.151083 *   0.87073    1.000000    
    139 O3    c    0.764667 *  0.544769 *  0.019242 *   1.33043    1.000000    
    140 O2    c    0.462468 *  0.247522 *  0.358594 *   0.87073    1.000000    
    141 O2    c    0.754816 *  0.216934 *  0.691647 *   0.87073    1.000000    
    142 O2    c    0.214145 *  0.464059 *  0.524976 *   0.87073    1.000000    
    143 O2    c    0.531165 *  0.748839 *  0.860901 *   0.87073    1.000000    
    144 O2    c    0.241274 *  0.782968 *  0.192469 *   0.87073    1.000000    
    145 O2    c    0.530612 *  0.781329 *  0.302202 *   0.87073    1.000000    
    146 O2    c    0.249540 *  0.464164 *  0.966911 *   0.87073    1.000000    
    147 O2    c    0.215786 *  0.749771 *  0.635796 *   0.87073    1.000000    
    148 O2    c    0.478486 *  0.222917 *  0.802786 *   0.87073    1.000000    
    149 O2    c    0.747384 *  0.537154 *  0.470428 *   0.87073    1.000000    
    150 O2    c    0.777073 *  0.255808 *  0.133857 *   0.87073    1.000000    
    151 O3    c    0.209052 *  0.309180 *  0.895062 *   1.33043    1.000000    
    152 O2    c    0.673261 *  0.907548 *  0.229466 *   0.87073    1.000000    
    153 O2    c    0.090021 *  0.767319 *  0.561961 *   0.87073    1.000000    
    154 O2    c    0.766002 *  0.674805 *  0.395377 *   0.87073    1.000000    
    155 O2    c    0.329473 *  0.100697 *  0.728479 *   0.87073    1.000000    
    156 O2    c    0.893177 *  0.229538 *  0.060377 *   0.87073    1.000000    
    157 O2    c    0.320668 *  0.232749 *  0.432274 *   0.87073    1.000000    
    158 O2    c    0.889705 *  0.668662 *  0.095587 *   0.87073    1.000000    
    159 O2    c    0.774208 *  0.092997 *  0.765461 *   0.87073    1.000000    
    160 O3    c    0.680238 *  0.765968 *  0.930276 *   1.33043    1.000000    
    161 O2    c    0.091840 *  0.324010 *  0.599202 *   0.87073    1.000000    
    162 O2    c    0.228960 *  0.907020 *  0.267721 *   0.87073    1.000000    
    163 O3    c    0.562869 *  0.543925 *  0.987996 *   1.33043    1.000000    
    164 O2    c    0.440587 *  0.021599 *  0.324310 *   0.87073    1.000000    
    165 O2    c    0.974792 *  0.415250 *  0.654814 *   0.87073    1.000000    
    166 O2    c    0.410502 *  0.443102 *  0.487113 *   0.87073    1.000000    
    167 O2    c    0.565743 *  0.978101 *  0.820845 *   0.87073    1.000000    
    168 O2    c    0.013453 *  0.584285 *  0.148711 *   0.87073    1.000000    
    169 O2    c    0.554581 *  0.584333 *  0.339062 *   0.87073    1.000000    
    170 O2    c    0.006067 *  0.433171 *  0.004972 *   0.87073    1.000000    
    171 O2    c    0.411051 *  0.972228 *  0.673243 *   0.87073    1.000000    
    172 O3    c    0.452747 *  0.406517 *  0.835268 *   1.33043    1.000000    
    173 O2    c    0.968243 *  0.557461 *  0.506213 *   0.87073    1.000000    
    174 O2    c    0.586120 *  0.031701 *  0.175422 *   0.87073    1.000000    
    175 O2    c    0.579541 *  0.161702 *  0.251571 *   0.87073    1.000000    
    176 O2    c    0.834667 *  0.417521 *  0.580904 *   0.87073    1.000000    
    177 O2    c    0.585820 *  0.425201 *  0.913583 *   0.87073    1.000000    
    178 O2    c    0.418924 *  0.839491 *  0.747079 *   0.87073    1.000000    
    179 O2    c    0.146272 *  0.578362 *  0.077058 *   0.87073    1.000000    
    180 O2    c    0.412445 *  0.580438 *  0.412710 *   0.87073    1.000000    
    181 F     c    0.447518 *  0.901165 *  0.246803 *   0.56000    1.000000    
    182 F     c    0.095195 *  0.547195 *  0.579428 *   0.56000    1.000000    
    183 F     c    0.422512 *  0.521057 *  0.902199 *   0.56000    1.000000    
    184 F     c    0.553785 *  0.098463 *  0.746504 *   0.56000    1.000000    
    185 F     c    0.850732 *  0.436444 *  0.069519 *   0.56000    1.000000    
    186 F     c    0.545426 *  0.452094 *  0.412460 *   0.56000    1.000000    
    187 O2    s    0.920324 *  0.002141 *  0.998878 *  -2.87073    1.000000    
    188 O2    s    0.997608 *  0.920177 *  0.330957 *  -2.87073    1.000000    
    189 O2    s    0.075909 *  0.075650 *  0.663248 *  -2.87073    1.000000    
    190 O2    s    0.074886 *  0.000623 *  0.497153 *  -2.87073    1.000000    
    191 O2    s    0.004857 *  0.075116 *  0.830282 *  -2.87073    1.000000    
    192 O2    s    0.923693 *  0.933700 *  0.166514 *  -2.87073    1.000000    
    193 O2    s    0.347888 *  0.581948 *  0.328586 *  -2.87073    1.000000    
    194 O2    s    0.413965 *  0.767432 *  0.663779 *  -2.87073    1.000000    
    195 O2    s    0.214870 *  0.639821 *  0.993155 *  -2.87073    1.000000    
    196 O2    s    0.663975 *  0.418408 *  0.831126 *  -2.87073    1.000000    
    197 O2    s    0.581466 *  0.234477 *  0.170094 *  -2.87073    1.000000    
    198 O2    s    0.763324 *  0.353645 *  0.497935 *  -2.87073    1.000000    
    199 O3    s    0.572000 *  0.341989 *  0.995808 *  -3.33043    1.000000    
    200 O2    s    0.769333 *  0.414540 *  0.664252 *  -2.87073    1.000000    
    201 O2    s    0.646759 *  0.230950 *  0.333956 *  -2.87073    1.000000    
    202 O2    s    0.410110 *  0.646953 *  0.496646 *  -2.87073    1.000000    
    203 O2    s    0.227107 *  0.590747 *  0.161327 *  -2.87073    1.000000    
    204 O2    s    0.355080 *  0.780617 *  0.830503 *  -2.87073    1.000000    
    205 O2    s    0.116546 *  0.213999 *  0.969463 *  -2.87073    1.000000    
    206 O2    s    0.779664 *  0.900512 *  0.301552 *  -2.87073    1.000000    
    207 O2    s    0.095379 *  0.879076 *  0.633560 *  -2.87073    1.000000    
    208 O2    s    0.876212 *  0.784346 *  0.467291 *  -2.87073    1.000000    
    209 O2    s    0.228897 *  0.109253 *  0.801335 *  -2.87073    1.000000    
    210 O2    s    0.898440 *  0.126654 *  0.134353 *  -2.87073    1.000000    
    211 O2    s    0.214501 *  0.118397 *  0.360539 *  -2.87073    1.000000    
    212 O2    s    0.900065 *  0.789440 *  0.026226 *  -2.87073    1.000000    
    213 O2    s    0.879863 *  0.095706 *  0.693060 *  -2.87073    1.000000    
    214 O2    s    0.783853 *  0.878117 *  0.857591 *  -2.87073    1.000000    
    215 O2    s    0.092530 *  0.216152 *  0.527320 *  -2.87073    1.000000    
    216 O2    s    0.117122 *  0.905701 *  0.195461 *  -2.87073    1.000000    
    217 O2    s    0.923208 *  0.853964 *  0.247719 *  -2.87073    1.000000    
    218 O2    s    0.140759 *  0.071111 *  0.580290 *  -2.87073    1.000000    
    219 O2    s    0.931679 *  0.060886 *  0.913787 *  -2.87073    1.000000    
    220 O2    s    0.072717 *  0.141558 *  0.746613 *  -2.87073    1.000000    
    221 O2    s    0.861191 *  0.935696 *  0.083065 *  -2.87073    1.000000    
    222 O2    s    0.069605 *  0.928494 *  0.414344 *  -2.87073    1.000000    
    223 O2    s    0.901205 *  0.196945 *  0.976304 *  -2.87073    1.000000    
    224 O2    s    0.790774 *  0.699618 *  0.313007 *  -2.87073    1.000000    
    225 O2    s    0.297199 *  0.092414 *  0.646056 *  -2.87073    1.000000    
    226 O2    s    0.088502 *  0.793872 *  0.479742 *  -2.87073    1.000000    
    227 O3    s    0.201387 *  0.298740 *  0.811273 *  -3.33043    1.000000    
    228 O2    s    0.700784 *  0.912520 *  0.147033 *  -2.87073    1.000000    
    229 O2    s    0.203769 *  0.905469 *  0.349812 *  -2.87073    1.000000    
    230 O3    s    0.701608 *  0.803102 *  0.018975 *  -3.33043    1.000000    
    231 O2    s    0.093594 *  0.297015 *  0.681626 *  -2.87073    1.000000    
    232 O2    s    0.803532 *  0.093677 *  0.848019 *  -2.87073    1.000000    
    233 O2    s    0.294935 *  0.208477 *  0.515138 *  -2.87073    1.000000    
    234 O2    s    0.901410 *  0.707955 *  0.178836 *  -2.87073    1.000000    
    235 O2    s    0.323570 *  0.654711 *  0.245608 *  -2.87073    1.000000    
    236 O2    s    0.343202 *  0.671290 *  0.580440 *  -2.87073    1.000000    
    237 O2    s    0.316282 *  0.664475 *  0.910780 *  -2.87073    1.000000    
    238 O2    s    0.681287 *  0.346943 *  0.747249 *  -2.87073    1.000000    
    239 O3    s    0.625045 *  0.310802 *  0.086803 *  -3.33043    1.000000    
    240 O2    s    0.670617 *  0.331016 *  0.415119 *  -2.87073    1.000000    
    241 O2    s    0.369776 *  0.331819 *  0.960828 *  -2.87073    1.000000    
    242 O2    s    0.658559 *  0.033035 *  0.301482 *  -2.87073    1.000000    
    243 O2    s    0.964392 *  0.624163 *  0.632575 *  -2.87073    1.000000    
    244 O2    s    0.620098 *  0.660876 *  0.464957 *  -2.87073    1.000000    
    245 O2    s    0.346390 *  0.974187 *  0.798286 *  -2.87073    1.000000    
    246 O2    s    0.026293 *  0.380800 *  0.128918 *  -2.87073    1.000000    
    247 O2    s    0.336039 *  0.373562 *  0.360914 *  -2.87073    1.000000    
    248 O2    s    0.018443 *  0.651694 *  0.025414 *  -2.87073    1.000000    
    249 O2    s    0.624168 *  0.965127 *  0.694839 *  -2.87073    1.000000    
    250 O2    s    0.659212 *  0.624200 *  0.860571 *  -2.87073    1.000000    
    251 O2    s    0.961570 *  0.339766 *  0.528514 *  -2.87073    1.000000    
    252 O2    s    0.372493 *  0.034894 *  0.198000 *  -2.87073    1.000000    
    253 O3    s    0.761170 *  0.286878 *  0.005718 *  -3.33043    1.000000    
    254 O2    s    0.686067 *  0.463606 *  0.344415 *  -2.87073    1.000000    
    255 O2    s    0.537777 *  0.224231 *  0.677441 *  -2.87073    1.000000    
    256 O2    s    0.220462 *  0.687722 *  0.510834 *  -2.87073    1.000000    
    257 O3    s    0.311355 *  0.551933 *  0.838012 *  -3.33043    1.000000    
    258 O2    s    0.461146 *  0.779623 *  0.176861 *  -2.87073    1.000000    
    259 O2    s    0.306198 *  0.771863 *  0.316467 *  -2.87073    1.000000    
    260 O3    s    0.449844 *  0.691154 *  0.980104 *  -3.33043    1.000000    
    261 O2    s    0.225105 *  0.534460 *  0.650020 *  -2.87073    1.000000    
    262 O2    s    0.702020 *  0.228233 *  0.816452 *  -2.87073    1.000000    
    263 O2    s    0.531673 *  0.313954 *  0.483912 *  -2.87073    1.000000    
    264 O2    s    0.764774 *  0.467566 *  0.148406 *  -2.87073    1.000000    
    265 O3    s    0.774612 *  0.546776 *  0.022341 *  -3.33043    1.000000    
    266 O2    s    0.465314 *  0.255693 *  0.361259 *  -2.87073    1.000000    
    267 O2    s    0.746783 *  0.211877 *  0.694232 *  -2.87073    1.000000    
    268 O2    s    0.208936 *  0.466908 *  0.527598 *  -2.87073    1.000000    
    269 O2    s    0.529583 *  0.742313 *  0.862437 *  -2.87073    1.000000    
    270 O2    s    0.249906 *  0.788404 *  0.195043 *  -2.87073    1.000000    
    271 O2    s    0.527890 *  0.786394 *  0.299688 *  -2.87073    1.000000    
    272 O2    s    0.255142 *  0.467105 *  0.964447 *  -2.87073    1.000000    
    273 O2    s    0.210414 *  0.742048 *  0.633204 *  -2.87073    1.000000    
    274 O2    s    0.480840 *  0.218034 *  0.800151 *  -2.87073    1.000000    
    275 O2    s    0.739587 *  0.534282 *  0.467718 *  -2.87073    1.000000    
    276 O2    s    0.781159 *  0.261500 *  0.131638 *  -2.87073    1.000000    
    277 O3    s    0.219609 *  0.318671 *  0.897699 *  -3.33043    1.000000    
    278 O2    s    0.663626 *  0.907335 *  0.230325 *  -2.87073    1.000000    
    279 O2    s    0.090384 *  0.758057 *  0.562804 *  -2.87073    1.000000    
    280 O2    s    0.756341 *  0.665188 *  0.396199 *  -2.87073    1.000000    
    281 O2    s    0.338968 *  0.100577 *  0.729326 *  -2.87073    1.000000    
    282 O2    s    0.892926 *  0.237424 *  0.061417 *  -2.87073    1.000000    
    283 O2    s    0.330320 *  0.242015 *  0.431402 *  -2.87073    1.000000    
    284 O2    s    0.889980 *  0.660415 *  0.095252 *  -2.87073    1.000000    
    285 O2    s    0.764826 *  0.093511 *  0.764596 *  -2.87073    1.000000    
    286 O3    s    0.671495 *  0.758788 *  0.928919 *  -3.33043    1.000000    
    287 O2    s    0.092107 *  0.333492 *  0.598300 *  -2.87073    1.000000    
    288 O2    s    0.238120 *  0.906526 *  0.266737 *  -2.87073    1.000000    
    289 O3    s    0.562027 *  0.544642 *  0.984941 *  -3.33043    1.000000    
    290 O2    s    0.440118 *  0.017317 *  0.320855 *  -2.87073    1.000000    
    291 O2    s    0.979383 *  0.419501 *  0.651491 *  -2.87073    1.000000    
    292 O2    s    0.414921 *  0.442668 *  0.483836 *  -2.87073    1.000000    
    293 O2    s    0.566080 *  0.983206 *  0.817447 *  -2.87073    1.000000    
    294 O2    s    0.009860 *  0.580668 *  0.145965 *  -2.87073    1.000000    
    295 O2    s    0.554806 *  0.579581 *  0.342489 *  -2.87073    1.000000    
    296 O2    s    0.003190 *  0.433990 *  0.007803 *  -2.87073    1.000000    
    297 O2    s    0.416375 *  0.977484 *  0.676601 *  -2.87073    1.000000    
    298 O3    s    0.456582 *  0.413705 *  0.839172 *  -3.33043    1.000000    
    299 O2    s    0.973648 *  0.558088 *  0.509680 *  -2.87073    1.000000    
    300 O2    s    0.581082 *  0.026196 *  0.178786 *  -2.87073    1.000000    
    301 O2    s    0.574037 *  0.150652 *  0.251419 *  -2.87073    1.000000    
    302 O2    s    0.845944 *  0.423197 *  0.580903 *  -2.87073    1.000000    
    303 O2    s    0.580059 *  0.427934 *  0.913409 *  -2.87073    1.000000    
    304 O2    s    0.424652 *  0.850835 *  0.746987 *  -2.87073    1.000000    
    305 O2    s    0.136756 *  0.573429 *  0.077267 *  -2.87073    1.000000    
    306 O2    s    0.418004 *  0.575085 *  0.412705 *  -2.87073    1.000000    
    307 F     s    0.447224 *  0.900702 *  0.246589 *  -1.56000    1.000000    
    308 F     s    0.095477 *  0.547302 *  0.579276 *  -1.56000    1.000000    
    309 F     s    0.416121 *  0.514975 *  0.899413 *  -1.56000    1.000000    
    310 F     s    0.554000 *  0.098593 *  0.746456 *  -1.56000    1.000000    
    311 F     s    0.840129 *  0.432378 *  0.067099 *  -1.56000    1.000000    
    312 F     s    0.545661 *  0.451929 *  0.412285 *  -1.56000    1.000000    
--------------------------------------------------------------------------------



********************************************************************************
*  General input information                                                   *
********************************************************************************

  Species output for all configurations : 

--------------------------------------------------------------------------------
  Species    Type    Atomic    Atomic    Charge       Radii (Angs)     Library
                     Number     Mass       (e)     Cova   Ionic  VDW   Symbol
--------------------------------------------------------------------------------
    Si       Core       14      28.09   4.000000   1.200  0.000  2.100          
    O1       Core        8      16.00   1.733957   0.730  0.000  1.360          
    O1       Shell       8       0.00  -3.733957   0.730  0.000  1.360          
    O2       Core        8      16.00   0.870733   0.730  0.000  1.360          
    O2       Shell       8       0.00  -2.870733   0.730  0.000  1.360          
    O3       Core        8      16.00   1.330431   0.730  0.000  1.360          
    O3       Shell       8       0.00  -3.330431   0.730  0.000  1.360          
    F        Core        9      19.00   0.560000   0.710  0.000  1.300          
    F        Shell       9       0.00  -1.560000   0.710  0.000  1.300          
    Ge       Core       32      72.61   4.000000   1.170  0.000  1.750          
--------------------------------------------------------------------------------


  Lattice summation method               =    Ewald          (3-D)
                                         =    Parry          (2-D)
                                         =    Saunders et al (1-D)
  Accuracy factor for lattice sums       =   12.000


  Time limit = Infinity

  Maximum range for interatomic potentials =        16.000000 Angstroms

  Taper potentials to zero over   1.0000 Angstroms using polynomial

  General interatomic potentials :

--------------------------------------------------------------------------------
Atom  Types   Potential         A         B         C         D     Cutoffs(Ang)
  1     2                                                            Min    Max 
--------------------------------------------------------------------------------
Si   c O1   s Buckingham    0.132E+04 0.318      10.1      0.00     0.000 16.000
Si   c O2   s Buckingham    0.132E+04 0.318      10.1      0.00     0.000 16.000
Si   c O3   s Buckingham    0.132E+04 0.318      10.1      0.00     0.000 16.000
Ge   c O1   s Buckingham    0.150E+04 0.326      16.8      0.00     0.000 16.000
Ge   c O2   s Buckingham    0.150E+04 0.326      16.8      0.00     0.000 16.000
Ge   c O3   s Buckingham    0.150E+04 0.326      16.8      0.00     0.000 16.000
O1   s O1   s Buckingham    0.228E+05 0.149      10.9      0.00     0.000 16.000
O1   s O2   s Buckingham    0.228E+05 0.149      10.9      0.00     0.000 16.000
O1   s O3   s Buckingham    0.228E+05 0.149      10.9      0.00     0.000 16.000
O2   s O2   s Buckingham    0.228E+05 0.149      10.9      0.00     0.000 16.000
O2   s O3   s Buckingham    0.228E+05 0.149      10.9      0.00     0.000 16.000
O3   s O3   s Buckingham    0.228E+05 0.149      10.9      0.00     0.000 16.000
Si   c F    s Buckingham     977.     0.282      0.00      0.00     0.000 16.000
Ge   c F    s Buckingham     681.     0.320      0.00      0.00     0.000 16.000
F    s F    s Buckingham     540.     0.262      0.00      0.00     0.000 16.000
O1   s F    s Buckingham    0.168E+04 0.268      0.00      0.00     0.000 16.000
O2   s F    s Buckingham    0.168E+04 0.268      0.00      0.00     0.000 16.000
O3   s F    s Buckingham    0.168E+04 0.268      0.00      0.00     0.000 16.000
O2   c O2   s Spring (c-s)   76.0      0.00      0.00      0.00     0.000  0.800
O3   c O3   s Spring (c-s)   128.      0.00      0.00      0.00     0.000  0.800
O1   c O1   s Spring (c-s)   180.      0.00      0.00      0.00     0.000  0.800
F    c F    s Spring (c-s)   33.5      0.00      0.00      0.00     0.000  0.800
--------------------------------------------------------------------------------

  General Three-body potentials :

  Harmonic form:

--------------------------------------------------------------------------------
Atom    Atom    Atom           Force Constants            Theta     Cutoffs  
  1       2       3     (eVrad**-2/eVrad**-3/eVrad**-4)   (deg)  1-2  1-3  2-3
--------------------------------------------------------------------------------
Si    c O1    s O1    s  1.261        0.0000    0.0000   109.470 0.00 0.00 0.00
                                                                 1.90 1.90 3.50
Si    c O1    s O2    s  1.261        0.0000    0.0000   109.470 0.00 0.00 0.00
                                                                 1.90 1.90 3.50
Si    c O2    s O2    s  1.261        0.0000    0.0000   109.470 0.00 0.00 0.00
                                                                 1.90 1.90 3.50
--------------------------------------------------------------------------------

********************************************************************************
*  Output for configuration   1                                                *
********************************************************************************


  Components of energy : 

--------------------------------------------------------------------------------
  Interatomic potentials     =        2064.23487511 eV
  Three-body potentials      =           0.47146064 eV
  Monopole - monopole (real) =       -6611.48759796 eV
  Monopole - monopole (recip)=       -3173.39634150 eV
  Monopole - monopole (total)=       -9784.88393946 eV
  Neutralising energy        =          -6.46423038 eV
--------------------------------------------------------------------------------
  Total lattice energy       =       -7726.64183409 eV
--------------------------------------------------------------------------------
  Total lattice energy       =         -745502.8245 kJ/(mole unit cells)
--------------------------------------------------------------------------------


  Number of variables =      939

  Maximum number of calculations  =          1000
  Maximum Hessian update interval =            10
  Maximum step size               =   1.000000000
  Maximum parameter tolerance     =   0.000010000
  Maximum function  tolerance     =   0.000010000
  Maximum gradient  tolerance     =   0.001000000
  Maximum gradient  component     =   0.010000000

  Symmetry not applied to optimisation

  Cell parameters to be optimised using strains

  Newton-Raphson optimiser to be used

  BFGS hessian update to be used

  Dumpfile to be written after every cycle

  Start of bulk optimisation :

  Cycle:      0 Energy:     -7726.641834  Gnorm:      0.001314  CPU:    1.061
  ** Hessian calculated **
  Cycle:      1 Energy:     -7726.676561  Gnorm:      0.002134  CPU:    2.976
  Cycle:      2 Energy:     -7726.676659  Gnorm:      0.000113  CPU:    4.367


  **** Optimisation achieved ****


  Final energy =   -7726.67666090 eV
  Final Gnorm  =       0.00001879

  Components of energy : 

--------------------------------------------------------------------------------
  Interatomic potentials     =        2064.56718387 eV
  Three-body potentials      =           0.47727589 eV
  Monopole - monopole (real) =       -6611.52221650 eV
  Monopole - monopole (recip)=       -3173.73398448 eV
  Monopole - monopole (total)=       -9785.25620098 eV
  Neutralising energy        =          -6.46491968 eV
--------------------------------------------------------------------------------
  Total lattice energy       =       -7726.67666090 eV
--------------------------------------------------------------------------------
  Total lattice energy       =         -745506.1847 kJ/(mole unit cells)
--------------------------------------------------------------------------------

  Final fractional coordinates of atoms :

--------------------------------------------------------------------------------
   No.  Atomic        x           y          z          Radius
        Label       (Frac)      (Frac)     (Frac)       (Angs) 
--------------------------------------------------------------------------------
     1  Ge    c     0.699600    0.375700    0.033890    0.000000
     2  Si    c     0.609167    0.317388    0.365278    0.000000
     3  Si    c     0.680986    0.302089    0.697498    0.000000
     4  Si    c     0.289360    0.619116    0.530356    0.000000
     5  Si    c     0.369184    0.682183    0.860024    0.000000
     6  Si    c     0.308620    0.698905    0.196682    0.000000
     7  Si    c     0.363120    0.691897    0.297510    0.000000
     8  Si    c     0.304425    0.615535    0.961704    0.000000
     9  Si    c     0.296507    0.678482    0.631262    0.000000
    10  Si    c     0.633906    0.305395    0.798477    0.000000
    11  Si    c     0.667185    0.377763    0.466165    0.000000
    12  Si    c     0.673431    0.311987    0.132732    0.000000
    13  Si    c     0.522386    0.406818    0.964788    0.000000
    14  Si    c     0.570555    0.102948    0.302190    0.000000
    15  Si    c     0.887967    0.473707    0.632844    0.000000
    16  Si    c     0.457547    0.578835    0.464438    0.000000
    17  Si    c     0.421879    0.900745    0.797864    0.000000
    18  Si    c     0.095924    0.527084    0.129510    0.000000
    19  Si    c     0.402490    0.520383    0.362240    0.000000
    20  Si    c     0.090149    0.573378    0.025893    0.000000
    21  Si    c     0.470109    0.893170    0.696296    0.000000
    22  Si    c     0.586670    0.470402    0.861298    0.000000
    23  Si    c     0.881313    0.417233    0.530973    0.000000
    24  Si    c     0.515516    0.105171    0.200340    0.000000
    25  Ge    c     0.312295    0.413904    0.853021    0.000000
    26  Si    c     0.587612    0.899272    0.183197    0.000000
    27  Si    c     0.088327    0.696255    0.516180    0.000000
    28  Si    c     0.683434    0.591888    0.349196    0.000000
    29  Si    c     0.400472    0.102723    0.682662    0.000000
    30  Si    c     0.879930    0.284041    0.011151    0.000000
    31  Si    c     0.387612    0.299955    0.479425    0.000000
    32  Si    c     0.880630    0.597039    0.143370    0.000000
    33  Si    c     0.706742    0.102880    0.812487    0.000000
    34  Ge    c     0.590206    0.694490    0.978697    0.000000
    35  Si    c     0.097030    0.400638    0.646970    0.000000
    36  Si    c     0.288038    0.893220    0.314420    0.000000
    37  Si    c     0.238668    0.330940    0.948213    0.000000
    38  Si    c     0.645836    0.901883    0.284429    0.000000
    39  Si    c     0.087371    0.751753    0.617174    0.000000
    40  Si    c     0.737435    0.656412    0.450081    0.000000
    41  Si    c     0.347164    0.103023    0.783687    0.000000
    42  Si    c     0.890729    0.244649    0.114995    0.000000
    43  Si    c     0.327444    0.244260    0.378241    0.000000
    44  Si    c     0.889929    0.658070    0.040706    0.000000
    45  Si    c     0.751332    0.093380    0.711377    0.000000
    46  Si    c     0.658541    0.751695    0.876257    0.000000
    47  Si    c     0.082200    0.339250    0.545586    0.000000
    48  Si    c     0.235777    0.904259    0.213468    0.000000
    49  Si    c     0.965810    0.114768    0.964384    0.000000
    50  Si    c     0.862653    0.837616    0.299078    0.000000
    51  Si    c     0.149471    0.031530    0.631733    0.000000
    52  Si    c     0.018888    0.875030    0.465631    0.000000
    53  Si    c     0.126710    0.162260    0.799112    0.000000
    54  Si    c     0.836930    0.970878    0.133386    0.000000
    55  Si    c     0.109961    0.962904    0.364483    0.000000
    56  Si    c     0.840706    0.882149    0.031986    0.000000
    57  Si    c     0.030538    0.154032    0.697272    0.000000
    58  Si    c     0.882462    0.027826    0.861993    0.000000
    59  Si    c     0.142143    0.120785    0.530657    0.000000
    60  Si    c     0.955568    0.845054    0.197551    0.000000
    61  O2    c     0.922173    0.001475    0.999982    0.000000
    62  O2    c     0.986419    0.918186    0.331605    0.000000
    63  O2    c     0.070440    0.074229    0.663814    0.000000
    64  O2    c     0.060939    0.998025    0.497825    0.000000
    65  O2    c     0.003993    0.068973    0.830290    0.000000
    66  O2    c     0.916874    0.932248    0.167710    0.000000
    67  O2    c     0.325235    0.568139    0.329015    0.000000
    68  O2    c     0.421146    0.766554    0.663930    0.000000
    69  O2    c     0.213766    0.648136    0.993550    0.000000
    70  O2    c     0.675264    0.428018    0.832343    0.000000
    71  O2    c     0.565178    0.233608    0.170545    0.000000
    72  O2    c     0.752201    0.339920    0.498970    0.000000
    73  O3    c     0.565907    0.330579    0.996509    0.000000
    74  O2    c     0.763859    0.425137    0.665277    0.000000
    75  O2    c     0.647973    0.229182    0.334611    0.000000
    76  O2    c     0.409974    0.656171    0.496671    0.000000
    77  O2    c     0.222282    0.577760    0.162157    0.000000
    78  O2    c     0.341836    0.779835    0.831091    0.000000
    79  O2    c     0.118152    0.210242    0.973294    0.000000
    80  O2    c     0.772160    0.900964    0.304592    0.000000
    81  O2    c     0.087963    0.878030    0.637119    0.000000
    82  O2    c     0.864018    0.784373    0.470178    0.000000
    83  O2    c     0.224785    0.105694    0.804676    0.000000
    84  O2    c     0.895150    0.124518    0.137787    0.000000
    85  O2    c     0.200830    0.116053    0.358014    0.000000
    86  O2    c     0.904654    0.792928    0.024528    0.000000
    87  O2    c     0.875823    0.092299    0.690537    0.000000
    88  O2    c     0.782600    0.875060    0.854643    0.000000
    89  O2    c     0.078725    0.211221    0.525570    0.000000
    90  O2    c     0.109891    0.906315    0.193196    0.000000
    91  O2    c     0.913635    0.849313    0.248412    0.000000
    92  O2    c     0.133013    0.068351    0.580883    0.000000
    93  O2    c     0.930510    0.054250    0.914241    0.000000
    94  O2    c     0.069473    0.138164    0.747594    0.000000
    95  O2    c     0.857549    0.932975    0.083570    0.000000
    96  O2    c     0.058932    0.926875    0.415073    0.000000
    97  O2    c     0.891084    0.192694    0.973365    0.000000
    98  O2    c     0.780543    0.686761    0.310595    0.000000
    99  O2    c     0.302276    0.102616    0.643741    0.000000
   100  O2    c     0.088123    0.793325    0.477875    0.000000
   101  O3    c     0.198590    0.308588    0.810424    0.000000
   102  O2    c     0.684145    0.899373    0.144506    0.000000
   103  O2    c     0.191273    0.892332    0.352890    0.000000
   104  O3    c     0.689560    0.802208    0.021072    0.000000
   105  O2    c     0.100675    0.305555    0.685101    0.000000
   106  O2    c     0.804980    0.102896    0.851257    0.000000
   107  O2    c     0.293266    0.203773    0.517955    0.000000
   108  O2    c     0.884116    0.695880    0.181775    0.000000
   109  O2    c     0.307232    0.637275    0.246113    0.000000
   110  O2    c     0.351468    0.677973    0.580596    0.000000
   111  O2    c     0.304855    0.666952    0.910590    0.000000
   112  O2    c     0.686933    0.361560    0.748059    0.000000
   113  O3    c     0.607346    0.302245    0.084637    0.000000
   114  O2    c     0.667783    0.320465    0.415793    0.000000
   115  O2    c     0.364554    0.321738    0.962746    0.000000
   116  O2    c     0.657534    0.033775    0.303931    0.000000
   117  O2    c     0.956003    0.629481    0.635585    0.000000
   118  O2    c     0.614584    0.666723    0.467227    0.000000
   119  O2    c     0.336064    0.970006    0.800741    0.000000
   120  O2    c     0.023458    0.371951    0.131426    0.000000
   121  O2    c     0.315428    0.364191    0.358914    0.000000
   122  O2    c     0.020474    0.658880    0.024487    0.000000
   123  O2    c     0.626646    0.961451    0.692755    0.000000
   124  O2    c     0.663684    0.627056    0.858577    0.000000
   125  O2    c     0.948748    0.329144    0.527113    0.000000
   126  O2    c     0.358646    0.035774    0.195679    0.000000
   127  O3    c     0.746725    0.277514    0.002512    0.000000
   128  O2    c     0.683084    0.458018    0.341623    0.000000
   129  O2    c     0.536303    0.234275    0.674773    0.000000
   130  O2    c     0.221162    0.694208    0.507911    0.000000
   131  O3    c     0.299363    0.547422    0.834228    0.000000
   132  O2    c     0.451177    0.767018    0.173887    0.000000
   133  O2    c     0.287354    0.758956    0.319904    0.000000
   134  O3    c     0.447856    0.698077    0.982522    0.000000
   135  O2    c     0.231321    0.536338    0.653466    0.000000
   136  O2    c     0.709964    0.237633    0.820337    0.000000
   137  O2    c     0.523217    0.302817    0.487461    0.000000
   138  O2    c     0.749336    0.461975    0.151202    0.000000
   139  O3    c     0.762589    0.543635    0.019019    0.000000
   140  O2    c     0.452291    0.241594    0.359128    0.000000
   141  O2    c     0.754458    0.220254    0.692037    0.000000
   142  O2    c     0.208015    0.463076    0.525433    0.000000
   143  O2    c     0.526965    0.748832    0.861475    0.000000
   144  O2    c     0.230655    0.776972    0.192647    0.000000
   145  O2    c     0.519668    0.775697    0.302839    0.000000
   146  O2    c     0.245042    0.462249    0.967049    0.000000
   147  O2    c     0.214456    0.751984    0.636223    0.000000
   148  O2    c     0.477972    0.224995    0.803504    0.000000
   149  O2    c     0.739139    0.533361    0.470608    0.000000
   150  O2    c     0.767767    0.249856    0.133690    0.000000
   151  O3    c     0.206260    0.307934    0.895410    0.000000
   152  O2    c     0.662144    0.901285    0.229836    0.000000
   153  O2    c     0.086222    0.768141    0.562595    0.000000
   154  O2    c     0.755990    0.669699    0.395539    0.000000
   155  O2    c     0.329255    0.103726    0.728960    0.000000
   156  O2    c     0.886628    0.224940    0.060612    0.000000
   157  O2    c     0.311481    0.227950    0.432676    0.000000
   158  O2    c     0.882262    0.664180    0.096115    0.000000
   159  O2    c     0.774024    0.095814    0.765876    0.000000
   160  O3    c     0.676351    0.765632    0.930519    0.000000
   161  O2    c     0.088362    0.325134    0.599999    0.000000
   162  O2    c     0.218070    0.901077    0.267922    0.000000
   163  O3    c     0.559273    0.543367    0.988457    0.000000
   164  O2    c     0.429535    0.015895    0.324507    0.000000
   165  O2    c     0.973896    0.418236    0.655699    0.000000
   166  O2    c     0.402044    0.439142    0.487453    0.000000
   167  O2    c     0.565365    0.980084    0.821198    0.000000
   168  O2    c     0.004510    0.578440    0.149200    0.000000
   169  O2    c     0.543645    0.577926    0.339309    0.000000
   170  O2    c     0.001144    0.430130    0.005370    0.000000
   171  O2    c     0.410857    0.975709    0.673648    0.000000
   172  O3    c     0.449626    0.406967    0.835607    0.000000
   173  O2    c     0.961832    0.556742    0.507095    0.000000
   174  O2    c     0.575275    0.025553    0.175658    0.000000
   175  O2    c     0.568330    0.155743    0.251668    0.000000
   176  O2    c     0.831117    0.418476    0.581940    0.000000
   177  O2    c     0.582821    0.426084    0.913945    0.000000
   178  O2    c     0.419039    0.842658    0.747327    0.000000
   179  O2    c     0.139442    0.573123    0.077835    0.000000
   180  O2    c     0.402598    0.575073    0.413020    0.000000
   181  F     c     0.435942    0.894585    0.247086    0.000000
   182  F     c     0.092407    0.549025    0.579990    0.000000
   183  F     c     0.418370    0.520950    0.902595    0.000000
   184  F     c     0.555171    0.103116    0.747010    0.000000
   185  F     c     0.847387    0.434014    0.069958    0.000000
   186  F     c     0.535704    0.446462    0.412800    0.000000
   187  O2    s     0.917670    0.000591    0.999620    0.000000
   188  O2    s     0.986262    0.914070    0.331607    0.000000
   189  O2    s     0.075010    0.078193    0.663858    0.000000
   190  O2    s     0.065236    0.997862    0.497857    0.000000
   191  O2    s     0.002762    0.073893    0.830697    0.000000
   192  O2    s     0.912316    0.926883    0.167216    0.000000
   193  O2    s     0.336932    0.576107    0.329096    0.000000
   194  O2    s     0.413211    0.770358    0.663841    0.000000
   195  O2    s     0.209801    0.636874    0.993763    0.000000
   196  O2    s     0.662340    0.419898    0.831807    0.000000
   197  O2    s     0.571288    0.228340    0.169706    0.000000
   198  O2    s     0.756519    0.351807    0.498799    0.000000
   199  O3    s     0.570644    0.342045    0.995739    0.000000
   200  O2    s     0.768316    0.417572    0.665207    0.000000
   201  O2    s     0.635946    0.224921    0.334334    0.000000
   202  O2    s     0.402710    0.644350    0.496732    0.000000
   203  O2    s     0.217493    0.584515    0.162151    0.000000
   204  O2    s     0.353049    0.781996    0.830736    0.000000
   205  O2    s     0.113737    0.212037    0.969863    0.000000
   206  O2    s     0.768549    0.894339    0.301920    0.000000
   207  O2    s     0.094368    0.881053    0.634504    0.000000
   208  O2    s     0.867303    0.780698    0.467630    0.000000
   209  O2    s     0.228145    0.111052    0.801880    0.000000
   210  O2    s     0.888590    0.120883    0.134989    0.000000
   211  O2    s     0.204219    0.112993    0.360752    0.000000
   212  O2    s     0.896388    0.788147    0.026994    0.000000
   213  O2    s     0.879178    0.098915    0.693378    0.000000
   214  O2    s     0.779973    0.878011    0.857627    0.000000
   215  O2    s     0.085791    0.214739    0.528127    0.000000
   216  O2    s     0.106386    0.899528    0.195737    0.000000
   217  O2    s     0.912685    0.847507    0.248298    0.000000
   218  O2    s     0.135895    0.070224    0.580826    0.000000
   219  O2    s     0.929239    0.058211    0.914211    0.000000
   220  O2    s     0.070977    0.142538    0.747174    0.000000
   221  O2    s     0.853313    0.931748    0.083620    0.000000
   222  O2    s     0.060279    0.925174    0.414951    0.000000
   223  O2    s     0.897932    0.194088    0.976443    0.000000
   224  O2    s     0.779484    0.693272    0.313270    0.000000
   225  O2    s     0.295937    0.095043    0.646401    0.000000
   226  O2    s     0.080741    0.792217    0.480447    0.000000
   227  O3    s     0.197935    0.298913    0.811938    0.000000
   228  O2    s     0.690375    0.906833    0.147244    0.000000
   229  O2    s     0.192722    0.899810    0.350136    0.000000
   230  O3    s     0.697334    0.802077    0.018936    0.000000
   231  O2    s     0.093079    0.299766    0.682408    0.000000
   232  O2    s     0.803119    0.095010    0.848439    0.000000
   233  O2    s     0.287001    0.204951    0.515299    0.000000
   234  O2    s     0.891351    0.701414    0.179430    0.000000
   235  O2    s     0.312987    0.649056    0.246219    0.000000
   236  O2    s     0.339586    0.672009    0.580571    0.000000
   237  O2    s     0.310904    0.663055    0.910998    0.000000
   238  O2    s     0.680884    0.349694    0.748046    0.000000
   239  O3    s     0.620145    0.307982    0.086395    0.000000
   240  O2    s     0.661620    0.326045    0.415693    0.000000
   241  O2    s     0.367060    0.331249    0.961362    0.000000
   242  O2    s     0.647380    0.027115    0.301707    0.000000
   243  O2    s     0.962779    0.626285    0.633361    0.000000
   244  O2    s     0.611336    0.656589    0.465119    0.000000
   245  O2    s     0.346331    0.976603    0.798632    0.000000
   246  O2    s     0.017206    0.374960    0.129503    0.000000
   247  O2    s     0.325560    0.367760    0.361255    0.000000
   248  O2    s     0.014623    0.649761    0.026291    0.000000
   249  O2    s     0.623588    0.968267    0.695085    0.000000
   250  O2    s     0.655377    0.624579    0.860733    0.000000
   251  O2    s     0.955734    0.339253    0.529440    0.000000
   252  O2    s     0.361834    0.029030    0.198038    0.000000
   253  O3    s     0.758085    0.284751    0.005607    0.000000
   254  O2    s     0.675568    0.457610    0.344853    0.000000
   255  O2    s     0.536853    0.227363    0.677971    0.000000
   256  O2    s     0.214187    0.686742    0.511105    0.000000
   257  O3    s     0.307602    0.552137    0.838268    0.000000
   258  O2    s     0.450776    0.773799    0.177214    0.000000
   259  O2    s     0.295179    0.766150    0.316996    0.000000
   260  O3    s     0.444990    0.689601    0.980145    0.000000
   261  O2    s     0.223976    0.536745    0.650468    0.000000
   262  O2    s     0.701792    0.230350    0.817217    0.000000
   263  O2    s     0.523774    0.310290    0.484365    0.000000
   264  O2    s     0.756004    0.461886    0.148549    0.000000
   265  O3    s     0.772440    0.545550    0.022220    0.000000
   266  O2    s     0.455134    0.249808    0.361774    0.000000
   267  O2    s     0.746346    0.215082    0.694656    0.000000
   268  O2    s     0.202804    0.465894    0.528078    0.000000
   269  O2    s     0.525429    0.742320    0.862942    0.000000
   270  O2    s     0.239338    0.782488    0.195259    0.000000
   271  O2    s     0.516938    0.780719    0.300299    0.000000
   272  O2    s     0.250735    0.465276    0.964622    0.000000
   273  O2    s     0.209033    0.744198    0.633649    0.000000
   274  O2    s     0.480269    0.220086    0.800845    0.000000
   275  O2    s     0.731322    0.530457    0.467937    0.000000
   276  O2    s     0.771981    0.255599    0.131524    0.000000
   277  O3    s     0.216722    0.317445    0.898098    0.000000
   278  O2    s     0.652569    0.901136    0.230671    0.000000
   279  O2    s     0.086556    0.758828    0.563461    0.000000
   280  O2    s     0.746411    0.660123    0.396411    0.000000
   281  O2    s     0.338661    0.103546    0.729787    0.000000
   282  O2    s     0.886396    0.232800    0.061628    0.000000
   283  O2    s     0.321144    0.237229    0.431753    0.000000
   284  O2    s     0.882799    0.656186    0.095746    0.000000
   285  O2    s     0.764580    0.096288    0.765023    0.000000
   286  O3    s     0.667562    0.758437    0.929127    0.000000
   287  O2    s     0.088614    0.334534    0.599075    0.000000
   288  O2    s     0.227267    0.900602    0.266965    0.000000
   289  O3    s     0.558486    0.544169    0.985378    0.000000
   290  O2    s     0.429066    0.011604    0.321068    0.000000
   291  O2    s     0.978378    0.422328    0.652355    0.000000
   292  O2    s     0.406486    0.438735    0.484153    0.000000
   293  O2    s     0.565606    0.985127    0.817826    0.000000
   294  O2    s     0.000900    0.574832    0.146463    0.000000
   295  O2    s     0.543907    0.573256    0.342759    0.000000
   296  O2    s     0.998386    0.430901    0.008192    0.000000
   297  O2    s     0.416089    0.980834    0.676978    0.000000
   298  O3    s     0.453489    0.414135    0.839516    0.000000
   299  O2    s     0.967237    0.557270    0.510535    0.000000
   300  O2    s     0.570285    0.020131    0.178998    0.000000
   301  O2    s     0.562923    0.144791    0.251505    0.000000
   302  O2    s     0.842303    0.424074    0.581851    0.000000
   303  O2    s     0.577122    0.428667    0.913743    0.000000
   304  O2    s     0.424618    0.853820    0.747247    0.000000
   305  O2    s     0.129891    0.568332    0.077982    0.000000
   306  O2    s     0.408204    0.569783    0.413013    0.000000
   307  F     s     0.435558    0.894019    0.246868    0.000000
   308  F     s     0.092822    0.549265    0.579827    0.000000
   309  F     s     0.411854    0.514766    0.899740    0.000000
   310  F     s     0.555564    0.103461    0.746964    0.000000
   311  F     s     0.836375    0.429883    0.067313    0.000000
   312  F     s     0.535924    0.446239    0.412622    0.000000
--------------------------------------------------------------------------------

  Final Cartesian lattice vectors (Angstroms) :

       11.947962    0.001460   -0.008554
       -6.057549   10.399176    0.003680
       -0.340952   -0.421003   29.362753


  Final cell parameters and derivatives :

--------------------------------------------------------------------------------
       a           11.947965 Angstrom     dE/de1(xx)    -0.002009 eV/strain
       b           12.034815 Angstrom     dE/de2(yy)    -0.002175 eV/strain
       c           29.367750 Angstrom     dE/de3(zz)    -0.003477 eV/strain
       alpha       90.357410 Degrees      dE/de4(yz)     0.000325 eV/strain
       beta        90.706322 Degrees      dE/de5(xz)     0.000023 eV/strain
       gamma      120.213922 Degrees      dE/de6(xy)    -0.000332 eV/strain
--------------------------------------------------------------------------------

  Primitive cell volume =          3648.517499 Angs**3

  Density of cell =      1.753614 g/cm**3

  Non-primitive cell volume =          3648.517499 Angs**3


  Final internal derivatives :

--------------------------------------------------------------------------------
   No.  Atomic          a             b             c           Radius
        Label          (eV)          (eV)          (eV)        (eV/Angs)
--------------------------------------------------------------------------------
      1 Ge    c       0.000000      0.000000      0.000000      0.000000
      2 Si    c       0.000050     -0.000016      0.000259      0.000000
      3 Si    c       0.000309     -0.000291      0.000124      0.000000
      4 Si    c       0.000923      0.000282      0.001538      0.000000
      5 Si    c      -0.000507      0.000849     -0.001250      0.000000
      6 Si    c      -0.000162     -0.000118      0.000535      0.000000
      7 Si    c      -0.000101     -0.000056     -0.000039      0.000000
      8 Si    c      -0.000183      0.000099      0.000468      0.000000
      9 Si    c       0.000403      0.000016     -0.001697      0.000000
     10 Si    c       0.000223      0.000398     -0.000180      0.000000
     11 Si    c       0.000667     -0.000509      0.000753      0.000000
     12 Si    c       0.000529      0.000456     -0.004752      0.000000
     13 Si    c       0.000680     -0.000099      0.000024      0.000000
     14 Si    c       0.000055      0.000067      0.000222      0.000000
     15 Si    c      -0.000174     -0.000330     -0.002203      0.000000
     16 Si    c      -0.000350      0.000547     -0.000116      0.000000
     17 Si    c      -0.000237     -0.000692     -0.000046      0.000000
     18 Si    c      -0.000255     -0.000044     -0.000451      0.000000
     19 Si    c      -0.000041      0.000093      0.000198      0.000000
     20 Si    c       0.000417     -0.000365      0.000243      0.000000
     21 Si    c      -0.000219      0.000111      0.000013      0.000000
     22 Si    c       0.000614     -0.000456     -0.000445      0.000000
     23 Si    c      -0.000339     -0.000045      0.003511      0.000000
     24 Si    c       0.000254      0.000111      0.000073      0.000000
     25 Ge    c      -0.000436     -0.000173     -0.000751      0.000000
     26 Si    c       0.000260     -0.000036      0.000239      0.000000
     27 Si    c      -0.000114      0.000711      0.001439      0.000000
     28 Si    c       0.000039      0.000066      0.000909      0.000000
     29 Si    c      -0.000120     -0.000024     -0.000023      0.000000
     30 Si    c      -0.001080      0.000160      0.001888      0.000000
     31 Si    c       0.000071     -0.000398     -0.000965      0.000000
     32 Si    c      -0.000076      0.000525     -0.001022      0.000000
     33 Si    c       0.000440      0.000103      0.000264      0.000000
     34 Ge    c       0.000560     -0.000346     -0.000266      0.000000
     35 Si    c       0.000051     -0.000292     -0.001504      0.000000
     36 Si    c      -0.000093     -0.000002     -0.000196      0.000000
     37 Si    c      -0.000001      0.000197     -0.000069      0.000000
     38 Si    c       0.000076      0.000008     -0.000135      0.000000
     39 Si    c       0.000055      0.000062     -0.001651      0.000000
     40 Si    c      -0.000219      0.000241     -0.001133      0.000000
     41 Si    c      -0.000451      0.000045     -0.000021      0.000000
     42 Si    c       0.000322     -0.000368      0.000202      0.000000
     43 Si    c       0.000075     -0.000153      0.000648      0.000000
     44 Si    c      -0.000382      0.000041      0.000141      0.000000
     45 Si    c      -0.000068      0.000218      0.000114      0.000000
     46 Si    c       0.000180      0.000066      0.000414      0.000000
     47 Si    c      -0.000125     -0.000220      0.002266      0.000000
     48 Si    c      -0.000220      0.000026      0.000390      0.000000
     49 Si    c       0.000046     -0.000069      0.000459      0.000000
     50 Si    c       0.000073     -0.000107      0.000131      0.000000
     51 Si    c      -0.000243      0.000405     -0.003547      0.000000
     52 Si    c      -0.000245      0.000052     -0.000172      0.000000
     53 Si    c       0.000046     -0.000187      0.000311      0.000000
     54 Si    c       0.000073      0.000142     -0.000604      0.000000
     55 Si    c      -0.000373      0.000015      0.001232      0.000000
     56 Si    c      -0.000200      0.000616     -0.000598      0.000000
     57 Si    c      -0.000003     -0.000006      0.001196      0.000000
     58 Si    c      -0.000342     -0.000052     -0.000265      0.000000
     59 Si    c      -0.000123     -0.000738      0.002339      0.000000
     60 Si    c       0.000168     -0.000185     -0.000143      0.000000
     61 O2    c      -0.000390     -0.000931      0.002127      0.000000
     62 O2    c       0.000314     -0.000069      0.000448      0.000000
     63 O2    c       0.000031     -0.000041      0.000064      0.000000
     64 O2    c       0.000560      0.000556      0.001032      0.000000
     65 O2    c       0.000236      0.000463     -0.000715      0.000000
     66 O2    c      -0.000193      0.000090     -0.000207      0.000000
     67 O2    c      -0.000018      0.000073     -0.000193      0.000000
     68 O2    c      -0.000389     -0.000126     -0.000611      0.000000
     69 O2    c       0.000011     -0.000079     -0.000073      0.000000
     70 O2    c      -0.000419      0.000213      0.000386      0.000000
     71 O2    c       0.000255     -0.000208      0.000249      0.000000
     72 O2    c      -0.000600      0.000554     -0.001336      0.000000
     73 O3    c       0.000522      0.000123     -0.001410      0.000000
     74 O2    c       0.000091     -0.000154      0.000222      0.000000
     75 O2    c      -0.000057     -0.000034     -0.000130      0.000000
     76 O2    c      -0.000158     -0.000198      0.000311      0.000000
     77 O2    c       0.000081      0.000095      0.000318      0.000000
     78 O2    c       0.000765     -0.000673      0.000765      0.000000
     79 O2    c      -0.000214     -0.000072      0.000030      0.000000
     80 O2    c      -0.000060      0.000031      0.000001      0.000000
     81 O2    c       0.000127     -0.000147     -0.000173      0.000000
     82 O2    c       0.000346      0.000101     -0.000197      0.000000
     83 O2    c      -0.000381      0.000328     -0.000297      0.000000
     84 O2    c      -0.000171      0.000194     -0.000414      0.000000
     85 O2    c      -0.000030     -0.000088      0.000128      0.000000
     86 O2    c      -0.000075     -0.000152      0.000113      0.000000
     87 O2    c       0.000153     -0.000000     -0.000009      0.000000
     88 O2    c       0.000221      0.000423      0.000429      0.000000
     89 O2    c       0.000119     -0.000093      0.000180      0.000000
     90 O2    c      -0.000078     -0.000036      0.000193      0.000000
     91 O2    c      -0.000063      0.000035      0.000084      0.000000
     92 O2    c       0.000463      0.000017      0.000982      0.000000
     93 O2    c      -0.000051      0.000110     -0.000464      0.000000
     94 O2    c      -0.000170      0.000214     -0.001305      0.000000
     95 O2    c      -0.000081     -0.000062     -0.000566      0.000000
     96 O2    c       0.000287      0.000015     -0.002240      0.000000
     97 O2    c       0.000265     -0.000374     -0.000385      0.000000
     98 O2    c       0.000019      0.000135     -0.000130      0.000000
     99 O2    c      -0.000256     -0.000027      0.000195      0.000000
    100 O2    c      -0.000030     -0.000015      0.000275      0.000000
    101 O3    c       0.000001     -0.000391     -0.000173      0.000000
    102 O2    c      -0.000013      0.000005      0.000075      0.000000
    103 O2    c      -0.000034      0.000022     -0.000073      0.000000
    104 O3    c       0.000124      0.000063     -0.000029      0.000000
    105 O2    c      -0.000099     -0.000033     -0.000087      0.000000
    106 O2    c       0.000423     -0.000456      0.000066      0.000000
    107 O2    c      -0.000187     -0.000142      0.000141      0.000000
    108 O2    c       0.000094     -0.000084     -0.000286      0.000000
    109 O2    c      -0.000040      0.000107     -0.000491      0.000000
    110 O2    c      -0.000728     -0.000065     -0.000227      0.000000
    111 O2    c       0.000208     -0.000013     -0.000921      0.000000
    112 O2    c      -0.000020     -0.000106      0.000772      0.000000
    113 O3    c       0.001467     -0.000263      0.005966      0.000000
    114 O2    c      -0.000199      0.000144      0.000270      0.000000
    115 O2    c      -0.000302      0.000171     -0.000181      0.000000
    116 O2    c      -0.000032      0.000032      0.000041      0.000000
    117 O2    c       0.000014      0.000030      0.000022      0.000000
    118 O2    c       0.000069     -0.000003     -0.000201      0.000000
    119 O2    c      -0.000067      0.000152     -0.000228      0.000000
    120 O2    c       0.000046      0.000120     -0.000058      0.000000
    121 O2    c      -0.000030      0.000009     -0.000055      0.000000
    122 O2    c      -0.000238      0.000232      0.000108      0.000000
    123 O2    c      -0.000027      0.000020      0.000033      0.000000
    124 O2    c       0.000055     -0.000038      0.000041      0.000000
    125 O2    c       0.000090     -0.000022      0.000305      0.000000
    126 O2    c      -0.000024      0.000062      0.000017      0.000000
    127 O3    c       0.000252     -0.000137      0.000770      0.000000
    128 O2    c      -0.000037      0.000010      0.000063      0.000000
    129 O2    c       0.000037     -0.000047      0.000184      0.000000
    130 O2    c      -0.000452      0.000348      0.000038      0.000000
    131 O3    c      -0.000021     -0.000063      0.000587      0.000000
    132 O2    c       0.000058     -0.000079     -0.000144      0.000000
    133 O2    c       0.000018     -0.000042     -0.000035      0.000000
    134 O3    c      -0.000010      0.000018      0.000134      0.000000
    135 O2    c      -0.000116     -0.000121      0.000158      0.000000
    136 O2    c       0.000176     -0.000245     -0.000164      0.000000
    137 O2    c      -0.000143     -0.000008     -0.000155      0.000000
    138 O2    c       0.000088      0.000138      0.000186      0.000000
    139 O3    c      -0.002080     -0.000306     -0.000312      0.000000
    140 O2    c      -0.000091      0.000028      0.000170      0.000000
    141 O2    c      -0.000362      0.000284      0.000501      0.000000
    142 O2    c      -0.000046     -0.000130     -0.000047      0.000000
    143 O2    c      -0.000155      0.000034     -0.000062      0.000000
    144 O2    c       0.000025     -0.000054      0.000141      0.000000
    145 O2    c      -0.000014     -0.000009      0.000068      0.000000
    146 O2    c       0.000207     -0.000427     -0.000113      0.000000
    147 O2    c      -0.000330      0.000186     -0.000125      0.000000
    148 O2    c      -0.000046      0.000001      0.000094      0.000000
    149 O2    c      -0.000031     -0.000196     -0.000034      0.000000
    150 O2    c      -0.000385      0.000277      0.000206      0.000000
    151 O3    c      -0.000028      0.000568     -0.000586      0.000000
    152 O2    c      -0.000141      0.000034     -0.000328      0.000000
    153 O2    c       0.000205     -0.000585      0.000231      0.000000
    154 O2    c      -0.000214     -0.000191      0.000348      0.000000
    155 O2    c       0.000072     -0.000043      0.000019      0.000000
    156 O2    c      -0.000244      0.000452     -0.003920      0.000000
    157 O2    c       0.000166      0.000104      0.000345      0.000000
    158 O2    c       0.000231     -0.000365      0.005211      0.000000
    159 O2    c      -0.000094      0.000117     -0.000043      0.000000
    160 O3    c      -0.000286     -0.000157      0.001377      0.000000
    161 O2    c      -0.000242      0.000547     -0.000756      0.000000
    162 O2    c       0.000050     -0.000013     -0.000257      0.000000
    163 O3    c       0.000157      0.000251     -0.000273      0.000000
    164 O2    c       0.000052      0.000019      0.000083      0.000000
    165 O2    c      -0.000023      0.000005     -0.000090      0.000000
    166 O2    c       0.000012      0.000008      0.000001      0.000000
    167 O2    c      -0.000015      0.000032      0.000080      0.000000
    168 O2    c      -0.000013     -0.000026     -0.000101      0.000000
    169 O2    c      -0.000001     -0.000020      0.000021      0.000000
    170 O2    c      -0.000019      0.000239     -0.000034      0.000000
    171 O2    c       0.000180     -0.000145      0.000454      0.000000
    172 O3    c       0.000019      0.000015     -0.000079      0.000000
    173 O2    c       0.000024      0.000069      0.000112      0.000000
    174 O2    c      -0.000033      0.000013      0.000153      0.000000
    175 O2    c      -0.000068     -0.000031     -0.000572      0.000000
    176 O2    c       0.000884     -0.000064     -0.001349      0.000000
    177 O2    c       0.000068     -0.000115      0.000430      0.000000
    178 O2    c      -0.000106      0.000257      0.001093      0.000000
    179 O2    c      -0.000112      0.000015     -0.000213      0.000000
    180 O2    c       0.000144     -0.000122      0.000263      0.000000
    181 F     c      -0.000019     -0.000026      0.000369      0.000000
    182 F     c       0.000224      0.000068      0.000644      0.000000
    183 F     c      -0.000126      0.000132      0.000213      0.000000
    184 F     c       0.000116      0.000025     -0.000220      0.000000
    185 F     c      -0.000383      0.000170     -0.002145      0.000000
    186 F     c      -0.000013     -0.000006     -0.000229      0.000000
    187 O2    s      -0.000013      0.000347     -0.000657      0.000000
    188 O2    s      -0.000021      0.000015      0.000179      0.000000
    189 O2    s       0.000199      0.000031     -0.000549      0.000000
    190 O2    s       0.000330     -0.000289      0.000466      0.000000
    191 O2    s      -0.000291      0.000082     -0.000107      0.000000
    192 O2    s       0.000073     -0.000012     -0.000207      0.000000
    193 O2    s      -0.000030     -0.000056      0.000131      0.000000
    194 O2    s      -0.000001      0.000026     -0.000102      0.000000
    195 O2    s      -0.000047      0.000088     -0.000106      0.000000
    196 O2    s       0.000174     -0.000123     -0.000151      0.000000
    197 O2    s      -0.000122      0.000118     -0.000524      0.000000
    198 O2    s       0.000213     -0.000032      0.000375      0.000000
    199 O3    s      -0.001331      0.000113      0.001515      0.000000
    200 O2    s       0.000014      0.000056     -0.000045      0.000000
    201 O2    s       0.000084      0.000021      0.000036      0.000000
    202 O2    s      -0.000215     -0.000002      0.000133      0.000000
    203 O2    s       0.000153     -0.000149     -0.000083      0.000000
    204 O2    s      -0.000434      0.000313     -0.000319      0.000000
    205 O2    s       0.000048      0.000117     -0.000157      0.000000
    206 O2    s       0.000030     -0.000025      0.000017      0.000000
    207 O2    s       0.000080      0.000272     -0.000617      0.000000
    208 O2    s      -0.000048     -0.000203      0.000332      0.000000
    209 O2    s       0.000014      0.000032      0.000281      0.000000
    210 O2    s       0.000313     -0.000380      0.000717      0.000000
    211 O2    s      -0.000020     -0.000159     -0.000156      0.000000
    212 O2    s       0.000133      0.000655     -0.001579      0.000000
    213 O2    s       0.000131      0.000028      0.000263      0.000000
    214 O2    s      -0.000036      0.000187     -0.000148      0.000000
    215 O2    s       0.000306     -0.000064      0.000060      0.000000
    216 O2    s       0.000047      0.000004     -0.000284      0.000000
    217 O2    s       0.000003     -0.000057      0.000092      0.000000
    218 O2    s      -0.000278     -0.000061     -0.000435      0.000000
    219 O2    s      -0.000165      0.000002     -0.000167      0.000000
    220 O2    s       0.000001     -0.000068      0.000601      0.000000
    221 O2    s       0.000313     -0.000047      0.000245      0.000000
    222 O2    s      -0.000149      0.000042      0.000308      0.000000
    223 O2    s      -0.000054      0.000045     -0.000079      0.000000
    224 O2    s      -0.000028     -0.000109      0.000139      0.000000
    225 O2    s      -0.000089     -0.000124     -0.000390      0.000000
    226 O2    s      -0.000135     -0.000052      0.000640      0.000000
    227 O3    s       0.000179     -0.000210      0.000127      0.000000
    228 O2    s      -0.000058     -0.000029      0.000280      0.000000
    229 O2    s      -0.000123      0.000154      0.000369      0.000000
    230 O3    s      -0.000122      0.000073      0.000061      0.000000
    231 O2    s       0.000010     -0.000051     -0.000391      0.000000
    232 O2    s       0.000056     -0.000264     -0.000096      0.000000
    233 O2    s      -0.000493      0.000298      0.000131      0.000000
    234 O2    s      -0.000079      0.000057     -0.000414      0.000000
    235 O2    s       0.000010     -0.000184      0.000354      0.000000
    236 O2    s       0.000092     -0.000030     -0.000186      0.000000
    237 O2    s       0.000019     -0.000010      0.000319      0.000000
    238 O2    s      -0.000155      0.000421     -0.000178      0.000000
    239 O3    s      -0.001358     -0.000265     -0.001531      0.000000
    240 O2    s       0.000106      0.000150      0.000333      0.000000
    241 O2    s      -0.000055     -0.000035      0.000131      0.000000
    242 O2    s      -0.000016      0.000013     -0.000055      0.000000
    243 O2    s       0.000134      0.000035     -0.000003      0.000000
    244 O2    s      -0.000097     -0.000079      0.000471      0.000000
    245 O2    s       0.000129      0.000073      0.000312      0.000000
    246 O2    s       0.000371     -0.000289      0.000827      0.000000
    247 O2    s       0.000004      0.000004      0.000099      0.000000
    248 O2    s       0.000527     -0.000016     -0.001533      0.000000
    249 O2    s       0.000027      0.000050      0.000145      0.000000
    250 O2    s      -0.000023     -0.000078     -0.000246      0.000000
    251 O2    s       0.000273     -0.000131     -0.000776      0.000000
    252 O2    s       0.000061     -0.000150     -0.000239      0.000000
    253 O3    s       0.000387     -0.000184     -0.000324      0.000000
    254 O2    s       0.000036     -0.000013     -0.000178      0.000000
    255 O2    s      -0.000035     -0.000023      0.000018      0.000000
    256 O2    s       0.000079     -0.000461      0.000491      0.000000
    257 O3    s       0.000166      0.000235     -0.000719      0.000000
    258 O2    s      -0.000133      0.000180      0.000055      0.000000
    259 O2    s      -0.000022     -0.000005      0.000103      0.000000
    260 O3    s       0.000018     -0.000052     -0.000164      0.000000
    261 O2    s      -0.000055      0.000160     -0.000500      0.000000
    262 O2    s      -0.000166     -0.000067      0.000086      0.000000
    263 O2    s       0.000121      0.000220      0.000167      0.000000
    264 O2    s      -0.000100      0.000106      0.000066      0.000000
    265 O3    s       0.001032      0.000882     -0.002368      0.000000
    266 O2    s      -0.000073      0.000073     -0.000184      0.000000
    267 O2    s       0.000347     -0.000086     -0.001034      0.000000
    268 O2    s      -0.000257      0.000377      0.000646      0.000000
    269 O2    s      -0.000084      0.000024     -0.000049      0.000000
    270 O2    s      -0.000042      0.000114     -0.000301      0.000000
    271 O2    s      -0.000015     -0.000072     -0.000049      0.000000
    272 O2    s       0.000014      0.000078     -0.000371      0.000000
    273 O2    s       0.000141     -0.000214     -0.000428      0.000000
    274 O2    s       0.000142     -0.000246     -0.000631      0.000000
    275 O2    s       0.000189     -0.000173      0.000127      0.000000
    276 O2    s      -0.000298     -0.000081      0.001414      0.000000
    277 O3    s       0.000307     -0.000620      0.001010      0.000000
    278 O2    s       0.000093     -0.000011      0.000102      0.000000
    279 O2    s       0.000064      0.000183     -0.000340      0.000000
    280 O2    s       0.000250      0.000070     -0.000435      0.000000
    281 O2    s       0.000054      0.000091      0.000401      0.000000
    282 O2    s       0.000044     -0.000165      0.000627      0.000000
    283 O2    s      -0.000177      0.000107     -0.000211      0.000000
    284 O2    s       0.000188      0.000335      0.000796      0.000000
    285 O2    s       0.000033     -0.000185      0.000359      0.000000
    286 O3    s       0.000167      0.000092     -0.000714      0.000000
    287 O2    s       0.000197     -0.000248      0.000073      0.000000
    288 O2    s      -0.000083      0.000017      0.000301      0.000000
    289 O3    s      -0.000468     -0.000051      0.000023      0.000000
    290 O2    s      -0.000045      0.000022     -0.000067      0.000000
    291 O2    s       0.000289     -0.000042      0.000007      0.000000
    292 O2    s      -0.000044      0.000053      0.000063      0.000000
    293 O2    s       0.000040      0.000127     -0.000312      0.000000
    294 O2    s      -0.000315      0.000309      0.000878      0.000000
    295 O2    s      -0.000025     -0.000020      0.000066      0.000000
    296 O2    s       0.000124     -0.000323     -0.000326      0.000000
    297 O2    s      -0.000115      0.000134     -0.000668      0.000000
    298 O3    s      -0.000150      0.000025      0.000289      0.000000
    299 O2    s       0.000276      0.000022     -0.000410      0.000000
    300 O2    s      -0.000052     -0.000023     -0.000222      0.000000
    301 O2    s       0.000075      0.000051      0.000155      0.000000
    302 O2    s      -0.000612      0.000043      0.000620      0.000000
    303 O2    s      -0.000186      0.000164     -0.000915      0.000000
    304 O2    s       0.000147     -0.000285     -0.000304      0.000000
    305 O2    s       0.000490      0.000079     -0.000215      0.000000
    306 O2    s      -0.000112      0.000067      0.000181      0.000000
    307 F     s       0.000033      0.000058     -0.000642      0.000000
    308 F     s      -0.000290     -0.000134     -0.001213      0.000000
    309 F     s       0.000260     -0.000117      0.000372      0.000000
    310 F     s      -0.000289     -0.000035      0.000801      0.000000
    311 F     s      -0.000839     -0.000246      0.000151      0.000000
    312 F     s      -0.000021     -0.000015      0.000524      0.000000
--------------------------------------------------------------------------------
  Maximum abs         0.002080      0.000931      0.005966      0.000000
--------------------------------------------------------------------------------


  Time to end of optimisation =       5.7598 seconds


  Peak dynamic memory used =      19.13 MB 


  Timing analysis for GULP :

--------------------------------------------------------------------------------
  Task / Subroutine                                          Time (Seconds)
--------------------------------------------------------------------------------
  Calculation of reciprocal space energy and derivatives          0.2599
  Calculation of real space energy and derivatives                4.7490
  Calculation of three-body energy and derivatives                0.5246
  Calculation of matrix inversion                                 0.1920
--------------------------------------------------------------------------------
  Total CPU time                                                  5.7598
--------------------------------------------------------------------------------


  Dump file written as out.res                                                 
  CIF file written as out.cif                                                 


  Job Finished at 03:03.59  2nd December   2016                               

