********************************************************************************
*                       GENERAL UTILITY LATTICE PROGRAM                        *
*                                 Julian Gale                                  *
*                      Nanochemistry Research Institute                        *
*                           Department of Chemistry                            *
*                    Curtin University, Western Australia                      *
********************************************************************************
* Version = 4.2.0 * Last modified =  20th January 2014                         *
********************************************************************************
*  optimise     - perform optimisation run                                     *
*  conp         - constant pressure calculation                                *
*  qok          - running with non charge neutral cell is OK                   *
********************************************************************************

  Job Started  at 02:06.42  2nd December   2016                               

  Number of CPUs =     1


  Total number of configurations input =   1

********************************************************************************
*  Input for Configuration =   1                                               *
********************************************************************************

  Formula = Ge3Si57O120F6                                               

  Number of irreducible atoms/shells =     312


  Total number atoms/shells =     312

  Dimensionality = 3               :  Bulk   


  Charge on solid   =  -6.000000 =>neutralising background added


  Cartesian lattice vectors (Angstroms) :

       11.959283    0.000000    0.000000
       -6.093659   10.391685    0.000000
       -0.327124   -0.291649   29.426697

  Cell parameters (Angstroms/Degrees):

  a =      11.9593    alpha =  90.1676
  b =      12.0466    beta  =  90.6369
  c =      29.4300    gamma = 120.3873

  Initial cell volume =        3657.064535 Angs**3

  Temperature of configuration =  0.000     K 

  Pressure of configuration =         0.000 GPa 

  Fractional coordinates of asymmetric unit :

--------------------------------------------------------------------------------
   No.  Atomic       x           y          z         Charge      Occupancy
        Label      (Frac)      (Frac)     (Frac)        (e)         (Frac)  
--------------------------------------------------------------------------------
      1 Ge    c    0.699600    0.375700    0.033890     4.00000    1.000000    
      2 Si    c    0.617422 *  0.320684 *  0.363621 *   4.00000    1.000000    
      3 Si    c    0.686206 *  0.302176 *  0.697089 *   4.00000    1.000000    
      4 Si    c    0.298162 *  0.623932 *  0.528378 *   4.00000    1.000000    
      5 Si    c    0.370300 *  0.681027 *  0.859039 *   4.00000    1.000000    
      6 Si    c    0.312432 *  0.699163 *  0.195962 *   4.00000    1.000000    
      7 Si    c    0.368410 *  0.693235 *  0.296513 *   4.00000    1.000000    
      8 Si    c    0.310636 *  0.615414 *  0.961058 *   4.00000    1.000000    
      9 Si    c    0.303115 *  0.676416 *  0.629554 *   4.00000    1.000000    
     10 Si    c    0.632587 *  0.302711 *  0.797364 *   4.00000    1.000000    
     11 Si    c    0.674200 *  0.379850 *  0.464201 *   4.00000    1.000000    
     12 Si    c    0.679517 *  0.313280 *  0.132248 *   4.00000    1.000000    
     13 Si    c    0.525018 *  0.409924 *  0.964018 *   4.00000    1.000000    
     14 Si    c    0.576729 *  0.104849 *  0.301221 *   4.00000    1.000000    
     15 Si    c    0.891845 *  0.468588 *  0.630689 *   4.00000    1.000000    
     16 Si    c    0.465610 *  0.582015 *  0.462873 *   4.00000    1.000000    
     17 Si    c    0.419255 *  0.897531 *  0.796349 *   4.00000    1.000000    
     18 Si    c    0.101130 *  0.527714 *  0.128655 *   4.00000    1.000000    
     19 Si    c    0.411723 *  0.523853 *  0.360872 *   4.00000    1.000000    
     20 Si    c    0.097987 *  0.577592 *  0.025308 *   4.00000    1.000000    
     21 Si    c    0.471428 *  0.889616 *  0.695345 *   4.00000    1.000000    
     22 Si    c    0.586729 *  0.467479 *  0.860711 *   4.00000    1.000000    
     23 Si    c    0.888236 *  0.420093 *  0.528847 *   4.00000    1.000000    
     24 Si    c    0.521237 *  0.106241 *  0.199692 *   4.00000    1.000000    
     25 Ge    c    0.313359 *  0.412489 *  0.853314 *   4.00000    1.000000    
     26 Si    c    0.592006 *  0.900220 *  0.182795 *   4.00000    1.000000    
     27 Si    c    0.096800 *  0.701249 *  0.515183 *   4.00000    1.000000    
     28 Si    c    0.693041 *  0.595995 *  0.347602 *   4.00000    1.000000    
     29 Si    c    0.406968 *  0.101896 *  0.680780 *   4.00000    1.000000    
     30 Si    c    0.884283 *  0.289470 *  0.010135 *   4.00000    1.000000    
     31 Si    c    0.394966 *  0.302466 *  0.477884 *   4.00000    1.000000    
     32 Si    c    0.887049 *  0.598487 *  0.142415 *   4.00000    1.000000    
     33 Si    c    0.703826 *  0.098826 *  0.812346 *   4.00000    1.000000    
     34 Si    c    0.592849 *  0.693765 *  0.977353 *   4.00000    1.000000    
     35 Si    c    0.102123 *  0.397399 *  0.643596 *   4.00000    1.000000    
     36 Si    c    0.293694 *  0.894225 *  0.312902 *   4.00000    1.000000    
     37 Si    c    0.239733 *  0.329704 *  0.948423 *   4.00000    1.000000    
     38 Si    c    0.651679 *  0.903824 *  0.283612 *   4.00000    1.000000    
     39 Si    c    0.092935 *  0.747392 *  0.616499 *   4.00000    1.000000    
     40 Si    c    0.745114 *  0.658474 *  0.448304 *   4.00000    1.000000    
     41 Si    c    0.345230 *  0.099795 *  0.780831 *   4.00000    1.000000    
     42 Si    c    0.895308 *  0.245413 *  0.113391 *   4.00000    1.000000    
     43 Si    c    0.335798 *  0.247157 *  0.376900 *   4.00000    1.000000    
     44 Si    c    0.895716 *  0.659141 *  0.039874 *   4.00000    1.000000    
     45 Si    c    0.751740 *  0.090977 *  0.711720 *   4.00000    1.000000    
     46 Si    c    0.656762 *  0.747834 *  0.875860 *   4.00000    1.000000    
     47 Si    c    0.089947 *  0.343175 *  0.542062 *   4.00000    1.000000    
     48 Si    c    0.240714 *  0.905277 *  0.212262 *   4.00000    1.000000    
     49 Si    c    0.965667 *  0.116298 *  0.963913 *   4.00000    1.000000    
     50 Si    c    0.870491 *  0.842438 *  0.296912 *   4.00000    1.000000    
     51 Ge    c    0.152956 *  0.029954 *  0.630373 *   4.00000    1.000000    
     52 Si    c    0.025890 *  0.877701 *  0.463262 *   4.00000    1.000000    
     53 Si    c    0.126890 *  0.161716 *  0.798863 *   4.00000    1.000000    
     54 Si    c    0.838532 *  0.969245 *  0.131124 *   4.00000    1.000000    
     55 Si    c    0.116740 *  0.965535 *  0.362170 *   4.00000    1.000000    
     56 Si    c    0.840186 *  0.877524 *  0.029867 *   4.00000    1.000000    
     57 Si    c    0.030919 *  0.153146 *  0.696994 *   4.00000    1.000000    
     58 Si    c    0.882022 *  0.026606 *  0.862032 *   4.00000    1.000000    
     59 Si    c    0.146327 *  0.124018 *  0.527347 *   4.00000    1.000000    
     60 Si    c    0.961137 *  0.847193 *  0.195347 *   4.00000    1.000000    
     61 O2    c    0.915519 *  0.999425 *  0.998458 *   0.87073    1.000000    
     62 O2    c    0.996240 *  0.925249 *  0.328250 *   0.87073    1.000000    
     63 O3    c    0.064720 *  0.067138 *  0.665774 *   1.33043    1.000000    
     64 O2    c    0.067983 *  0.003171 *  0.493524 *   0.87073    1.000000    
     65 O2    c    0.002998 *  0.067554 *  0.829863 *   0.87073    1.000000    
     66 O2    c    0.922676 *  0.931543 *  0.163679 *   0.87073    1.000000    
     67 O2    c    0.332469 *  0.569779 *  0.328002 *   0.87073    1.000000    
     68 O2    c    0.425777 *  0.763641 *  0.663065 *   0.87073    1.000000    
     69 O2    c    0.224872 *  0.652047 *  0.993821 *   0.87073    1.000000    
     70 O2    c    0.674002 *  0.424474 *  0.831413 *   0.87073    1.000000    
     71 O2    c    0.571572 *  0.235406 *  0.170182 *   0.87073    1.000000    
     72 O2    c    0.759900 *  0.342702 *  0.496721 *   0.87073    1.000000    
     73 O3    c    0.566488 *  0.335163 *  0.997301 *   1.33043    1.000000    
     74 O2    c    0.769838 *  0.423056 *  0.664014 *   0.87073    1.000000    
     75 O2    c    0.655019 *  0.231637 *  0.333144 *   0.87073    1.000000    
     76 O2    c    0.419139 *  0.660701 *  0.494770 *   0.87073    1.000000    
     77 O2    c    0.226539 *  0.577872 *  0.161623 *   0.87073    1.000000    
     78 O2    c    0.340257 *  0.776988 *  0.830171 *   0.87073    1.000000    
     79 O2    c    0.118661 *  0.208517 *  0.973688 *   0.87073    1.000000    
     80 O2    c    0.778295 *  0.903275 *  0.303478 *   0.87073    1.000000    
     81 O3    c    0.089634 *  0.867221 *  0.637996 *   1.33043    1.000000    
     82 O2    c    0.871403 *  0.785609 *  0.468810 *   0.87073    1.000000    
     83 O2    c    0.222935 *  0.102463 *  0.801916 *   0.87073    1.000000    
     84 O2    c    0.899289 *  0.123408 *  0.134770 *   0.87073    1.000000    
     85 O2    c    0.209250 *  0.119038 *  0.356769 *   0.87073    1.000000    
     86 O2    c    0.912377 *  0.796188 *  0.024340 *   0.87073    1.000000    
     87 O2    c    0.876352 *  0.092008 *  0.690863 *   0.87073    1.000000    
     88 O2    c    0.784261 *  0.872587 *  0.856548 *   0.87073    1.000000    
     89 O2    c    0.087038 *  0.217588 *  0.520433 *   0.87073    1.000000    
     90 O2    c    0.115854 *  0.908665 *  0.191802 *   0.87073    1.000000    
     91 O2    c    0.917871 *  0.854946 *  0.245667 *   0.87073    1.000000    
     92 O3    c    0.125745 *  0.067953 *  0.576825 *   1.33043    1.000000    
     93 O2    c    0.932645 *  0.058111 *  0.913670 *   0.87073    1.000000    
     94 O2    c    0.070410 *  0.144496 *  0.747869 *   0.87073    1.000000    
     95 O2    c    0.847596 *  0.925952 *  0.080903 *   0.87073    1.000000    
     96 O2    c    0.062041 *  0.924741 *  0.412071 *   0.87073    1.000000    
     97 O2    c    0.895542 *  0.198508 *  0.972316 *   0.87073    1.000000    
     98 O2    c    0.790961 *  0.691570 *  0.309083 *   0.87073    1.000000    
     99 O3    c    0.316790 *  0.106870 *  0.640676 *   1.33043    1.000000    
    100 O2    c    0.097409 *  0.799281 *  0.477103 *   0.87073    1.000000    
    101 O3    c    0.199941 *  0.307318 *  0.811204 *   1.33043    1.000000    
    102 O2    c    0.687551 *  0.898956 *  0.144250 *   0.87073    1.000000    
    103 O2    c    0.196603 *  0.893641 *  0.351026 *   0.87073    1.000000    
    104 O2    c    0.687887 *  0.789607 *  0.016956 *   0.87073    1.000000    
    105 O2    c    0.105787 *  0.302727 *  0.681679 *   0.87073    1.000000    
    106 O2    c    0.801127 *  0.097912 *  0.851121 *   0.87073    1.000000    
    107 O2    c    0.299738 *  0.206114 *  0.516477 *   0.87073    1.000000    
    108 O2    c    0.890925 *  0.697186 *  0.180793 *   0.87073    1.000000    
    109 O2    c    0.311298 *  0.638074 *  0.245453 *   0.87073    1.000000    
    110 O2    c    0.359462 *  0.680015 *  0.578817 *   0.87073    1.000000    
    111 O2    c    0.312946 *  0.670742 *  0.910713 *   0.87073    1.000000    
    112 O2    c    0.690395 *  0.360731 *  0.747487 *   0.87073    1.000000    
    113 O3    c    0.610092 *  0.301821 *  0.084613 *   1.33043    1.000000    
    114 O2    c    0.675259 *  0.322777 *  0.414034 *   0.87073    1.000000    
    115 O2    c    0.367191 *  0.325425 *  0.964382 *   0.87073    1.000000    
    116 O2    c    0.663203 *  0.035396 *  0.303059 *   0.87073    1.000000    
    117 O2    c    0.960527 *  0.623494 *  0.633469 *   0.87073    1.000000    
    118 O2    c    0.622745 *  0.669164 *  0.465538 *   0.87073    1.000000    
    119 O2    c    0.333395 *  0.966705 *  0.798509 *   0.87073    1.000000    
    120 O2    c    0.028416 *  0.372263 *  0.130076 *   0.87073    1.000000    
    121 O2    c    0.324874 *  0.367631 *  0.357654 *   0.87073    1.000000    
    122 O2    c    0.027900 *  0.662572 *  0.023618 *   0.87073    1.000000    
    123 O2    c    0.628183 *  0.958884 *  0.692775 *   0.87073    1.000000    
    124 O2    c    0.665827 *  0.624876 *  0.859155 *   0.87073    1.000000    
    125 O2    c    0.956716 *  0.333612 *  0.524116 *   0.87073    1.000000    
    126 O2    c    0.364477 *  0.036984 *  0.194700 *   0.87073    1.000000    
    127 O3    c    0.750664 *  0.282258 *  0.001626 *   1.33043    1.000000    
    128 O2    c    0.692178 *  0.461917 *  0.340046 *   0.87073    1.000000    
    129 O2    c    0.542561 *  0.234692 *  0.674290 *   0.87073    1.000000    
    130 O2    c    0.229844 *  0.699520 *  0.506652 *   0.87073    1.000000    
    131 O3    c    0.296872 *  0.544773 *  0.834754 *   1.33043    1.000000    
    132 O2    c    0.455478 *  0.767978 *  0.173520 *   0.87073    1.000000    
    133 O2    c    0.292487 *  0.759839 *  0.318857 *   0.87073    1.000000    
    134 O2    c    0.456984 *  0.691320 *  0.982045 *   0.87073    1.000000    
    135 O2    c    0.236879 *  0.532715 *  0.650630 *   0.87073    1.000000    
    136 O2    c    0.705953 *  0.233009 *  0.819676 *   0.87073    1.000000    
    137 O2    c    0.530240 *  0.304776 *  0.485823 *   0.87073    1.000000    
    138 O2    c    0.755086 *  0.463320 *  0.150286 *   0.87073    1.000000    
    139 O3    c    0.768017 *  0.545112 *  0.018769 *   1.33043    1.000000    
    140 O2    c    0.460548 *  0.244870 *  0.357632 *   0.87073    1.000000    
    141 O2    c    0.757801 *  0.219189 *  0.692642 *   0.87073    1.000000    
    142 O2    c    0.216542 *  0.468310 *  0.522704 *   0.87073    1.000000    
    143 O2    c    0.528221 *  0.745150 *  0.857684 *   0.87073    1.000000    
    144 O2    c    0.235260 *  0.777755 *  0.191780 *   0.87073    1.000000    
    145 O2    c    0.525037 *  0.777282 *  0.301875 *   0.87073    1.000000    
    146 O2    c    0.243950 *  0.461345 *  0.965560 *   0.87073    1.000000    
    147 O2    c    0.220454 *  0.748231 *  0.635195 *   0.87073    1.000000    
    148 O2    c    0.475944 *  0.222894 *  0.800308 *   0.87073    1.000000    
    149 O2    c    0.746710 *  0.535374 *  0.468747 *   0.87073    1.000000    
    150 O2    c    0.772814 *  0.250209 *  0.132864 *   0.87073    1.000000    
    151 O3    c    0.208437 *  0.304041 *  0.895871 *   1.33043    1.000000    
    152 O2    c    0.667348 *  0.903031 *  0.229139 *   0.87073    1.000000    
    153 O2    c    0.096424 *  0.771873 *  0.562021 *   0.87073    1.000000    
    154 O2    c    0.765120 *  0.673109 *  0.393893 *   0.87073    1.000000    
    155 O2    c    0.327757 *  0.098805 *  0.725921 *   0.87073    1.000000    
    156 O2    c    0.891004 *  0.228468 *  0.059100 *   0.87073    1.000000    
    157 O2    c    0.319412 *  0.230533 *  0.431237 *   0.87073    1.000000    
    158 O2    c    0.890124 *  0.666332 *  0.095240 *   0.87073    1.000000    
    159 O2    c    0.771792 *  0.091598 *  0.766137 *   0.87073    1.000000    
    160 O2    c    0.664915 *  0.759166 *  0.930706 *   0.87073    1.000000    
    161 O2    c    0.095877 *  0.324694 *  0.596309 *   0.87073    1.000000    
    162 O2    c    0.223094 *  0.901644 *  0.266604 *   0.87073    1.000000    
    163 O2    c    0.569939 *  0.552637 *  0.984060 *   0.87073    1.000000    
    164 O2    c    0.435037 *  0.017285 *  0.323259 *   0.87073    1.000000    
    165 O2    c    0.977114 *  0.411366 *  0.652448 *   0.87073    1.000000    
    166 O2    c    0.409864 *  0.441848 *  0.485787 *   0.87073    1.000000    
    167 O2    c    0.561578 *  0.976422 *  0.820424 *   0.87073    1.000000    
    168 O2    c    0.009873 *  0.578629 *  0.148499 *   0.87073    1.000000    
    169 O2    c    0.553303 *  0.582285 *  0.337929 *   0.87073    1.000000    
    170 O2    c    0.007379 *  0.435052 *  0.004577 *   0.87073    1.000000    
    171 O2    c    0.414623 *  0.973240 *  0.671928 *   0.87073    1.000000    
    172 O3    c    0.450621 *  0.406163 *  0.834838 *   1.33043    1.000000    
    173 O2    c    0.969174 *  0.561995 *  0.506332 *   0.87073    1.000000    
    174 O2    c    0.581018 *  0.027064 *  0.175009 *   0.87073    1.000000    
    175 O2    c    0.574402 *  0.157246 *  0.250732 *   0.87073    1.000000    
    176 O2    c    0.835152 *  0.415367 *  0.579780 *   0.87073    1.000000    
    177 O2    c    0.579596 *  0.418099 *  0.912867 *   0.87073    1.000000    
    178 O2    c    0.417220 *  0.838684 *  0.746153 *   0.87073    1.000000    
    179 O2    c    0.145606 *  0.575970 *  0.077235 *   0.87073    1.000000    
    180 O2    c    0.411819 *  0.578505 *  0.411471 *   0.87073    1.000000    
    181 F     c    0.441045 *  0.896032 *  0.246323 *   0.56000    1.000000    
    182 F     c    0.098842 *  0.549111 *  0.578019 *   0.56000    1.000000    
    183 F     c    0.418937 *  0.518539 *  0.901573 *   0.56000    1.000000    
    184 F     c    0.552453 *  0.098662 *  0.745641 *   0.56000    1.000000    
    185 F     c    0.849749 *  0.434034 *  0.069586 *   0.56000    1.000000    
    186 F     c    0.544790 *  0.449369 *  0.411263 *   0.56000    1.000000    
    187 O2    s    0.912353 *  0.998406 *  0.998223 *  -2.87073    1.000000    
    188 O2    s    0.995446 *  0.920354 *  0.328490 *  -2.87073    1.000000    
    189 O3    s    0.068929 *  0.073032 *  0.665952 *  -3.33043    1.000000    
    190 O2    s    0.071821 *  0.002195 *  0.493789 *  -2.87073    1.000000    
    191 O2    s    0.001914 *  0.072487 *  0.830352 *  -2.87073    1.000000    
    192 O2    s    0.917661 *  0.926451 *  0.163581 *  -2.87073    1.000000    
    193 O2    s    0.344169 *  0.577947 *  0.328039 *  -2.87073    1.000000    
    194 O2    s    0.417760 *  0.767423 *  0.662876 *  -2.87073    1.000000    
    195 O2    s    0.220332 *  0.640596 *  0.993787 *  -2.87073    1.000000    
    196 O2    s    0.661217 *  0.416506 *  0.830888 *  -2.87073    1.000000    
    197 O2    s    0.577671 *  0.230032 *  0.169275 *  -2.87073    1.000000    
    198 O2    s    0.764080 *  0.354576 *  0.496596 *  -2.87073    1.000000    
    199 O3    s    0.571669 *  0.346200 *  0.996380 *  -3.33043    1.000000    
    200 O2    s    0.773908 *  0.415270 *  0.663976 *  -2.87073    1.000000    
    201 O2    s    0.643042 *  0.227411 *  0.332899 *  -2.87073    1.000000    
    202 O2    s    0.411735 *  0.648855 *  0.494869 *  -2.87073    1.000000    
    203 O2    s    0.221823 *  0.584696 *  0.161570 *  -2.87073    1.000000    
    204 O2    s    0.351547 *  0.779232 *  0.829767 *  -2.87073    1.000000    
    205 O2    s    0.114325 *  0.210707 *  0.970196 *  -2.87073    1.000000    
    206 O2    s    0.774825 *  0.896893 *  0.300729 *  -2.87073    1.000000    
    207 O3    s    0.095154 *  0.868342 *  0.635183 *  -3.33043    1.000000    
    208 O2    s    0.874667 *  0.782141 *  0.466105 *  -2.87073    1.000000    
    209 O2    s    0.226431 *  0.108079 *  0.799361 *  -2.87073    1.000000    
    210 O2    s    0.892522 *  0.119872 *  0.132198 *  -2.87073    1.000000    
    211 O2    s    0.212474 *  0.115929 *  0.359407 *  -2.87073    1.000000    
    212 O2    s    0.902938 *  0.790998 *  0.026505 *  -2.87073    1.000000    
    213 O2    s    0.879413 *  0.098397 *  0.693716 *  -2.87073    1.000000    
    214 O2    s    0.780869 *  0.875326 *  0.859146 *  -2.87073    1.000000    
    215 O2    s    0.093526 *  0.220732 *  0.523359 *  -2.87073    1.000000    
    216 O2    s    0.112193 *  0.901724 *  0.194276 *  -2.87073    1.000000    
    217 O2    s    0.917473 *  0.852628 *  0.245667 *  -2.87073    1.000000    
    218 O3    s    0.130353 *  0.070825 *  0.576010 *  -3.33043    1.000000    
    219 O2    s    0.930774 *  0.061216 *  0.913682 *  -2.87073    1.000000    
    220 O2    s    0.071889 *  0.147312 *  0.747450 *  -2.87073    1.000000    
    221 O2    s    0.845729 *  0.925486 *  0.080918 *  -2.87073    1.000000    
    222 O2    s    0.064291 *  0.924150 *  0.412080 *  -2.87073    1.000000    
    223 O2    s    0.901897 *  0.199262 *  0.975421 *  -2.87073    1.000000    
    224 O2    s    0.789543 *  0.697990 *  0.311665 *  -2.87073    1.000000    
    225 O3    s    0.311710 *  0.100007 *  0.643598 *  -3.33043    1.000000    
    226 O2    s    0.089746 *  0.797688 *  0.479491 *  -2.87073    1.000000    
    227 O3    s    0.199275 *  0.297806 *  0.812635 *  -3.33043    1.000000    
    228 O2    s    0.693899 *  0.906607 *  0.146802 *  -2.87073    1.000000    
    229 O2    s    0.198279 *  0.901269 *  0.348248 *  -2.87073    1.000000    
    230 O2    s    0.693944 *  0.788827 *  0.014174 *  -2.87073    1.000000    
    231 O2    s    0.097728 *  0.297233 *  0.679252 *  -2.87073    1.000000    
    232 O2    s    0.799691 *  0.090528 *  0.848315 *  -2.87073    1.000000    
    233 O2    s    0.293653 *  0.207526 *  0.513653 *  -2.87073    1.000000    
    234 O2    s    0.897955 *  0.702828 *  0.178344 *  -2.87073    1.000000    
    235 O2    s    0.317138 *  0.649848 *  0.245514 *  -2.87073    1.000000    
    236 O2    s    0.347610 *  0.673962 *  0.578787 *  -2.87073    1.000000    
    237 O2    s    0.318095 *  0.665899 *  0.911101 *  -2.87073    1.000000    
    238 O2    s    0.684100 *  0.348857 *  0.747408 *  -2.87073    1.000000    
    239 O3    s    0.623145 *  0.307903 *  0.086096 *  -3.33043    1.000000    
    240 O2    s    0.669123 *  0.328448 *  0.413921 *  -2.87073    1.000000    
    241 O2    s    0.369609 *  0.334470 *  0.962622 *  -2.87073    1.000000    
    242 O2    s    0.653143 *  0.028801 *  0.300837 *  -2.87073    1.000000    
    243 O2    s    0.967260 *  0.620135 *  0.631344 *  -2.87073    1.000000    
    244 O2    s    0.619398 *  0.659033 *  0.463434 *  -2.87073    1.000000    
    245 O2    s    0.343695 *  0.973223 *  0.796422 *  -2.87073    1.000000    
    246 O2    s    0.022198 *  0.375351 *  0.128189 *  -2.87073    1.000000    
    247 O2    s    0.334888 *  0.371133 *  0.359987 *  -2.87073    1.000000    
    248 O2    s    0.022126 *  0.653299 *  0.025416 *  -2.87073    1.000000    
    249 O2    s    0.624937 *  0.965628 *  0.695049 *  -2.87073    1.000000    
    250 O2    s    0.657012 *  0.622347 *  0.861104 *  -2.87073    1.000000    
    251 O2    s    0.963642 *  0.343575 *  0.526497 *  -2.87073    1.000000    
    252 O2    s    0.367560 *  0.030176 *  0.197078 *  -2.87073    1.000000    
    253 O3    s    0.761690 *  0.289177 *  0.004747 *  -3.33043    1.000000    
    254 O2    s    0.684647 *  0.461441 *  0.343247 *  -2.87073    1.000000    
    255 O2    s    0.543225 *  0.227625 *  0.677426 *  -2.87073    1.000000    
    256 O2    s    0.223013 *  0.691961 *  0.509790 *  -2.87073    1.000000    
    257 O3    s    0.305760 *  0.550044 *  0.838628 *  -3.33043    1.000000    
    258 O2    s    0.454968 *  0.774685 *  0.176832 *  -2.87073    1.000000    
    259 O2    s    0.300381 *  0.767064 *  0.315911 *  -2.87073    1.000000    
    260 O2    s    0.456166 *  0.683790 *  0.979389 *  -2.87073    1.000000    
    261 O2    s    0.229674 *  0.533422 *  0.647674 *  -2.87073    1.000000    
    262 O2    s    0.698191 *  0.225972 *  0.816575 *  -2.87073    1.000000    
    263 O2    s    0.530814 *  0.312298 *  0.482720 *  -2.87073    1.000000    
    264 O2    s    0.761767 *  0.463098 *  0.147653 *  -2.87073    1.000000    
    265 O3    s    0.777917 *  0.547243 *  0.021976 *  -3.33043    1.000000    
    266 O2    s    0.463429 *  0.253064 *  0.360281 *  -2.87073    1.000000    
    267 O2    s    0.749408 *  0.214044 *  0.695169 *  -2.87073    1.000000    
    268 O2    s    0.211289 *  0.471032 *  0.525357 *  -2.87073    1.000000    
    269 O2    s    0.526687 *  0.738967 *  0.859801 *  -2.87073    1.000000    
    270 O2    s    0.243871 *  0.783215 *  0.194366 *  -2.87073    1.000000    
    271 O2    s    0.522417 *  0.782378 *  0.299345 *  -2.87073    1.000000    
    272 O2    s    0.250720 *  0.464786 *  0.963394 *  -2.87073    1.000000    
    273 O2    s    0.215249 *  0.740445 *  0.632582 *  -2.87073    1.000000    
    274 O2    s    0.478440 *  0.217892 *  0.797902 *  -2.87073    1.000000    
    275 O2    s    0.738804 *  0.532452 *  0.466063 *  -2.87073    1.000000    
    276 O2    s    0.777021 *  0.256092 *  0.130656 *  -2.87073    1.000000    
    277 O3    s    0.218642 *  0.313895 *  0.898618 *  -3.33043    1.000000    
    278 O2    s    0.657734 *  0.902831 *  0.229997 *  -2.87073    1.000000    
    279 O2    s    0.096156 *  0.762080 *  0.562648 *  -2.87073    1.000000    
    280 O2    s    0.755420 *  0.663446 *  0.394729 *  -2.87073    1.000000    
    281 O2    s    0.337431 *  0.099146 *  0.726949 *  -2.87073    1.000000    
    282 O2    s    0.890785 *  0.236264 *  0.060183 *  -2.87073    1.000000    
    283 O2    s    0.329044 *  0.239830 *  0.430319 *  -2.87073    1.000000    
    284 O2    s    0.890280 *  0.658110 *  0.094910 *  -2.87073    1.000000    
    285 O2    s    0.762491 *  0.092287 *  0.765267 *  -2.87073    1.000000    
    286 O2    s    0.656384 *  0.751022 *  0.929956 *  -2.87073    1.000000    
    287 O2    s    0.095941 *  0.334143 *  0.595509 *  -2.87073    1.000000    
    288 O2    s    0.232324 *  0.901261 *  0.265603 *  -2.87073    1.000000    
    289 O2    s    0.567775 *  0.554129 *  0.981237 *  -2.87073    1.000000    
    290 O2    s    0.434726 *  0.013059 *  0.319823 *  -2.87073    1.000000    
    291 O2    s    0.981864 *  0.416053 *  0.649182 *  -2.87073    1.000000    
    292 O2    s    0.414286 *  0.441531 *  0.482526 *  -2.87073    1.000000    
    293 O2    s    0.562160 *  0.981584 *  0.817045 *  -2.87073    1.000000    
    294 O2    s    0.006349 *  0.575180 *  0.145715 *  -2.87073    1.000000    
    295 O2    s    0.553497 *  0.577494 *  0.341338 *  -2.87073    1.000000    
    296 O2    s    0.004590 *  0.435793 *  0.007395 *  -2.87073    1.000000    
    297 O2    s    0.419862 *  0.978272 *  0.675305 *  -2.87073    1.000000    
    298 O3    s    0.454704 *  0.413139 *  0.838841 *  -3.33043    1.000000    
    299 O2    s    0.974616 *  0.562217 *  0.509605 *  -2.87073    1.000000    
    300 O2    s    0.575872 *  0.021528 *  0.178377 *  -2.87073    1.000000    
    301 O2    s    0.568944 *  0.146238 *  0.250602 *  -2.87073    1.000000    
    302 O2    s    0.846550 *  0.421357 *  0.579734 *  -2.87073    1.000000    
    303 O2    s    0.574777 *  0.422243 *  0.912830 *  -2.87073    1.000000    
    304 O2    s    0.422984 *  0.849891 *  0.746068 *  -2.87073    1.000000    
    305 O2    s    0.136081 *  0.571056 *  0.077346 *  -2.87073    1.000000    
    306 O2    s    0.417306 *  0.573186 *  0.411500 *  -2.87073    1.000000    
    307 F     s    0.440668 *  0.895509 *  0.246122 *  -1.56000    1.000000    
    308 F     s    0.099222 *  0.549309 *  0.577881 *  -1.56000    1.000000    
    309 F     s    0.411636 *  0.511555 *  0.898422 *  -1.56000    1.000000    
    310 F     s    0.552568 *  0.098826 *  0.745547 *  -1.56000    1.000000    
    311 F     s    0.839058 *  0.430001 *  0.067160 *  -1.56000    1.000000    
    312 F     s    0.545079 *  0.449131 *  0.411099 *  -1.56000    1.000000    
--------------------------------------------------------------------------------



********************************************************************************
*  General input information                                                   *
********************************************************************************

  Species output for all configurations : 

--------------------------------------------------------------------------------
  Species    Type    Atomic    Atomic    Charge       Radii (Angs)     Library
                     Number     Mass       (e)     Cova   Ionic  VDW   Symbol
--------------------------------------------------------------------------------
    Si       Core       14      28.09   4.000000   1.200  0.000  2.100          
    O1       Core        8      16.00   1.733957   0.730  0.000  1.360          
    O1       Shell       8       0.00  -3.733957   0.730  0.000  1.360          
    O2       Core        8      16.00   0.870733   0.730  0.000  1.360          
    O2       Shell       8       0.00  -2.870733   0.730  0.000  1.360          
    O3       Core        8      16.00   1.330431   0.730  0.000  1.360          
    O3       Shell       8       0.00  -3.330431   0.730  0.000  1.360          
    F        Core        9      19.00   0.560000   0.710  0.000  1.300          
    F        Shell       9       0.00  -1.560000   0.710  0.000  1.300          
    Ge       Core       32      72.61   4.000000   1.170  0.000  1.750          
--------------------------------------------------------------------------------


  Lattice summation method               =    Ewald          (3-D)
                                         =    Parry          (2-D)
                                         =    Saunders et al (1-D)
  Accuracy factor for lattice sums       =   12.000


  Time limit = Infinity

  Maximum range for interatomic potentials =        16.000000 Angstroms

  Taper potentials to zero over   1.0000 Angstroms using polynomial

  General interatomic potentials :

--------------------------------------------------------------------------------
Atom  Types   Potential         A         B         C         D     Cutoffs(Ang)
  1     2                                                            Min    Max 
--------------------------------------------------------------------------------
Si   c O1   s Buckingham    0.132E+04 0.318      10.1      0.00     0.000 16.000
Si   c O2   s Buckingham    0.132E+04 0.318      10.1      0.00     0.000 16.000
Si   c O3   s Buckingham    0.132E+04 0.318      10.1      0.00     0.000 16.000
Ge   c O1   s Buckingham    0.150E+04 0.326      16.8      0.00     0.000 16.000
Ge   c O2   s Buckingham    0.150E+04 0.326      16.8      0.00     0.000 16.000
Ge   c O3   s Buckingham    0.150E+04 0.326      16.8      0.00     0.000 16.000
O1   s O1   s Buckingham    0.228E+05 0.149      10.9      0.00     0.000 16.000
O1   s O2   s Buckingham    0.228E+05 0.149      10.9      0.00     0.000 16.000
O1   s O3   s Buckingham    0.228E+05 0.149      10.9      0.00     0.000 16.000
O2   s O2   s Buckingham    0.228E+05 0.149      10.9      0.00     0.000 16.000
O2   s O3   s Buckingham    0.228E+05 0.149      10.9      0.00     0.000 16.000
O3   s O3   s Buckingham    0.228E+05 0.149      10.9      0.00     0.000 16.000
Si   c F    s Buckingham     977.     0.282      0.00      0.00     0.000 16.000
Ge   c F    s Buckingham     681.     0.320      0.00      0.00     0.000 16.000
F    s F    s Buckingham     540.     0.262      0.00      0.00     0.000 16.000
O1   s F    s Buckingham    0.168E+04 0.268      0.00      0.00     0.000 16.000
O2   s F    s Buckingham    0.168E+04 0.268      0.00      0.00     0.000 16.000
O3   s F    s Buckingham    0.168E+04 0.268      0.00      0.00     0.000 16.000
O2   c O2   s Spring (c-s)   76.0      0.00      0.00      0.00     0.000  0.800
O3   c O3   s Spring (c-s)   128.      0.00      0.00      0.00     0.000  0.800
O1   c O1   s Spring (c-s)   180.      0.00      0.00      0.00     0.000  0.800
F    c F    s Spring (c-s)   33.5      0.00      0.00      0.00     0.000  0.800
--------------------------------------------------------------------------------

  General Three-body potentials :

  Harmonic form:

--------------------------------------------------------------------------------
Atom    Atom    Atom           Force Constants            Theta     Cutoffs  
  1       2       3     (eVrad**-2/eVrad**-3/eVrad**-4)   (deg)  1-2  1-3  2-3
--------------------------------------------------------------------------------
Si    c O1    s O1    s  1.261        0.0000    0.0000   109.470 0.00 0.00 0.00
                                                                 1.90 1.90 3.50
Si    c O1    s O2    s  1.261        0.0000    0.0000   109.470 0.00 0.00 0.00
                                                                 1.90 1.90 3.50
Si    c O2    s O2    s  1.261        0.0000    0.0000   109.470 0.00 0.00 0.00
                                                                 1.90 1.90 3.50
--------------------------------------------------------------------------------

********************************************************************************
*  Output for configuration   1                                                *
********************************************************************************


  Components of energy : 

--------------------------------------------------------------------------------
  Interatomic potentials     =        2063.91680308 eV
  Three-body potentials      =           0.46952016 eV
  Monopole - monopole (real) =       -6613.31928139 eV
  Monopole - monopole (recip)=       -3171.27136042 eV
  Monopole - monopole (total)=       -9784.59064181 eV
  Neutralising energy        =          -6.45987930 eV
--------------------------------------------------------------------------------
  Total lattice energy       =       -7726.66419787 eV
--------------------------------------------------------------------------------
  Total lattice energy       =         -745504.9822 kJ/(mole unit cells)
--------------------------------------------------------------------------------


  Number of variables =      939

  Maximum number of calculations  =          1000
  Maximum Hessian update interval =            10
  Maximum step size               =   1.000000000
  Maximum parameter tolerance     =   0.000010000
  Maximum function  tolerance     =   0.000010000
  Maximum gradient  tolerance     =   0.001000000
  Maximum gradient  component     =   0.010000000

  Symmetry not applied to optimisation

  Cell parameters to be optimised using strains

  Newton-Raphson optimiser to be used

  BFGS hessian update to be used

  Dumpfile to be written after every cycle

  Start of bulk optimisation :

  Cycle:      0 Energy:     -7726.664198  Gnorm:      0.009271  CPU:    1.050
  ** Hessian calculated **
  Cycle:      1 Energy:     -7726.664377  Gnorm:      0.002037  CPU:    2.629
  Cycle:      2 Energy:     -7726.664452  Gnorm:      0.003317  CPU:    4.013
  Cycle:      3 Energy:     -7726.664786  Gnorm:      0.005875  CPU:    6.061
  Cycle:      4 Energy:     -7726.665471  Gnorm:      0.005799  CPU:    8.264
  Cycle:      5 Energy:     -7726.666483  Gnorm:      0.005410  CPU:   10.313
  Cycle:      6 Energy:     -7726.667721  Gnorm:      0.005632  CPU:   12.360
  Cycle:      7 Energy:     -7726.668831  Gnorm:      0.007274  CPU:   14.076
  Cycle:      8 Energy:     -7726.669937  Gnorm:      0.008448  CPU:   15.792
  Cycle:      9 Energy:     -7726.671025  Gnorm:      0.009158  CPU:   17.176
  Cycle:     10 Energy:     -7726.672016  Gnorm:      0.008278  CPU:   18.757
  ** Hessian calculated **
  Cycle:     11 Energy:     -7726.672413  Gnorm:      0.004588  CPU:   20.992
  Cycle:     12 Energy:     -7726.672725  Gnorm:      0.005897  CPU:   22.376
  Cycle:     13 Energy:     -7726.673238  Gnorm:      0.005993  CPU:   23.907
  Cycle:     14 Energy:     -7726.673609  Gnorm:      0.005543  CPU:   25.291
  Cycle:     15 Energy:     -7726.674002  Gnorm:      0.005174  CPU:   26.675
  Cycle:     16 Energy:     -7726.674301  Gnorm:      0.004392  CPU:   28.058
  Cycle:     17 Energy:     -7726.674470  Gnorm:      0.003875  CPU:   29.588
  Cycle:     18 Energy:     -7726.674622  Gnorm:      0.003539  CPU:   30.973
  Cycle:     19 Energy:     -7726.674791  Gnorm:      0.004507  CPU:   32.357
  Cycle:     20 Energy:     -7726.674968  Gnorm:      0.003682  CPU:   33.741
  ** Hessian calculated **
  Cycle:     21 Energy:     -7726.675811  Gnorm:      0.003627  CPU:   37.467
  Cycle:     22 Energy:     -7726.677127  Gnorm:      0.003539  CPU:   39.847
  Cycle:     23 Energy:     -7726.678752  Gnorm:      0.003428  CPU:   41.894
  Cycle:     24 Energy:     -7726.681416  Gnorm:      0.003236  CPU:   44.274
  Cycle:     25 Energy:     -7726.684643  Gnorm:      0.002988  CPU:   46.322
  Cycle:     26 Energy:     -7726.689613  Gnorm:      0.002559  CPU:   48.701
  Cycle:     27 Energy:     -7726.694921  Gnorm:      0.002005  CPU:   50.749
  Cycle:     28 Energy:     -7726.700226  Gnorm:      0.001240  CPU:   52.796
  Cycle:     29 Energy:     -7726.703065  Gnorm:      0.000479  CPU:   54.512
  Cycle:     30 Energy:     -7726.703241  Gnorm:      0.000070  CPU:   55.896
  ** Hessian calculated **
  Cycle:     31 Energy:     -7726.703241  Gnorm:      0.000038  CPU:   58.132


  **** Optimisation achieved ****


  Final energy =   -7726.70324069 eV
  Final Gnorm  =       0.00002056

  Components of energy : 

--------------------------------------------------------------------------------
  Interatomic potentials     =        2063.94447648 eV
  Three-body potentials      =           0.47175964 eV
  Monopole - monopole (real) =       -6613.95561333 eV
  Monopole - monopole (recip)=       -3170.70513517 eV
  Monopole - monopole (total)=       -9784.66074850 eV
  Neutralising energy        =          -6.45872831 eV
--------------------------------------------------------------------------------
  Total lattice energy       =       -7726.70324069 eV
--------------------------------------------------------------------------------
  Total lattice energy       =         -745508.7493 kJ/(mole unit cells)
--------------------------------------------------------------------------------

  Final fractional coordinates of atoms :

--------------------------------------------------------------------------------
   No.  Atomic        x           y          z          Radius
        Label       (Frac)      (Frac)     (Frac)       (Angs) 
--------------------------------------------------------------------------------
     1  Ge    c     0.699600    0.375700    0.033890    0.000000
     2  Si    c     0.602152    0.313056    0.364945    0.000000
     3  Si    c     0.674870    0.294633    0.698637    0.000000
     4  Si    c     0.284494    0.615363    0.530522    0.000000
     5  Si    c     0.359845    0.674417    0.860632    0.000000
     6  Si    c     0.301988    0.693760    0.197677    0.000000
     7  Si    c     0.357545    0.688228    0.298431    0.000000
     8  Si    c     0.303424    0.609533    0.962819    0.000000
     9  Si    c     0.291280    0.668641    0.631813    0.000000
    10  Si    c     0.623650    0.297176    0.798960    0.000000
    11  Si    c     0.660704    0.372797    0.465725    0.000000
    12  Si    c     0.669090    0.306608    0.132223    0.000000
    13  Si    c     0.519902    0.406568    0.964955    0.000000
    14  Si    c     0.565410    0.099709    0.301878    0.000000
    15  Si    c     0.880202    0.460968    0.632495    0.000000
    16  Si    c     0.451697    0.574234    0.464874    0.000000
    17  Si    c     0.410466    0.892330    0.798645    0.000000
    18  Si    c     0.090882    0.520653    0.130581    0.000000
    19  Si    c     0.396039    0.515651    0.362854    0.000000
    20  Si    c     0.091442    0.572088    0.027115    0.000000
    21  Si    c     0.460611    0.882869    0.697433    0.000000
    22  Si    c     0.577999    0.463316    0.861348    0.000000
    23  Si    c     0.875263    0.412221    0.530522    0.000000
    24  Si    c     0.509653    0.100248    0.200051    0.000000
    25  Ge    c     0.303893    0.406756    0.854334    0.000000
    26  Si    c     0.580873    0.894413    0.183904    0.000000
    27  Si    c     0.083630    0.693212    0.517247    0.000000
    28  Si    c     0.676833    0.587946    0.349108    0.000000
    29  Si    c     0.395348    0.094507    0.682708    0.000000
    30  Si    c     0.878925    0.284050    0.011006    0.000000
    31  Si    c     0.381700    0.295457    0.479666    0.000000
    32  Si    c     0.876806    0.591446    0.143641    0.000000
    33  Si    c     0.695254    0.094177    0.814417    0.000000
    34  Si    c     0.586472    0.689548    0.978399    0.000000
    35  Si    c     0.090496    0.389962    0.645689    0.000000
    36  Si    c     0.283011    0.889384    0.314240    0.000000
    37  Si    c     0.233926    0.324878    0.949742    0.000000
    38  Si    c     0.640430    0.898825    0.284961    0.000000
    39  Si    c     0.080925    0.739424    0.618700    0.000000
    40  Si    c     0.731099    0.651184    0.449894    0.000000
    41  Si    c     0.336196    0.094143    0.782996    0.000000
    42  Si    c     0.885673    0.238987    0.114630    0.000000
    43  Si    c     0.320575    0.239577    0.378638    0.000000
    44  Si    c     0.892005    0.657288    0.041162    0.000000
    45  Si    c     0.741034    0.084550    0.713641    0.000000
    46  Si    c     0.647096    0.742589    0.876637    0.000000
    47  Si    c     0.076648    0.334848    0.544025    0.000000
    48  Si    c     0.229437    0.899078    0.213429    0.000000
    49  Si    c     0.960232    0.110896    0.965221    0.000000
    50  Si    c     0.856321    0.833566    0.298388    0.000000
    51  Ge    c     0.140541    0.021521    0.632010    0.000000
    52  Si    c     0.012759    0.869603    0.464908    0.000000
    53  Si    c     0.117353    0.155041    0.800377    0.000000
    54  Si    c     0.827748    0.962946    0.132755    0.000000
    55  Si    c     0.103812    0.957416    0.363773    0.000000
    56  Si    c     0.834327    0.873831    0.031478    0.000000
    57  Si    c     0.019650    0.145422    0.698564    0.000000
    58  Si    c     0.873118    0.020791    0.863538    0.000000
    59  Si    c     0.133484    0.116044    0.528943    0.000000
    60  Si    c     0.948658    0.838921    0.196963    0.000000
    61  O2    c     0.911281    0.996479    0.000688    0.000000
    62  O2    c     0.982382    0.914149    0.329903    0.000000
    63  O3    c     0.051429    0.059609    0.666473    0.000000
    64  O2    c     0.055405    0.996128    0.494610    0.000000
    65  O2    c     0.993510    0.061308    0.831281    0.000000
    66  O2    c     0.910265    0.924230    0.165788    0.000000
    67  O2    c     0.319119    0.564364    0.329939    0.000000
    68  O2    c     0.414346    0.756530    0.665276    0.000000
    69  O2    c     0.218763    0.646141    0.996019    0.000000
    70  O2    c     0.665370    0.420205    0.832335    0.000000
    71  O2    c     0.559827    0.227972    0.169757    0.000000
    72  O2    c     0.746881    0.335748    0.498171    0.000000
    73  O3    c     0.564696    0.333585    0.997517    0.000000
    74  O2    c     0.757900    0.415203    0.665518    0.000000
    75  O2    c     0.641586    0.226247    0.334096    0.000000
    76  O2    c     0.405328    0.652480    0.496921    0.000000
    77  O2    c     0.216051    0.571304    0.163792    0.000000
    78  O2    c     0.330650    0.771685    0.832249    0.000000
    79  O2    c     0.113228    0.203189    0.974828    0.000000
    80  O2    c     0.767081    0.897729    0.304718    0.000000
    81  O3    c     0.078059    0.859324    0.640225    0.000000
    82  O2    c     0.858104    0.778183    0.470226    0.000000
    83  O2    c     0.214381    0.097150    0.804211    0.000000
    84  O2    c     0.888863    0.116977    0.136293    0.000000
    85  O2    c     0.193668    0.111185    0.358668    0.000000
    86  O2    c     0.908449    0.794269    0.026242    0.000000
    87  O2    c     0.865152    0.084901    0.692860    0.000000
    88  O2    c     0.773869    0.867542    0.857301    0.000000
    89  O2    c     0.073200    0.208876    0.522622    0.000000
    90  O2    c     0.103398    0.901138    0.193322    0.000000
    91  O2    c     0.903987    0.844189    0.247272    0.000000
    92  O3    c     0.113669    0.057808    0.578070    0.000000
    93  O2    c     0.924683    0.049992    0.915279    0.000000
    94  O2    c     0.061107    0.135164    0.749118    0.000000
    95  O2    c     0.838588    0.920066    0.082640    0.000000
    96  O2    c     0.049582    0.914927    0.413603    0.000000
    97  O2    c     0.890199    0.193217    0.973293    0.000000
    98  O2    c     0.773713    0.682994    0.310416    0.000000
    99  O3    c     0.304291    0.098923    0.642693    0.000000
   100  O2    c     0.083824    0.791240    0.479295    0.000000
   101  O3    c     0.189441    0.300771    0.812408    0.000000
   102  O2    c     0.676525    0.893342    0.145406    0.000000
   103  O2    c     0.186685    0.889014    0.352500    0.000000
   104  O2    c     0.682754    0.786065    0.017720    0.000000
   105  O2    c     0.094357    0.295245    0.683743    0.000000
   106  O2    c     0.793440    0.093678    0.853141    0.000000
   107  O2    c     0.286832    0.199265    0.518275    0.000000
   108  O2    c     0.879074    0.689437    0.181944    0.000000
   109  O2    c     0.301053    0.633287    0.247255    0.000000
   110  O2    c     0.346628    0.671580    0.580988    0.000000
   111  O2    c     0.303835    0.664285    0.912483    0.000000
   112  O2    c     0.680495    0.354149    0.748963    0.000000
   113  O3    c     0.605073    0.298882    0.083991    0.000000
   114  O2    c     0.660538    0.315595    0.415432    0.000000
   115  O2    c     0.361991    0.321756    0.965752    0.000000
   116  O2    c     0.652506    0.030919    0.304089    0.000000
   117  O2    c     0.948589    0.615648    0.635497    0.000000
   118  O2    c     0.608940    0.661755    0.467336    0.000000
   119  O2    c     0.324905    0.961636    0.800817    0.000000
   120  O2    c     0.018187    0.365421    0.132040    0.000000
   121  O2    c     0.308572    0.359519    0.359395    0.000000
   122  O2    c     0.023633    0.659217    0.025421    0.000000
   123  O2    c     0.617292    0.952248    0.694861    0.000000
   124  O2    c     0.656917    0.620479    0.859700    0.000000
   125  O2    c     0.943439    0.325525    0.525907    0.000000
   126  O2    c     0.352614    0.030583    0.195486    0.000000
   127  O3    c     0.746491    0.278841    0.001987    0.000000
   128  O2    c     0.675969    0.454162    0.341544    0.000000
   129  O2    c     0.530819    0.226984    0.675958    0.000000
   130  O2    c     0.216357    0.691094    0.508731    0.000000
   131  O3    c     0.285504    0.538295    0.836250    0.000000
   132  O2    c     0.444445    0.761987    0.174913    0.000000
   133  O2    c     0.282221    0.755529    0.320488    0.000000
   134  O2    c     0.450280    0.686128    0.983515    0.000000
   135  O2    c     0.225412    0.525100    0.652855    0.000000
   136  O2    c     0.697497    0.228304    0.821680    0.000000
   137  O2    c     0.517134    0.297888    0.487485    0.000000
   138  O2    c     0.744873    0.456291    0.150853    0.000000
   139  O3    c     0.765814    0.543669    0.018814    0.000000
   140  O2    c     0.445134    0.237293    0.359204    0.000000
   141  O2    c     0.746659    0.211956    0.694066    0.000000
   142  O2    c     0.202954    0.459856    0.524640    0.000000
   143  O2    c     0.517644    0.738487    0.858646    0.000000
   144  O2    c     0.224257    0.771716    0.193080    0.000000
   145  O2    c     0.514265    0.772783    0.303687    0.000000
   146  O2    c     0.237233    0.455665    0.967187    0.000000
   147  O2    c     0.208392    0.740051    0.637476    0.000000
   148  O2    c     0.467098    0.217432    0.802311    0.000000
   149  O2    c     0.733001    0.528148    0.470145    0.000000
   150  O2    c     0.762596    0.243685    0.133264    0.000000
   151  O3    c     0.201039    0.298385    0.897194    0.000000
   152  O2    c     0.656148    0.897792    0.230465    0.000000
   153  O2    c     0.083830    0.763695    0.564187    0.000000
   154  O2    c     0.749407    0.665288    0.395402    0.000000
   155  O2    c     0.317496    0.092127    0.728045    0.000000
   156  O2    c     0.883870    0.223152    0.060246    0.000000
   157  O2    c     0.305122    0.223394    0.433038    0.000000
   158  O2    c     0.881814    0.660412    0.096455    0.000000
   159  O2    c     0.762631    0.086807    0.768111    0.000000
   160  O2    c     0.656443    0.754491    0.931509    0.000000
   161  O2    c     0.083391    0.317052    0.598337    0.000000
   162  O2    c     0.212230    0.896164    0.267801    0.000000
   163  O2    c     0.564655    0.549114    0.985141    0.000000
   164  O2    c     0.424353    0.012636    0.324167    0.000000
   165  O2    c     0.965823    0.404334    0.654501    0.000000
   166  O2    c     0.396780    0.434588    0.487932    0.000000
   167  O2    c     0.553177    0.971730    0.822639    0.000000
   168  O2    c     0.999502    0.571572    0.150150    0.000000
   169  O2    c     0.536817    0.573556    0.339574    0.000000
   170  O2    c     0.001066    0.430228    0.005780    0.000000
   171  O2    c     0.403313    0.966111    0.674049    0.000000
   172  O3    c     0.441531    0.402117    0.835451    0.000000
   173  O2    c     0.956090    0.554097    0.508209    0.000000
   174  O2    c     0.569023    0.020456    0.175764    0.000000
   175  O2    c     0.563200    0.151717    0.251199    0.000000
   176  O2    c     0.823047    0.407680    0.581533    0.000000
   177  O2    c     0.572123    0.414808    0.913477    0.000000
   178  O2    c     0.407820    0.833266    0.748419    0.000000
   179  O2    c     0.136685    0.568586    0.079254    0.000000
   180  O2    c     0.396327    0.569989    0.413544    0.000000
   181  F     c     0.430204    0.890718    0.247492    0.000000
   182  F     c     0.086529    0.541161    0.580036    0.000000
   183  F     c     0.410205    0.513286    0.902614    0.000000
   184  F     c     0.543510    0.093567    0.747705    0.000000
   185  F     c     0.845901    0.431188    0.070399    0.000000
   186  F     c     0.528781    0.441639    0.413009    0.000000
   187  O2    s     0.907738    0.995042    0.000273    0.000000
   188  O2    s     0.981678    0.909855    0.330118    0.000000
   189  O3    s     0.055968    0.065391    0.666835    0.000000
   190  O2    s     0.059114    0.994898    0.494986    0.000000
   191  O2    s     0.992498    0.066279    0.831789    0.000000
   192  O2    s     0.905392    0.919150    0.165570    0.000000
   193  O2    s     0.330846    0.572274    0.329983    0.000000
   194  O2    s     0.406364    0.760273    0.665083    0.000000
   195  O2    s     0.214045    0.634709    0.995905    0.000000
   196  O2    s     0.652514    0.412090    0.831846    0.000000
   197  O2    s     0.565970    0.222789    0.169005    0.000000
   198  O2    s     0.751018    0.347495    0.498076    0.000000
   199  O3    s     0.569407    0.344641    0.996542    0.000000
   200  O2    s     0.762086    0.407463    0.665508    0.000000
   201  O2    s     0.629652    0.221817    0.333858    0.000000
   202  O2    s     0.397956    0.640643    0.496996    0.000000
   203  O2    s     0.211322    0.578192    0.163660    0.000000
   204  O2    s     0.341931    0.773787    0.831817    0.000000
   205  O2    s     0.108763    0.205348    0.971373    0.000000
   206  O2    s     0.763312    0.891081    0.302018    0.000000
   207  O3    s     0.083457    0.860395    0.637383    0.000000
   208  O2    s     0.861286    0.774651    0.467570    0.000000
   209  O2    s     0.217722    0.102597    0.801574    0.000000
   210  O2    s     0.882132    0.113435    0.133709    0.000000
   211  O2    s     0.197191    0.108072    0.361239    0.000000
   212  O2    s     0.898863    0.788717    0.028321    0.000000
   213  O2    s     0.868298    0.091324    0.695668    0.000000
   214  O2    s     0.770723    0.870219    0.859974    0.000000
   215  O2    s     0.079851    0.212139    0.525455    0.000000
   216  O2    s     0.099871    0.894269    0.195762    0.000000
   217  O2    s     0.903750    0.842405    0.247260    0.000000
   218  O3    s     0.118164    0.061074    0.577314    0.000000
   219  O2    s     0.923032    0.053682    0.915271    0.000000
   220  O2    s     0.062343    0.138486    0.748765    0.000000
   221  O2    s     0.836858    0.919778    0.082615    0.000000
   222  O2    s     0.051695    0.914726    0.413635    0.000000
   223  O2    s     0.896562    0.194070    0.976451    0.000000
   224  O2    s     0.772731    0.689452    0.313043    0.000000
   225  O3    s     0.299313    0.092071    0.645598    0.000000
   226  O2    s     0.076237    0.789633    0.481618    0.000000
   227  O3    s     0.188946    0.291325    0.813851    0.000000
   228  O2    s     0.682876    0.900871    0.147989    0.000000
   229  O2    s     0.187956    0.896268    0.349707    0.000000
   230  O2    s     0.688702    0.785235    0.015056    0.000000
   231  O2    s     0.086309    0.289745    0.681278    0.000000
   232  O2    s     0.791805    0.086110    0.850301    0.000000
   233  O2    s     0.280707    0.200530    0.515430    0.000000
   234  O2    s     0.886227    0.695111    0.179548    0.000000
   235  O2    s     0.306847    0.645038    0.247324    0.000000
   236  O2    s     0.334800    0.665597    0.580976    0.000000
   237  O2    s     0.309071    0.659495    0.912847    0.000000
   238  O2    s     0.674116    0.342217    0.748907    0.000000
   239  O3    s     0.617825    0.304594    0.085861    0.000000
   240  O2    s     0.654477    0.321213    0.415331    0.000000
   241  O2    s     0.364223    0.330648    0.963935    0.000000
   242  O2    s     0.642368    0.024243    0.301871    0.000000
   243  O2    s     0.955378    0.612337    0.633370    0.000000
   244  O2    s     0.605605    0.651638    0.465233    0.000000
   245  O2    s     0.335132    0.968107    0.798712    0.000000
   246  O2    s     0.012037    0.368542    0.130076    0.000000
   247  O2    s     0.318724    0.363089    0.361734    0.000000
   248  O2    s     0.017611    0.649952    0.027173    0.000000
   249  O2    s     0.614036    0.958972    0.697118    0.000000
   250  O2    s     0.648034    0.617902    0.861679    0.000000
   251  O2    s     0.950362    0.335461    0.528287    0.000000
   252  O2    s     0.355792    0.023899    0.197845    0.000000
   253  O3    s     0.757711    0.285843    0.005146    0.000000
   254  O2    s     0.668518    0.453683    0.344744    0.000000
   255  O2    s     0.531525    0.219963    0.679106    0.000000
   256  O2    s     0.209526    0.683577    0.511874    0.000000
   257  O3    s     0.294597    0.543618    0.840088    0.000000
   258  O2    s     0.444041    0.768814    0.178224    0.000000
   259  O2    s     0.290024    0.762649    0.317533    0.000000
   260  O2    s     0.449446    0.678634    0.980845    0.000000
   261  O2    s     0.218177    0.525826    0.649897    0.000000
   262  O2    s     0.689687    0.221174    0.818551    0.000000
   263  O2    s     0.517663    0.305370    0.484378    0.000000
   264  O2    s     0.751678    0.456317    0.148256    0.000000
   265  O3    s     0.775516    0.545517    0.022152    0.000000
   266  O2    s     0.448094    0.245478    0.361839    0.000000
   267  O2    s     0.738303    0.206842    0.696654    0.000000
   268  O2    s     0.197710    0.462540    0.527313    0.000000
   269  O2    s     0.516275    0.732481    0.860807    0.000000
   270  O2    s     0.232878    0.777255    0.195688    0.000000
   271  O2    s     0.511544    0.777717    0.301126    0.000000
   272  O2    s     0.244039    0.459162    0.965002    0.000000
   273  O2    s     0.203224    0.732340    0.634856    0.000000
   274  O2    s     0.469520    0.212381    0.799883    0.000000
   275  O2    s     0.725086    0.525217    0.467496    0.000000
   276  O2    s     0.766949    0.249508    0.131106    0.000000
   277  O3    s     0.211272    0.308317    0.899896    0.000000
   278  O2    s     0.646524    0.897550    0.231303    0.000000
   279  O2    s     0.083567    0.753932    0.564808    0.000000
   280  O2    s     0.739837    0.655664    0.396261    0.000000
   281  O2    s     0.327184    0.092507    0.729050    0.000000
   282  O2    s     0.883573    0.230824    0.061291    0.000000
   283  O2    s     0.314757    0.232649    0.432094    0.000000
   284  O2    s     0.882241    0.652508    0.096082    0.000000
   285  O2    s     0.753230    0.087324    0.767249    0.000000
   286  O2    s     0.647989    0.746315    0.930795    0.000000
   287  O2    s     0.083456    0.326447    0.597526    0.000000
   288  O2    s     0.221463    0.895772    0.266826    0.000000
   289  O2    s     0.562418    0.550669    0.982309    0.000000
   290  O2    s     0.423946    0.008305    0.320736    0.000000
   291  O2    s     0.970505    0.408896    0.651219    0.000000
   292  O2    s     0.401099    0.434235    0.484611    0.000000
   293  O2    s     0.553663    0.976800    0.819259    0.000000
   294  O2    s     0.996004    0.568143    0.147352    0.000000
   295  O2    s     0.537177    0.568907    0.343016    0.000000
   296  O2    s     0.998395    0.430880    0.008623    0.000000
   297  O2    s     0.408562    0.971141    0.677399    0.000000
   298  O3    s     0.445554    0.408929    0.839470    0.000000
   299  O2    s     0.961521    0.554288    0.511483    0.000000
   300  O2    s     0.564010    0.015077    0.179137    0.000000
   301  O2    s     0.557739    0.140783    0.251084    0.000000
   302  O2    s     0.834413    0.413648    0.581467    0.000000
   303  O2    s     0.567378    0.418897    0.913435    0.000000
   304  O2    s     0.413514    0.844368    0.748305    0.000000
   305  O2    s     0.127244    0.563918    0.079304    0.000000
   306  O2    s     0.401966    0.564778    0.413546    0.000000
   307  F     s     0.429841    0.890190    0.247285    0.000000
   308  F     s     0.086931    0.541369    0.579894    0.000000
   309  F     s     0.402875    0.506327    0.899485    0.000000
   310  F     s     0.543716    0.093829    0.747622    0.000000
   311  F     s     0.834907    0.427201    0.067709    0.000000
   312  F     s     0.528949    0.441411    0.412851    0.000000
--------------------------------------------------------------------------------

  Final Cartesian lattice vectors (Angstroms) :

       11.962342   -0.004388   -0.018300
       -6.099031   10.406745    0.002500
       -0.372128   -0.311213   29.399402


  Final cell parameters and derivatives :

--------------------------------------------------------------------------------
       a           11.962356 Angstrom     dE/de1(xx)    -0.001256 eV/strain
       b           12.062277 Angstrom     dE/de2(yy)    -0.001882 eV/strain
       c           29.403404 Angstrom     dE/de3(zz)    -0.001680 eV/strain
       alpha       90.144680 Degrees      dE/de4(yz)    -0.000160 eV/strain
       beta        90.812574 Degrees      dE/de5(xz)    -0.000110 eV/strain
       gamma      120.394083 Degrees      dE/de6(xy)     0.000253 eV/strain
--------------------------------------------------------------------------------

  Primitive cell volume =          3659.020023 Angs**3

  Density of cell =      1.748581 g/cm**3

  Non-primitive cell volume =          3659.020023 Angs**3


  Final internal derivatives :

--------------------------------------------------------------------------------
   No.  Atomic          a             b             c           Radius
        Label          (eV)          (eV)          (eV)        (eV/Angs)
--------------------------------------------------------------------------------
      1 Ge    c       0.000000      0.000000      0.000000      0.000000
      2 Si    c      -0.000105      0.000268      0.000924      0.000000
      3 Si    c      -0.000022      0.000281     -0.000667      0.000000
      4 Si    c       0.000223     -0.000159     -0.000026      0.000000
      5 Si    c      -0.000078      0.000085      0.000225      0.000000
      6 Si    c       0.000293     -0.000158      0.000912      0.000000
      7 Si    c       0.000110      0.000056      0.000096      0.000000
      8 Si    c       0.000062     -0.000008     -0.000589      0.000000
      9 Si    c       0.000212     -0.000089     -0.000117      0.000000
     10 Si    c      -0.000476      0.000131     -0.000765      0.000000
     11 Si    c      -0.000066      0.000031      0.000226      0.000000
     12 Si    c      -0.000775      0.001888      0.002416      0.000000
     13 Si    c       0.000313      0.000164     -0.002258      0.000000
     14 Si    c      -0.000145     -0.000107      0.000050      0.000000
     15 Si    c      -0.000390     -0.000025      0.000054      0.000000
     16 Si    c      -0.000016     -0.000012      0.000032      0.000000
     17 Si    c       0.000147     -0.000152      0.000094      0.000000
     18 Si    c       0.000932     -0.000422      0.001180      0.000000
     19 Si    c       0.000099      0.000101      0.000368      0.000000
     20 Si    c       0.000489     -0.000791     -0.002172      0.000000
     21 Si    c       0.000262     -0.000093      0.000457      0.000000
     22 Si    c      -0.000327      0.000250     -0.000064      0.000000
     23 Si    c      -0.000245      0.000085      0.000079      0.000000
     24 Si    c      -0.000260     -0.000139      0.002043      0.000000
     25 Ge    c       0.000132     -0.000174      0.000420      0.000000
     26 Si    c       0.000260     -0.000354      0.000497      0.000000
     27 Si    c      -0.000083      0.000105      0.000215      0.000000
     28 Si    c       0.000007      0.000082      0.000220      0.000000
     29 Si    c      -0.000203      0.000206     -0.000125      0.000000
     30 Si    c       0.000586      0.000304     -0.002325      0.000000
     31 Si    c      -0.000051     -0.000148      0.000088      0.000000
     32 Si    c      -0.000596      0.000804      0.001394      0.000000
     33 Si    c       0.000135     -0.000350     -0.000296      0.000000
     34 Si    c      -0.000015      0.000159     -0.000900      0.000000
     35 Si    c       0.000081     -0.000054     -0.000267      0.000000
     36 Si    c      -0.000004     -0.000043     -0.000175      0.000000
     37 Si    c      -0.000069      0.000213     -0.000605      0.000000
     38 Si    c      -0.000205      0.000086     -0.000327      0.000000
     39 Si    c      -0.000113     -0.000079     -0.000432      0.000000
     40 Si    c      -0.000018      0.000059     -0.000371      0.000000
     41 Si    c      -0.000127      0.000235     -0.000247      0.000000
     42 Si    c       0.001837     -0.001224      0.000618      0.000000
     43 Si    c       0.000004      0.000028      0.000707      0.000000
     44 Si    c      -0.000699      0.000781     -0.002572      0.000000
     45 Si    c       0.000098     -0.000223      0.000162      0.000000
     46 Si    c       0.000161     -0.000283      0.000669      0.000000
     47 Si    c       0.000120     -0.000024      0.000336      0.000000
     48 Si    c      -0.000262      0.000124      0.001168      0.000000
     49 Si    c       0.000297     -0.000043      0.000174      0.000000
     50 Si    c       0.000145     -0.000084     -0.000083      0.000000
     51 Ge    c      -0.000001      0.000200     -0.000424      0.000000
     52 Si    c      -0.000140     -0.000052     -0.000125      0.000000
     53 Si    c       0.000011      0.000015      0.000267      0.000000
     54 Si    c      -0.000278     -0.000012      0.000822      0.000000
     55 Si    c      -0.000140     -0.000108      0.000756      0.000000
     56 Si    c      -0.000499     -0.000084     -0.000266      0.000000
     57 Si    c       0.000121      0.000029     -0.000195      0.000000
     58 Si    c       0.000218     -0.000000     -0.001269      0.000000
     59 Si    c       0.000100     -0.000050      0.000332      0.000000
     60 Si    c       0.000064     -0.000101      0.000622      0.000000
     61 O2    c       0.000278     -0.000337     -0.001202      0.000000
     62 O2    c      -0.000000      0.000180      0.000164      0.000000
     63 O3    c       0.000081     -0.000135     -0.000089      0.000000
     64 O2    c       0.000001     -0.000055     -0.000112      0.000000
     65 O2    c      -0.000015     -0.000013      0.000026      0.000000
     66 O2    c      -0.000155      0.000164      0.000151      0.000000
     67 O2    c       0.000032      0.000044     -0.000091      0.000000
     68 O2    c      -0.000190      0.000069     -0.000170      0.000000
     69 O2    c      -0.000175      0.000136     -0.000754      0.000000
     70 O2    c      -0.000157      0.000277      0.000332      0.000000
     71 O2    c      -0.000627     -0.000346      0.002833      0.000000
     72 O2    c       0.000058      0.000261      0.000177      0.000000
     73 O3    c      -0.000431     -0.000383     -0.000517      0.000000
     74 O2    c       0.000232     -0.000181     -0.000006      0.000000
     75 O2    c      -0.000050     -0.000070      0.000082      0.000000
     76 O2    c      -0.000140     -0.000204      0.000412      0.000000
     77 O2    c       0.000106     -0.000113      0.000431      0.000000
     78 O2    c       0.000097      0.000063     -0.000704      0.000000
     79 O2    c       0.000209      0.000230     -0.000475      0.000000
     80 O2    c      -0.000457      0.000369      0.000027      0.000000
     81 O3    c       0.000146     -0.000313     -0.000377      0.000000
     82 O2    c       0.000132     -0.000044     -0.000310      0.000000
     83 O2    c       0.000179     -0.000163     -0.000357      0.000000
     84 O2    c       0.000041     -0.000310      0.000571      0.000000
     85 O2    c      -0.000043      0.000435      0.000058      0.000000
     86 O2    c       0.000403      0.000023     -0.001826      0.000000
     87 O2    c      -0.000420      0.000145     -0.000024      0.000000
     88 O2    c       0.000115     -0.000433      0.000113      0.000000
     89 O2    c       0.000003      0.000069      0.000219      0.000000
     90 O2    c      -0.000236     -0.000086      0.001005      0.000000
     91 O2    c       0.000157     -0.000118     -0.000572      0.000000
     92 O3    c       0.000056      0.000090     -0.000399      0.000000
     93 O2    c       0.000109     -0.000350     -0.001385      0.000000
     94 O2    c      -0.000039      0.000018      0.000320      0.000000
     95 O2    c      -0.000175      0.000624      0.001325      0.000000
     96 O2    c      -0.000247      0.000124      0.000914      0.000000
     97 O2    c      -0.001106      0.000472      0.000219      0.000000
     98 O2    c      -0.000022     -0.000562      0.000934      0.000000
     99 O3    c       0.000028     -0.000126      0.000546      0.000000
    100 O2    c      -0.000202     -0.000085      0.000584      0.000000
    101 O3    c      -0.000100      0.000107     -0.000165      0.000000
    102 O2    c      -0.000044      0.000147      0.000578      0.000000
    103 O2    c       0.000390     -0.000421     -0.000152      0.000000
    104 O2    c      -0.000739      0.000189     -0.000066      0.000000
    105 O2    c      -0.000095      0.000317     -0.001065      0.000000
    106 O2    c      -0.000212      0.000251     -0.000593      0.000000
    107 O2    c      -0.000148      0.000139     -0.000713      0.000000
    108 O2    c       0.000207     -0.000385      0.000306      0.000000
    109 O2    c      -0.000178      0.000226      0.000244      0.000000
    110 O2    c      -0.000256     -0.000112      0.000223      0.000000
    111 O2    c       0.000112     -0.000122     -0.000160      0.000000
    112 O2    c       0.000022     -0.000086     -0.000695      0.000000
    113 O3    c      -0.001663      0.000737      0.000546      0.000000
    114 O2    c      -0.000338      0.000307      0.000402      0.000000
    115 O2    c      -0.001665      0.000766     -0.000684      0.000000
    116 O2    c      -0.000208      0.000120     -0.000106      0.000000
    117 O2    c       0.000229     -0.000023     -0.000435      0.000000
    118 O2    c      -0.000055     -0.000225     -0.000253      0.000000
    119 O2    c       0.000161      0.000036     -0.000204      0.000000
    120 O2    c       0.001233     -0.000547      0.001350      0.000000
    121 O2    c       0.000211     -0.000205      0.000337      0.000000
    122 O2    c       0.000659      0.000285     -0.002370      0.000000
    123 O2    c      -0.000166      0.000038      0.000018      0.000000
    124 O2    c      -0.000141     -0.000158      0.000435      0.000000
    125 O2    c       0.000153      0.000108      0.000314      0.000000
    126 O2    c      -0.000086     -0.000175      0.000776      0.000000
    127 O3    c      -0.000095     -0.000008      0.000436      0.000000
    128 O2    c      -0.000247      0.000222      0.000381      0.000000
    129 O2    c       0.000090     -0.000172      0.000417      0.000000
    130 O2    c      -0.000222     -0.000042      0.000427      0.000000
    131 O3    c      -0.000059      0.000236     -0.000248      0.000000
    132 O2    c      -0.000133      0.000084      0.000718      0.000000
    133 O2    c       0.000054      0.000101     -0.000322      0.000000
    134 O2    c       0.000354     -0.000246     -0.000510      0.000000
    135 O2    c      -0.000143      0.000072     -0.000574      0.000000
    136 O2    c       0.000179     -0.000254     -0.000102      0.000000
    137 O2    c      -0.000006      0.000210     -0.000684      0.000000
    138 O2    c      -0.000351      0.000553     -0.000917      0.000000
    139 O3    c      -0.002141     -0.001412      0.001182      0.000000
    140 O2    c      -0.000323      0.000266      0.000573      0.000000
    141 O2    c      -0.000034      0.000000      0.000136      0.000000
    142 O2    c      -0.000147     -0.000031      0.000538      0.000000
    143 O2    c       0.000305     -0.000244      0.000119      0.000000
    144 O2    c       0.000074      0.000009      0.000687      0.000000
    145 O2    c      -0.000313      0.000224     -0.000322      0.000000
    146 O2    c       0.000247     -0.000195     -0.000717      0.000000
    147 O2    c      -0.000112     -0.000094     -0.000305      0.000000
    148 O2    c       0.000060     -0.000010     -0.000250      0.000000
    149 O2    c      -0.000093     -0.000054     -0.000331      0.000000
    150 O2    c       0.000731     -0.000975      0.001377      0.000000
    151 O3    c       0.000326      0.000114      0.001003      0.000000
    152 O2    c      -0.000299      0.000152      0.000353      0.000000
    153 O2    c      -0.000029     -0.000186      0.000500      0.000000
    154 O2    c      -0.000137     -0.000201      0.000095      0.000000
    155 O2    c       0.000138      0.000009      0.000351      0.000000
    156 O2    c       0.001139     -0.001449     -0.001626      0.000000
    157 O2    c       0.000172      0.000177     -0.000365      0.000000
    158 O2    c      -0.000538      0.000749      0.002236      0.000000
    159 O2    c      -0.000138      0.000043     -0.000148      0.000000
    160 O2    c       0.000031     -0.000344     -0.000052      0.000000
    161 O2    c       0.000011      0.000155     -0.000306      0.000000
    162 O2    c       0.000232     -0.000141     -0.000208      0.000000
    163 O2    c      -0.000415      0.000886     -0.000349      0.000000
    164 O2    c       0.000277     -0.000097     -0.000353      0.000000
    165 O2    c       0.000194     -0.000020     -0.000526      0.000000
    166 O2    c       0.000116      0.000025     -0.000676      0.000000
    167 O2    c      -0.000027      0.000113     -0.000794      0.000000
    168 O2    c       0.000058     -0.000034      0.001686      0.000000
    169 O2    c       0.000145     -0.000323      0.000883      0.000000
    170 O2    c       0.000593     -0.000779     -0.000683      0.000000
    171 O2    c       0.000081      0.000037      0.000161      0.000000
    172 O3    c       0.000385      0.000051      0.000835      0.000000
    173 O2    c       0.000003     -0.000037      0.000613      0.000000
    174 O2    c       0.000137     -0.000300      0.000825      0.000000
    175 O2    c       0.000094     -0.000087      0.000509      0.000000
    176 O2    c       0.000184      0.000133      0.000071      0.000000
    177 O2    c      -0.000274      0.000750     -0.002483      0.000000
    178 O2    c       0.000099      0.000105     -0.000072      0.000000
    179 O2    c       0.000579     -0.000285      0.000399      0.000000
    180 O2    c       0.000220     -0.000247      0.000254      0.000000
    181 F     c       0.000052     -0.000023     -0.000149      0.000000
    182 F     c       0.000003     -0.000007     -0.000071      0.000000
    183 F     c       0.000185     -0.000256      0.000313      0.000000
    184 F     c      -0.000005     -0.000021      0.000014      0.000000
    185 F     c      -0.000111      0.000123     -0.000556      0.000000
    186 F     c       0.000044     -0.000055     -0.000105      0.000000
    187 O2    s       0.000585     -0.000562      0.000626      0.000000
    188 O2    s       0.000053     -0.000091      0.000112      0.000000
    189 O3    s       0.000138     -0.000306     -0.000140      0.000000
    190 O2    s       0.000186     -0.000101     -0.000029      0.000000
    191 O2    s      -0.000102     -0.000001      0.000419      0.000000
    192 O2    s       0.000247     -0.000254     -0.000006      0.000000
    193 O2    s       0.000197     -0.000147     -0.000315      0.000000
    194 O2    s      -0.000375      0.000231     -0.000084      0.000000
    195 O2    s      -0.000145      0.000043     -0.000001      0.000000
    196 O2    s       0.000067      0.000150      0.001873      0.000000
    197 O2    s       0.000165     -0.000348      0.000449      0.000000
    198 O2    s      -0.000094      0.000200      0.000086      0.000000
    199 O3    s      -0.000355      0.000149      0.003336      0.000000
    200 O2    s       0.000400     -0.000305      0.000140      0.000000
    201 O2    s      -0.000280      0.000051     -0.000326      0.000000
    202 O2    s      -0.000139     -0.000063      0.000125      0.000000
    203 O2    s      -0.000071     -0.000008     -0.001027      0.000000
    204 O2    s      -0.000058      0.000191     -0.000564      0.000000
    205 O2    s       0.000387      0.000229      0.000479      0.000000
    206 O2    s      -0.000430      0.000356     -0.000207      0.000000
    207 O3    s       0.000417     -0.000187     -0.000397      0.000000
    208 O2    s       0.000103     -0.000220     -0.000523      0.000000
    209 O2    s       0.000142     -0.000203      0.000245      0.000000
    210 O2    s       0.000015     -0.000168      0.001406      0.000000
    211 O2    s       0.000159      0.000229      0.000070      0.000000
    212 O2    s       0.000817      0.000110     -0.002180      0.000000
    213 O2    s      -0.000318      0.000348     -0.000099      0.000000
    214 O2    s      -0.000053     -0.000104     -0.000118      0.000000
    215 O2    s      -0.000002      0.000149      0.000415      0.000000
    216 O2    s       0.000115     -0.000098     -0.000471      0.000000
    217 O2    s       0.000041      0.000235     -0.001459      0.000000
    218 O3    s       0.000039      0.000019      0.000220      0.000000
    219 O2    s       0.000271     -0.000173     -0.000812      0.000000
    220 O2    s      -0.000013     -0.000120      0.000588      0.000000
    221 O2    s       0.000262      0.000140      0.002234      0.000000
    222 O2    s      -0.000023     -0.000272      0.000098      0.000000
    223 O2    s      -0.000500      0.000586     -0.000292      0.000000
    224 O2    s      -0.000160     -0.000442      0.001065      0.000000
    225 O3    s       0.000092     -0.000253      0.000293      0.000000
    226 O2    s      -0.000132      0.000081      0.000288      0.000000
    227 O3    s      -0.000209     -0.000038      0.000565      0.000000
    228 O2    s      -0.000255      0.000180      0.000674      0.000000
    229 O2    s       0.000141     -0.000295     -0.000438      0.000000
    230 O2    s      -0.000607     -0.000051     -0.000192      0.000000
    231 O2    s      -0.000273      0.000288     -0.000845      0.000000
    232 O2    s      -0.000305      0.000464     -0.000661      0.000000
    233 O2    s      -0.000106      0.000046     -0.000523      0.000000
    234 O2    s      -0.000031      0.000502      0.000470      0.000000
    235 O2    s       0.000185      0.000133     -0.000240      0.000000
    236 O2    s      -0.000472      0.000144     -0.000041      0.000000
    237 O2    s       0.000044      0.000045     -0.000603      0.000000
    238 O2    s       0.000152     -0.000322     -0.000050      0.000000
    239 O3    s       0.001114     -0.001377     -0.005172      0.000000
    240 O2    s      -0.000240      0.000183      0.000131      0.000000
    241 O2    s      -0.000025     -0.000236      0.000357      0.000000
    242 O2    s      -0.000206     -0.000012     -0.000920      0.000000
    243 O2    s       0.000427     -0.000378     -0.000346      0.000000
    244 O2    s      -0.000002     -0.000084     -0.000336      0.000000
    245 O2    s       0.000317      0.000032     -0.000506      0.000000
    246 O2    s      -0.001137      0.001246     -0.000313      0.000000
    247 O2    s       0.000262     -0.000104      0.000789      0.000000
    248 O2    s       0.000670     -0.000352     -0.000727      0.000000
    249 O2    s      -0.000256      0.000374      0.000556      0.000000
    250 O2    s      -0.000022     -0.000036      0.000143      0.000000
    251 O2    s      -0.000086      0.000221      0.000864      0.000000
    252 O2    s       0.000170     -0.000272      0.000077      0.000000
    253 O3    s       0.000362     -0.000264     -0.000162      0.000000
    254 O2    s      -0.000242      0.000080      0.000671      0.000000
    255 O2    s       0.000093     -0.000186      0.000671      0.000000
    256 O2    s      -0.000072     -0.000097      0.001060      0.000000
    257 O3    s      -0.000342      0.000086     -0.000350      0.000000
    258 O2    s       0.000024      0.000214      0.000124      0.000000
    259 O2    s       0.000001      0.000148     -0.001068      0.000000
    260 O2    s      -0.000362      0.000286      0.000693      0.000000
    261 O2    s      -0.000375      0.000256     -0.000581      0.000000
    262 O2    s      -0.000226     -0.000148     -0.000723      0.000000
    263 O2    s      -0.000014      0.000004     -0.000215      0.000000
    264 O2    s       0.001211     -0.000934      0.001839      0.000000
    265 O3    s      -0.000344     -0.001172     -0.005185      0.000000
    266 O2    s       0.000003      0.000127      0.000639      0.000000
    267 O2    s      -0.000214      0.000192      0.000681      0.000000
    268 O2    s      -0.000338      0.000351      0.000893      0.000000
    269 O2    s       0.000058      0.000063      0.000070      0.000000
    270 O2    s       0.000108      0.000170     -0.000153      0.000000
    271 O2    s      -0.000156     -0.000134     -0.000782      0.000000
    272 O2    s      -0.000278      0.000277      0.000342      0.000000
    273 O2    s      -0.000019     -0.000118     -0.000572      0.000000
    274 O2    s       0.000205     -0.000672     -0.000517      0.000000
    275 O2    s      -0.000032     -0.000078     -0.000302      0.000000
    276 O2    s      -0.000975      0.000485      0.001246      0.000000
    277 O3    s      -0.000373     -0.000168      0.000366      0.000000
    278 O2    s      -0.000179      0.000024     -0.000226      0.000000
    279 O2    s       0.000380     -0.000436      0.000193      0.000000
    280 O2    s      -0.000155     -0.000079     -0.000124      0.000000
    281 O2    s       0.000408     -0.000306     -0.000120      0.000000
    282 O2    s      -0.001904      0.001792     -0.000979      0.000000
    283 O2    s       0.000055      0.000087     -0.000036      0.000000
    284 O2    s       0.001509     -0.000210      0.005778      0.000000
    285 O2    s      -0.000366      0.000314      0.000052      0.000000
    286 O2    s       0.000016      0.000329     -0.000471      0.000000
    287 O2    s      -0.000369      0.000494     -0.000127      0.000000
    288 O2    s       0.000363     -0.000090      0.000023      0.000000
    289 O2    s       0.000144     -0.000253      0.000599      0.000000
    290 O2    s      -0.000082      0.000212     -0.000847      0.000000
    291 O2    s      -0.000022      0.000114     -0.000638      0.000000
    292 O2    s       0.000029     -0.000054     -0.000702      0.000000
    293 O2    s      -0.000171      0.000245     -0.000423      0.000000
    294 O2    s       0.000211     -0.000376     -0.002073      0.000000
    295 O2    s      -0.000012     -0.000093      0.000502      0.000000
    296 O2    s      -0.000654      0.000341      0.001216      0.000000
    297 O2    s       0.000134      0.000015      0.000972      0.000000
    298 O3    s       0.000198     -0.000265     -0.000352      0.000000
    299 O2    s       0.000183     -0.000139      0.000741      0.000000
    300 O2    s       0.000009      0.000051     -0.000716      0.000000
    301 O2    s      -0.000007     -0.000171     -0.000167      0.000000
    302 O2    s       0.000349     -0.000231      0.000122      0.000000
    303 O2    s       0.001276     -0.000676     -0.001829      0.000000
    304 O2    s      -0.000124      0.000434     -0.000089      0.000000
    305 O2    s      -0.000817      0.000481     -0.000214      0.000000
    306 O2    s       0.000220     -0.000303      0.000070      0.000000
    307 F     s      -0.000052     -0.000015     -0.000379      0.000000
    308 F     s       0.000038      0.000031      0.000021      0.000000
    309 F     s      -0.000120      0.000177     -0.000347      0.000000
    310 F     s       0.000027      0.000071      0.000202      0.000000
    311 F     s       0.000783     -0.000563     -0.000980      0.000000
    312 F     s      -0.000047      0.000010     -0.000176      0.000000
--------------------------------------------------------------------------------
  Maximum abs         0.002141      0.001888      0.005778      0.000000
--------------------------------------------------------------------------------


  Time to end of optimisation =      59.5177 seconds


  Peak dynamic memory used =      19.13 MB 


  Timing analysis for GULP :

--------------------------------------------------------------------------------
  Task / Subroutine                                          Time (Seconds)
--------------------------------------------------------------------------------
  Calculation of reciprocal space energy and derivatives          1.8527
  Calculation of real space energy and derivatives               50.3360
  Calculation of three-body energy and derivatives                5.9780
  Calculation of matrix inversion                                 0.7679
--------------------------------------------------------------------------------
  Total CPU time                                                 59.5178
--------------------------------------------------------------------------------


  Dump file written as out.res                                                 
  CIF file written as out.cif                                                 


  Job Finished at 02:07.42  2nd December   2016                               

