********************************************************************************
*                       GENERAL UTILITY LATTICE PROGRAM                        *
*                                 Julian Gale                                  *
*                      Nanochemistry Research Institute                        *
*                           Department of Chemistry                            *
*                    Curtin University, Western Australia                      *
********************************************************************************
* Version = 4.2.0 * Last modified =  20th January 2014                         *
********************************************************************************
*  optimise     - perform optimisation run                                     *
*  conp         - constant pressure calculation                                *
*  qok          - running with non charge neutral cell is OK                   *
********************************************************************************

  Job Started  at 21:58.02  1st December   2016                               

  Number of CPUs =     1


  Total number of configurations input =   1

********************************************************************************
*  Input for Configuration =   1                                               *
********************************************************************************

  Formula = Ge3Si57O120F6                                               

  Number of irreducible atoms/shells =     312


  Total number atoms/shells =     312

  Dimensionality = 3               :  Bulk   


  Charge on solid   =  -6.000000 =>neutralising background added


  Cartesian lattice vectors (Angstroms) :

       11.956235    0.000000    0.000000
       -6.104033   10.366916    0.000000
       -0.357990   -0.118931   29.450882

  Cell parameters (Angstroms/Degrees):

  a =      11.9562    alpha =  89.8460
  b =      12.0305    beta  =  90.6964
  c =      29.4533    gamma = 120.4895

  Initial cell volume =        3650.415660 Angs**3

  Temperature of configuration =  0.000     K 

  Pressure of configuration =         0.000 GPa 

  Fractional coordinates of asymmetric unit :

--------------------------------------------------------------------------------
   No.  Atomic       x           y          z         Charge      Occupancy
        Label      (Frac)      (Frac)     (Frac)        (e)         (Frac)  
--------------------------------------------------------------------------------
      1 Ge    c    0.699600    0.375700    0.033890     4.00000    1.000000    
      2 Si    c    0.616086 *  0.308967 *  0.361984 *   4.00000    1.000000    
      3 Si    c    0.673638 *  0.301935 *  0.698263 *   4.00000    1.000000    
      4 Si    c    0.301217 *  0.623065 *  0.528506 *   4.00000    1.000000    
      5 Si    c    0.374009 *  0.677627 *  0.862607 *   4.00000    1.000000    
      6 Si    c    0.314017 *  0.700110 *  0.196658 *   4.00000    1.000000    
      7 Si    c    0.372130 *  0.700209 *  0.296760 *   4.00000    1.000000    
      8 Si    c    0.316689 *  0.622498 *  0.962708 *   4.00000    1.000000    
      9 Si    c    0.297353 *  0.683592 *  0.630422 *   4.00000    1.000000    
     10 Si    c    0.620721 *  0.302059 *  0.798934 *   4.00000    1.000000    
     11 Si    c    0.661251 *  0.358902 *  0.464883 *   4.00000    1.000000    
     12 Si    c    0.680921 *  0.313840 *  0.132070 *   4.00000    1.000000    
     13 Si    c    0.529006 *  0.419769 *  0.966194 *   4.00000    1.000000    
     14 Si    c    0.584819 *  0.103715 *  0.299819 *   4.00000    1.000000    
     15 Si    c    0.880066 *  0.472738 *  0.631454 *   4.00000    1.000000    
     16 Si    c    0.465778 *  0.572415 *  0.464993 *   4.00000    1.000000    
     17 Si    c    0.413127 *  0.889345 *  0.798264 *   4.00000    1.000000    
     18 Si    c    0.102488 *  0.529174 *  0.129134 *   4.00000    1.000000    
     19 Si    c    0.405503 *  0.523446 *  0.361465 *   4.00000    1.000000    
     20 Si    c    0.100330 *  0.580391 *  0.025799 *   4.00000    1.000000    
     21 Si    c    0.465899 *  0.893717 *  0.696646 *   4.00000    1.000000    
     22 Si    c    0.580929 *  0.472750 *  0.863842 *   4.00000    1.000000    
     23 Si    c    0.875430 *  0.410403 *  0.528674 *   4.00000    1.000000    
     24 Si    c    0.524433 *  0.105221 *  0.199142 *   4.00000    1.000000    
     25 Si    c    0.299380 *  0.401991 *  0.848610 *   4.00000    1.000000    
     26 Si    c    0.594399 *  0.898812 *  0.182082 *   4.00000    1.000000    
     27 Ge    c    0.091105 *  0.684388 *  0.521517 *   4.00000    1.000000    
     28 Si    c    0.691209 *  0.590689 *  0.347897 *   4.00000    1.000000    
     29 Si    c    0.393641 *  0.100508 *  0.682594 *   4.00000    1.000000    
     30 Si    c    0.886070 *  0.291807 *  0.010912 *   4.00000    1.000000    
     31 Si    c    0.381810 *  0.285020 *  0.481526 *   4.00000    1.000000    
     32 Si    c    0.887673 *  0.599608 *  0.142110 *   4.00000    1.000000    
     33 Si    c    0.696906 *  0.100561 *  0.813311 *   4.00000    1.000000    
     34 Si    c    0.596387 *  0.700759 *  0.978426 *   4.00000    1.000000    
     35 Si    c    0.094192 *  0.401825 *  0.646287 *   4.00000    1.000000    
     36 Si    c    0.298515 *  0.901218 *  0.314635 *   4.00000    1.000000    
     37 Si    c    0.248419 *  0.343723 *  0.948608 *   4.00000    1.000000    
     38 Si    c    0.657706 *  0.902364 *  0.282488 *   4.00000    1.000000    
     39 Si    c    0.082819 *  0.756817 *  0.617559 *   4.00000    1.000000    
     40 Si    c    0.746815 *  0.648478 *  0.450123 *   4.00000    1.000000    
     41 Si    c    0.336824 *  0.090967 *  0.783278 *   4.00000    1.000000    
     42 Si    c    0.897097 *  0.246344 *  0.113985 *   4.00000    1.000000    
     43 Ge    c    0.348728 *  0.258012 *  0.381249 *   4.00000    1.000000    
     44 Si    c    0.896692 *  0.660385 *  0.039483 *   4.00000    1.000000    
     45 Si    c    0.745866 *  0.095405 *  0.712694 *   4.00000    1.000000    
     46 Si    c    0.655442 *  0.750415 *  0.877851 *   4.00000    1.000000    
     47 Si    c    0.083741 *  0.337193 *  0.544665 *   4.00000    1.000000    
     48 Si    c    0.243415 *  0.907087 *  0.213486 *   4.00000    1.000000    
     49 Si    c    0.970458 *  0.122190 *  0.963608 *   4.00000    1.000000    
     50 Si    c    0.875008 *  0.839613 *  0.298391 *   4.00000    1.000000    
     51 Si    c    0.142516 *  0.030645 *  0.633475 *   4.00000    1.000000    
     52 Si    c    0.030941 *  0.870962 *  0.466401 *   4.00000    1.000000    
     53 Si    c    0.119393 *  0.152515 *  0.798280 *   4.00000    1.000000    
     54 Si    c    0.842161 *  0.970086 *  0.131384 *   4.00000    1.000000    
     55 Si    c    0.120935 *  0.970789 *  0.365469 *   4.00000    1.000000    
     56 Si    c    0.846501 *  0.883250 *  0.029879 *   4.00000    1.000000    
     57 Si    c    0.024860 *  0.155368 *  0.697539 *   4.00000    1.000000    
     58 Si    c    0.876138 *  0.028781 *  0.862922 *   4.00000    1.000000    
     59 Si    c    0.137195 *  0.112879 *  0.531885 *   4.00000    1.000000    
     60 Si    c    0.963436 *  0.847044 *  0.196234 *   4.00000    1.000000    
     61 O2    c    0.928041 *  0.007146 *  0.998900 *   0.87073    1.000000    
     62 O2    c    0.996244 *  0.916318 *  0.331409 *   0.87073    1.000000    
     63 O2    c    0.065099 *  0.076658 *  0.664753 *   0.87073    1.000000    
     64 O2    c    0.059550 *  0.993588 *  0.498008 *   0.87073    1.000000    
     65 O2    c    0.996815 *  0.070941 *  0.830069 *   0.87073    1.000000    
     66 O2    c    0.924270 *  0.932791 *  0.165352 *   0.87073    1.000000    
     67 O2    c    0.334077 *  0.580266 *  0.330356 *   0.87073    1.000000    
     68 O2    c    0.419746 *  0.769048 *  0.663770 *   0.87073    1.000000    
     69 O2    c    0.228085 *  0.656996 *  0.994704 *   0.87073    1.000000    
     70 O2    c    0.658098 *  0.424029 *  0.831865 *   0.87073    1.000000    
     71 O2    c    0.572589 *  0.234845 *  0.169783 *   0.87073    1.000000    
     72 O2    c    0.744244 *  0.321069 *  0.498726 *   0.87073    1.000000    
     73 O3    c    0.566259 *  0.338335 *  0.998055 *   1.33043    1.000000    
     74 O2    c    0.757714 *  0.423751 *  0.664838 *   0.87073    1.000000    
     75 O2    c    0.667050 *  0.230776 *  0.331578 *   0.87073    1.000000    
     76 O2    c    0.426522 *  0.651895 *  0.499069 *   0.87073    1.000000    
     77 O2    c    0.227058 *  0.579176 *  0.162416 *   0.87073    1.000000    
     78 O2    c    0.335871 *  0.762887 *  0.829803 *   0.87073    1.000000    
     79 O2    c    0.124681 *  0.215828 *  0.969265 *   0.87073    1.000000    
     80 O2    c    0.782969 *  0.901147 *  0.303147 *   0.87073    1.000000    
     81 O2    c    0.084623 *  0.878495 *  0.642685 *   0.87073    1.000000    
     82 O2    c    0.874318 *  0.769256 *  0.471383 *   0.87073    1.000000    
     83 O2    c    0.210536 *  0.089764 *  0.803388 *   0.87073    1.000000    
     84 O2    c    0.901436 *  0.124274 *  0.135395 *   0.87073    1.000000    
     85 O3    c    0.205722 *  0.119708 *  0.359061 *   1.33043    1.000000    
     86 O2    c    0.914053 *  0.797837 *  0.023584 *   0.87073    1.000000    
     87 O2    c    0.870523 *  0.094561 *  0.691931 *   0.87073    1.000000    
     88 O2    c    0.782207 *  0.875216 *  0.856978 *   0.87073    1.000000    
     89 O2    c    0.078900 *  0.208728 *  0.525989 *   0.87073    1.000000    
     90 O2    c    0.118311 *  0.909289 *  0.192528 *   0.87073    1.000000    
     91 O2    c    0.922894 *  0.850659 *  0.247261 *   0.87073    1.000000    
     92 O2    c    0.117834 *  0.059609 *  0.582647 *   0.87073    1.000000    
     93 O2    c    0.931707 *  0.063263 *  0.913561 *   0.87073    1.000000    
     94 O2    c    0.065677 *  0.140555 *  0.747617 *   0.87073    1.000000    
     95 O2    c    0.857508 *  0.930642 *  0.081286 *   0.87073    1.000000    
     96 O2    c    0.062424 *  0.922854 *  0.415207 *   0.87073    1.000000    
     97 O2    c    0.898857 *  0.201943 *  0.973114 *   0.87073    1.000000    
     98 O2    c    0.789415 *  0.687193 *  0.309999 *   0.87073    1.000000    
     99 O2    c    0.296770 *  0.104540 *  0.644179 *   0.87073    1.000000    
    100 O3    c    0.104083 *  0.799007 *  0.479907 *   1.33043    1.000000    
    101 O2    c    0.201511 *  0.304068 *  0.809745 *   0.87073    1.000000    
    102 O2    c    0.689722 *  0.898108 *  0.143202 *   0.87073    1.000000    
    103 O2    c    0.206334 *  0.902817 *  0.353741 *   0.87073    1.000000    
    104 O2    c    0.693978 *  0.800611 *  0.016988 *   0.87073    1.000000    
    105 O2    c    0.095558 *  0.307736 *  0.685252 *   0.87073    1.000000    
    106 O2    c    0.795631 *  0.100599 *  0.851707 *   0.87073    1.000000    
    107 O2    c    0.291629 *  0.198504 *  0.523509 *   0.87073    1.000000    
    108 O2    c    0.891912 *  0.697818 *  0.180515 *   0.87073    1.000000    
    109 O2    c    0.314093 *  0.639760 *  0.246294 *   0.87073    1.000000    
    110 O2    c    0.350543 *  0.681153 *  0.580150 *   0.87073    1.000000    
    111 O2    c    0.314499 *  0.678132 *  0.912243 *   0.87073    1.000000    
    112 O2    c    0.676404 *  0.359949 *  0.748538 *   0.87073    1.000000    
    113 O3    c    0.610390 *  0.301342 *  0.084570 *   1.33043    1.000000    
    114 O2    c    0.664440 *  0.308578 *  0.414218 *   0.87073    1.000000    
    115 O2    c    0.370795 *  0.334645 *  0.966174 *   0.87073    1.000000    
    116 O2    c    0.672266 *  0.035708 *  0.301021 *   0.87073    1.000000    
    117 O2    c    0.949790 *  0.628406 *  0.633676 *   0.87073    1.000000    
    118 O2    c    0.622519 *  0.656950 *  0.466189 *   0.87073    1.000000    
    119 O2    c    0.326459 *  0.958373 *  0.800907 *   0.87073    1.000000    
    120 O2    c    0.030050 *  0.373388 *  0.130683 *   0.87073    1.000000    
    121 O3    c    0.314400 *  0.371756 *  0.356095 *   1.33043    1.000000    
    122 O2    c    0.030093 *  0.665171 *  0.024012 *   0.87073    1.000000    
    123 O2    c    0.622710 *  0.963560 *  0.693454 *   0.87073    1.000000    
    124 O2    c    0.665884 *  0.628990 *  0.859669 *   0.87073    1.000000    
    125 O2    c    0.951490 *  0.330099 *  0.527425 *   0.87073    1.000000    
    126 O2    c    0.367687 *  0.036802 *  0.194611 *   0.87073    1.000000    
    127 O3    c    0.751393 *  0.282490 *  0.001961 *   1.33043    1.000000    
    128 O2    c    0.687664 *  0.455463 *  0.341922 *   0.87073    1.000000    
    129 O2    c    0.529635 *  0.233872 *  0.675233 *   0.87073    1.000000    
    130 O3    c    0.239218 *  0.696540 *  0.503982 *   1.33043    1.000000    
    131 O2    c    0.299672 *  0.535140 *  0.839105 *   0.87073    1.000000    
    132 O2    c    0.456330 *  0.767487 *  0.173251 *   0.87073    1.000000    
    133 O2    c    0.295556 *  0.765367 *  0.318943 *   0.87073    1.000000    
    134 O2    c    0.461536 *  0.700701 *  0.985168 *   0.87073    1.000000    
    135 O2    c    0.227185 *  0.538517 *  0.650922 *   0.87073    1.000000    
    136 O2    c    0.696861 *  0.234042 *  0.820718 *   0.87073    1.000000    
    137 O2    c    0.517222 *  0.284331 *  0.486095 *   0.87073    1.000000    
    138 O2    c    0.755543 *  0.463842 *  0.150054 *   0.87073    1.000000    
    139 O3    c    0.770404 *  0.545635 *  0.018022 *   1.33043    1.000000    
    140 O3    c    0.462870 *  0.229138 *  0.353771 *   1.33043    1.000000    
    141 O2    c    0.750869 *  0.223719 *  0.693432 *   0.87073    1.000000    
    142 O2    c    0.209689 *  0.465468 *  0.526681 *   0.87073    1.000000    
    143 O2    c    0.531069 *  0.754229 *  0.857864 *   0.87073    1.000000    
    144 O2    c    0.236219 *  0.778212 *  0.193684 *   0.87073    1.000000    
    145 O2    c    0.529435 *  0.778282 *  0.301701 *   0.87073    1.000000    
    146 O2    c    0.243885 *  0.466981 *  0.968091 *   0.87073    1.000000    
    147 O2    c    0.208962 *  0.749424 *  0.634485 *   0.87073    1.000000    
    148 O2    c    0.464055 *  0.217058 *  0.803031 *   0.87073    1.000000    
    149 O2    c    0.727535 *  0.513592 *  0.467807 *   0.87073    1.000000    
    150 O2    c    0.774407 *  0.250961 *  0.133160 *   0.87073    1.000000    
    151 O2    c    0.225045 *  0.326657 *  0.894194 *   0.87073    1.000000    
    152 O2    c    0.671161 *  0.899782 *  0.227948 *   0.87073    1.000000    
    153 O3    c    0.085003 *  0.784909 *  0.565003 *   1.33043    1.000000    
    154 O2    c    0.757700 *  0.657999 *  0.395718 *   0.87073    1.000000    
    155 O2    c    0.319295 *  0.094526 *  0.728900 *   0.87073    1.000000    
    156 O2    c    0.893161 *  0.229893 *  0.059662 *   0.87073    1.000000    
    157 O3    c    0.298409 *  0.208327 *  0.438154 *   1.33043    1.000000    
    158 O2    c    0.889340 *  0.666807 *  0.094795 *   0.87073    1.000000    
    159 O2    c    0.766751 *  0.096712 *  0.766985 *   0.87073    1.000000    
    160 O2    c    0.672797 *  0.770345 *  0.932257 *   0.87073    1.000000    
    161 O2    c    0.087044 *  0.330480 *  0.599326 *   0.87073    1.000000    
    162 O2    c    0.229645 *  0.909305 *  0.267817 *   0.87073    1.000000    
    163 O2    c    0.579679 *  0.561953 *  0.988086 *   0.87073    1.000000    
    164 O2    c    0.444733 *  0.018358 *  0.323235 *   0.87073    1.000000    
    165 O2    c    0.973548 *  0.423679 *  0.652015 *   0.87073    1.000000    
    166 O2    c    0.408308 *  0.430814 *  0.487098 *   0.87073    1.000000    
    167 O2    c    0.555868 *  0.975519 *  0.821313 *   0.87073    1.000000    
    168 O2    c    0.010651 *  0.580025 *  0.148219 *   0.87073    1.000000    
    169 O2    c    0.550327 *  0.575137 *  0.340939 *   0.87073    1.000000    
    170 O2    c    0.008922 *  0.437750 *  0.005038 *   0.87073    1.000000    
    171 O2    c    0.405629 *  0.974625 *  0.673158 *   0.87073    1.000000    
    172 O2    c    0.437985 *  0.413040 *  0.840579 *   0.87073    1.000000    
    173 O3    c    0.946301 *  0.544945 *  0.502662 *   1.33043    1.000000    
    174 O2    c    0.584314 *  0.026506 *  0.174291 *   0.87073    1.000000    
    175 O2    c    0.580146 *  0.157116 *  0.249715 *   0.87073    1.000000    
    176 O2    c    0.830312 *  0.417982 *  0.580436 *   0.87073    1.000000    
    177 O2    c    0.583385 *  0.424995 *  0.914978 *   0.87073    1.000000    
    178 O2    c    0.412738 *  0.838425 *  0.747031 *   0.87073    1.000000    
    179 O2    c    0.147290 *  0.577182 *  0.077661 *   0.87073    1.000000    
    180 O2    c    0.411197 *  0.571171 *  0.414153 *   0.87073    1.000000    
    181 F     c    0.446908 *  0.896089 *  0.245855 *   0.56000    1.000000    
    182 F     c    0.090384 *  0.576467 *  0.569710 *   0.56000    1.000000    
    183 F     c    0.444228 *  0.553601 *  0.911705 *   0.56000    1.000000    
    184 F     c    0.546778 *  0.100605 *  0.746252 *   0.56000    1.000000    
    185 F     c    0.850024 *  0.434026 *  0.069690 *   0.56000    1.000000    
    186 F     c    0.500874 *  0.403677 *  0.408506 *   0.56000    1.000000    
    187 O2    s    0.923562 *  0.006134 *  0.998413 *  -2.87073    1.000000    
    188 O2    s    0.994937 *  0.912921 *  0.331070 *  -2.87073    1.000000    
    189 O2    s    0.069219 *  0.080496 *  0.664981 *  -2.87073    1.000000    
    190 O2    s    0.065325 *  0.994472 *  0.498597 *  -2.87073    1.000000    
    191 O2    s    0.997126 *  0.075414 *  0.830157 *  -2.87073    1.000000    
    192 O2    s    0.919587 *  0.927497 *  0.165016 *  -2.87073    1.000000    
    193 O2    s    0.345678 *  0.586996 *  0.330082 *  -2.87073    1.000000    
    194 O2    s    0.411469 *  0.772651 *  0.663573 *  -2.87073    1.000000    
    195 O2    s    0.223715 *  0.645545 *  0.994713 *  -2.87073    1.000000    
    196 O2    s    0.646460 *  0.416289 *  0.831658 *  -2.87073    1.000000    
    197 O2    s    0.579078 *  0.229590 *  0.168851 *  -2.87073    1.000000    
    198 O2    s    0.748759 *  0.333910 *  0.498214 *  -2.87073    1.000000    
    199 O3    s    0.572033 *  0.349838 *  0.997260 *  -3.33043    1.000000    
    200 O2    s    0.762068 *  0.416556 *  0.664721 *  -2.87073    1.000000    
    201 O2    s    0.653672 *  0.225733 *  0.331407 *  -2.87073    1.000000    
    202 O2    s    0.417561 *  0.640537 *  0.498594 *  -2.87073    1.000000    
    203 O2    s    0.222470 *  0.585942 *  0.162304 *  -2.87073    1.000000    
    204 O2    s    0.347781 *  0.767486 *  0.829826 *  -2.87073    1.000000    
    205 O2    s    0.120666 *  0.218856 *  0.966534 *  -2.87073    1.000000    
    206 O2    s    0.779482 *  0.894730 *  0.300479 *  -2.87073    1.000000    
    207 O2    s    0.090491 *  0.882180 *  0.639267 *  -2.87073    1.000000    
    208 O2    s    0.875204 *  0.765650 *  0.468571 *  -2.87073    1.000000    
    209 O2    s    0.213992 *  0.096529 *  0.800782 *  -2.87073    1.000000    
    210 O2    s    0.894789 *  0.120828 *  0.132775 *  -2.87073    1.000000    
    211 O3    s    0.205824 *  0.112335 *  0.361238 *  -3.33043    1.000000    
    212 O2    s    0.905031 *  0.793037 *  0.025860 *  -2.87073    1.000000    
    213 O2    s    0.874292 *  0.101244 *  0.694658 *  -2.87073    1.000000    
    214 O2    s    0.779226 *  0.878851 *  0.859736 *  -2.87073    1.000000    
    215 O2    s    0.085308 *  0.212672 *  0.528547 *  -2.87073    1.000000    
    216 O2    s    0.114608 *  0.902388 *  0.195062 *  -2.87073    1.000000    
    217 O2    s    0.922149 *  0.849001 *  0.247148 *  -2.87073    1.000000    
    218 O2    s    0.122787 *  0.062310 *  0.582725 *  -2.87073    1.000000    
    219 O2    s    0.929755 *  0.065992 *  0.913448 *  -2.87073    1.000000    
    220 O2    s    0.066993 *  0.143633 *  0.747512 *  -2.87073    1.000000    
    221 O2    s    0.854524 *  0.929875 *  0.081274 *  -2.87073    1.000000    
    222 O2    s    0.065312 *  0.922385 *  0.415387 *  -2.87073    1.000000    
    223 O2    s    0.905373 *  0.202673 *  0.976048 *  -2.87073    1.000000    
    224 O2    s    0.787939 *  0.692821 *  0.312768 *  -2.87073    1.000000    
    225 O2    s    0.290394 *  0.096379 *  0.646945 *  -2.87073    1.000000    
    226 O3    s    0.095017 *  0.799370 *  0.481177 *  -3.33043    1.000000    
    227 O2    s    0.202581 *  0.297611 *  0.812459 *  -2.87073    1.000000    
    228 O2    s    0.696226 *  0.905793 *  0.145881 *  -2.87073    1.000000    
    229 O2    s    0.207836 *  0.909215 *  0.350712 *  -2.87073    1.000000    
    230 O2    s    0.700249 *  0.799255 *  0.014442 *  -2.87073    1.000000    
    231 O2    s    0.088155 *  0.302026 *  0.682398 *  -2.87073    1.000000    
    232 O2    s    0.793963 *  0.093096 *  0.848949 *  -2.87073    1.000000    
    233 O2    s    0.284508 *  0.198225 *  0.520221 *  -2.87073    1.000000    
    234 O2    s    0.899044 *  0.703411 *  0.178171 *  -2.87073    1.000000    
    235 O2    s    0.319858 *  0.651916 *  0.246225 *  -2.87073    1.000000    
    236 O2    s    0.340261 *  0.675806 *  0.580369 *  -2.87073    1.000000    
    237 O2    s    0.320712 *  0.672430 *  0.912347 *  -2.87073    1.000000    
    238 O2    s    0.670557 *  0.348249 *  0.748458 *  -2.87073    1.000000    
    239 O3    s    0.623602 *  0.307622 *  0.085983 *  -3.33043    1.000000    
    240 O2    s    0.659237 *  0.313902 *  0.414351 *  -2.87073    1.000000    
    241 O2    s    0.373089 *  0.344295 *  0.964184 *  -2.87073    1.000000    
    242 O2    s    0.661623 *  0.028741 *  0.298929 *  -2.87073    1.000000    
    243 O2    s    0.955917 *  0.625051 *  0.631795 *  -2.87073    1.000000    
    244 O2    s    0.619105 *  0.647146 *  0.464359 *  -2.87073    1.000000    
    245 O2    s    0.336455 *  0.965194 *  0.798774 *  -2.87073    1.000000    
    246 O2    s    0.023780 *  0.376457 *  0.128777 *  -2.87073    1.000000    
    247 O3    s    0.326281 *  0.379234 *  0.358474 *  -3.33043    1.000000    
    248 O2    s    0.024249 *  0.655766 *  0.025740 *  -2.87073    1.000000    
    249 O2    s    0.619433 *  0.970276 *  0.695836 *  -2.87073    1.000000    
    250 O2    s    0.656043 *  0.625633 *  0.862005 *  -2.87073    1.000000    
    251 O2    s    0.957849 *  0.339055 *  0.529398 *  -2.87073    1.000000    
    252 O2    s    0.370720 *  0.030060 *  0.197092 *  -2.87073    1.000000    
    253 O3    s    0.762370 *  0.289579 *  0.005071 *  -3.33043    1.000000    
    254 O2    s    0.680800 *  0.455046 *  0.344599 *  -2.87073    1.000000    
    255 O2    s    0.530220 *  0.226861 *  0.678430 *  -2.87073    1.000000    
    256 O3    s    0.235385 *  0.687920 *  0.507826 *  -3.33043    1.000000    
    257 O2    s    0.307243 *  0.535841 *  0.842527 *  -2.87073    1.000000    
    258 O2    s    0.456212 *  0.774328 *  0.176594 *  -2.87073    1.000000    
    259 O2    s    0.303846 *  0.772755 *  0.316124 *  -2.87073    1.000000    
    260 O2    s    0.460503 *  0.692693 *  0.982136 *  -2.87073    1.000000    
    261 O2    s    0.220097 *  0.538731 *  0.648297 *  -2.87073    1.000000    
    262 O2    s    0.689087 *  0.227047 *  0.817680 *  -2.87073    1.000000    
    263 O2    s    0.518475 *  0.292227 *  0.483352 *  -2.87073    1.000000    
    264 O2    s    0.762309 *  0.463641 *  0.147411 *  -2.87073    1.000000    
    265 O3    s    0.780096 *  0.547898 *  0.021291 *  -3.33043    1.000000    
    266 O3    s    0.470232 *  0.239486 *  0.356556 *  -3.33043    1.000000    
    267 O2    s    0.742275 *  0.218022 *  0.695974 *  -2.87073    1.000000    
    268 O2    s    0.204883 *  0.467044 *  0.528800 *  -2.87073    1.000000    
    269 O2    s    0.528131 *  0.745769 *  0.860482 *  -2.87073    1.000000    
    270 O2    s    0.245117 *  0.783811 *  0.196081 *  -2.87073    1.000000    
    271 O2    s    0.527093 *  0.783779 *  0.299106 *  -2.87073    1.000000    
    272 O2    s    0.252024 *  0.470161 *  0.965487 *  -2.87073    1.000000    
    273 O2    s    0.205271 *  0.743041 *  0.632305 *  -2.87073    1.000000    
    274 O2    s    0.466682 *  0.212163 *  0.800469 *  -2.87073    1.000000    
    275 O2    s    0.722406 *  0.511796 *  0.465566 *  -2.87073    1.000000    
    276 O2    s    0.778685 *  0.256846 *  0.130925 *  -2.87073    1.000000    
    277 O2    s    0.235242 *  0.336339 *  0.895108 *  -2.87073    1.000000    
    278 O2    s    0.661736 *  0.899947 *  0.228899 *  -2.87073    1.000000    
    279 O3    s    0.085162 *  0.775104 *  0.567593 *  -3.33043    1.000000    
    280 O2    s    0.749413 *  0.649782 *  0.396485 *  -2.87073    1.000000    
    281 O2    s    0.328942 *  0.094771 *  0.729791 *  -2.87073    1.000000    
    282 O2    s    0.892860 *  0.237750 *  0.060688 *  -2.87073    1.000000    
    283 O3    s    0.310517 *  0.219694 *  0.438705 *  -3.33043    1.000000    
    284 O2    s    0.889817 *  0.658743 *  0.094510 *  -2.87073    1.000000    
    285 O2    s    0.757266 *  0.096977 *  0.766020 *  -2.87073    1.000000    
    286 O2    s    0.663051 *  0.761044 *  0.931278 *  -2.87073    1.000000    
    287 O2    s    0.087457 *  0.338856 *  0.598585 *  -2.87073    1.000000    
    288 O2    s    0.238189 *  0.908244 *  0.266796 *  -2.87073    1.000000    
    289 O2    s    0.576104 *  0.562819 *  0.984773 *  -2.87073    1.000000    
    290 O2    s    0.443875 *  0.014577 *  0.319821 *  -2.87073    1.000000    
    291 O2    s    0.977128 *  0.426557 *  0.649208 *  -2.87073    1.000000    
    292 O2    s    0.411741 *  0.430680 *  0.484153 *  -2.87073    1.000000    
    293 O2    s    0.556163 *  0.980201 *  0.818021 *  -2.87073    1.000000    
    294 O2    s    0.007189 *  0.576551 *  0.145500 *  -2.87073    1.000000    
    295 O2    s    0.551230 *  0.571503 *  0.343746 *  -2.87073    1.000000    
    296 O2    s    0.006096 *  0.438273 *  0.007877 *  -2.87073    1.000000    
    297 O2    s    0.410750 *  0.979771 *  0.676590 *  -2.87073    1.000000    
    298 O2    s    0.438031 *  0.418237 *  0.843865 *  -2.87073    1.000000    
    299 O3    s    0.949640 *  0.541313 *  0.506642 *  -3.33043    1.000000    
    300 O2    s    0.579082 *  0.020856 *  0.177667 *  -2.87073    1.000000    
    301 O2    s    0.574644 *  0.145858 *  0.249606 *  -2.87073    1.000000    
    302 O2    s    0.839990 *  0.423002 *  0.580669 *  -2.87073    1.000000    
    303 O2    s    0.577765 *  0.429609 *  0.914603 *  -2.87073    1.000000    
    304 O2    s    0.418326 *  0.849436 *  0.747025 *  -2.87073    1.000000    
    305 O2    s    0.137812 *  0.572470 *  0.077786 *  -2.87073    1.000000    
    306 O2    s    0.416283 *  0.566598 *  0.414316 *  -2.87073    1.000000    
    307 F     s    0.446714 *  0.895395 *  0.245623 *  -1.56000    1.000000    
    308 F     s    0.090472 *  0.582986 *  0.566806 *  -1.56000    1.000000    
    309 F     s    0.443539 *  0.554111 *  0.911478 *  -1.56000    1.000000    
    310 F     s    0.547162 *  0.101040 *  0.746048 *  -1.56000    1.000000    
    311 F     s    0.839387 *  0.429915 *  0.067298 *  -1.56000    1.000000    
    312 F     s    0.492346 *  0.395175 *  0.407036 *  -1.56000    1.000000    
--------------------------------------------------------------------------------



********************************************************************************
*  General input information                                                   *
********************************************************************************

  Species output for all configurations : 

--------------------------------------------------------------------------------
  Species    Type    Atomic    Atomic    Charge       Radii (Angs)     Library
                     Number     Mass       (e)     Cova   Ionic  VDW   Symbol
--------------------------------------------------------------------------------
    Si       Core       14      28.09   4.000000   1.200  0.000  2.100          
    O1       Core        8      16.00   1.733957   0.730  0.000  1.360          
    O1       Shell       8       0.00  -3.733957   0.730  0.000  1.360          
    O2       Core        8      16.00   0.870733   0.730  0.000  1.360          
    O2       Shell       8       0.00  -2.870733   0.730  0.000  1.360          
    O3       Core        8      16.00   1.330431   0.730  0.000  1.360          
    O3       Shell       8       0.00  -3.330431   0.730  0.000  1.360          
    F        Core        9      19.00   0.560000   0.710  0.000  1.300          
    F        Shell       9       0.00  -1.560000   0.710  0.000  1.300          
    Ge       Core       32      72.61   4.000000   1.170  0.000  1.750          
--------------------------------------------------------------------------------


  Lattice summation method               =    Ewald          (3-D)
                                         =    Parry          (2-D)
                                         =    Saunders et al (1-D)
  Accuracy factor for lattice sums       =   12.000


  Time limit = Infinity

  Maximum range for interatomic potentials =        16.000000 Angstroms

  Taper potentials to zero over   1.0000 Angstroms using polynomial

  General interatomic potentials :

--------------------------------------------------------------------------------
Atom  Types   Potential         A         B         C         D     Cutoffs(Ang)
  1     2                                                            Min    Max 
--------------------------------------------------------------------------------
Si   c O1   s Buckingham    0.132E+04 0.318      10.1      0.00     0.000 16.000
Si   c O2   s Buckingham    0.132E+04 0.318      10.1      0.00     0.000 16.000
Si   c O3   s Buckingham    0.132E+04 0.318      10.1      0.00     0.000 16.000
Ge   c O1   s Buckingham    0.150E+04 0.326      16.8      0.00     0.000 16.000
Ge   c O2   s Buckingham    0.150E+04 0.326      16.8      0.00     0.000 16.000
Ge   c O3   s Buckingham    0.150E+04 0.326      16.8      0.00     0.000 16.000
O1   s O1   s Buckingham    0.228E+05 0.149      10.9      0.00     0.000 16.000
O1   s O2   s Buckingham    0.228E+05 0.149      10.9      0.00     0.000 16.000
O1   s O3   s Buckingham    0.228E+05 0.149      10.9      0.00     0.000 16.000
O2   s O2   s Buckingham    0.228E+05 0.149      10.9      0.00     0.000 16.000
O2   s O3   s Buckingham    0.228E+05 0.149      10.9      0.00     0.000 16.000
O3   s O3   s Buckingham    0.228E+05 0.149      10.9      0.00     0.000 16.000
Si   c F    s Buckingham     977.     0.282      0.00      0.00     0.000 16.000
Ge   c F    s Buckingham     681.     0.320      0.00      0.00     0.000 16.000
F    s F    s Buckingham     540.     0.262      0.00      0.00     0.000 16.000
O1   s F    s Buckingham    0.168E+04 0.268      0.00      0.00     0.000 16.000
O2   s F    s Buckingham    0.168E+04 0.268      0.00      0.00     0.000 16.000
O3   s F    s Buckingham    0.168E+04 0.268      0.00      0.00     0.000 16.000
O2   c O2   s Spring (c-s)   76.0      0.00      0.00      0.00     0.000  0.800
O3   c O3   s Spring (c-s)   128.      0.00      0.00      0.00     0.000  0.800
O1   c O1   s Spring (c-s)   180.      0.00      0.00      0.00     0.000  0.800
F    c F    s Spring (c-s)   33.5      0.00      0.00      0.00     0.000  0.800
--------------------------------------------------------------------------------

  General Three-body potentials :

  Harmonic form:

--------------------------------------------------------------------------------
Atom    Atom    Atom           Force Constants            Theta     Cutoffs  
  1       2       3     (eVrad**-2/eVrad**-3/eVrad**-4)   (deg)  1-2  1-3  2-3
--------------------------------------------------------------------------------
Si    c O1    s O1    s  1.261        0.0000    0.0000   109.470 0.00 0.00 0.00
                                                                 1.90 1.90 3.50
Si    c O1    s O2    s  1.261        0.0000    0.0000   109.470 0.00 0.00 0.00
                                                                 1.90 1.90 3.50
Si    c O2    s O2    s  1.261        0.0000    0.0000   109.470 0.00 0.00 0.00
                                                                 1.90 1.90 3.50
--------------------------------------------------------------------------------

********************************************************************************
*  Output for configuration   1                                                *
********************************************************************************


  Components of energy : 

--------------------------------------------------------------------------------
  Interatomic potentials     =        2065.84852333 eV
  Three-body potentials      =           0.50230250 eV
  Monopole - monopole (real) =       -6613.79318649 eV
  Monopole - monopole (recip)=       -3173.19437113 eV
  Monopole - monopole (total)=       -9786.98755762 eV
  Neutralising energy        =          -6.46379894 eV
--------------------------------------------------------------------------------
  Total lattice energy       =       -7727.10053072 eV
--------------------------------------------------------------------------------
  Total lattice energy       =         -745547.0817 kJ/(mole unit cells)
--------------------------------------------------------------------------------


  Number of variables =      939

  Maximum number of calculations  =          1000
  Maximum Hessian update interval =            10
  Maximum step size               =   1.000000000
  Maximum parameter tolerance     =   0.000010000
  Maximum function  tolerance     =   0.000010000
  Maximum gradient  tolerance     =   0.001000000
  Maximum gradient  component     =   0.010000000

  Symmetry not applied to optimisation

  Cell parameters to be optimised using strains

  Newton-Raphson optimiser to be used

  BFGS hessian update to be used

  Dumpfile to be written after every cycle

  Start of bulk optimisation :

  Cycle:      0 Energy:     -7727.100531  Gnorm:      0.000952  CPU:    1.047
  ** Hessian calculated **
  Cycle:      1 Energy:     -7727.173278  Gnorm:      0.004073  CPU:    3.284
  Cycle:      2 Energy:     -7727.177843  Gnorm:      0.001407  CPU:    4.666
  Cycle:      3 Energy:     -7727.177897  Gnorm:      0.000173  CPU:    6.048


  **** Optimisation achieved ****


  Final energy =   -7727.17789808 eV
  Final Gnorm  =       0.00003034

  Components of energy : 

--------------------------------------------------------------------------------
  Interatomic potentials     =        2066.05753125 eV
  Three-body potentials      =           0.50138119 eV
  Monopole - monopole (real) =       -6615.33955237 eV
  Monopole - monopole (recip)=       -3171.93602119 eV
  Monopole - monopole (total)=       -9787.27557356 eV
  Neutralising energy        =          -6.46123695 eV
--------------------------------------------------------------------------------
  Total lattice energy       =       -7727.17789808 eV
--------------------------------------------------------------------------------
  Total lattice energy       =         -745554.5464 kJ/(mole unit cells)
--------------------------------------------------------------------------------

  Final fractional coordinates of atoms :

--------------------------------------------------------------------------------
   No.  Atomic        x           y          z          Radius
        Label       (Frac)      (Frac)     (Frac)       (Angs) 
--------------------------------------------------------------------------------
     1  Ge    c     0.699600    0.375700    0.033890    0.000000
     2  Si    c     0.589780    0.292901    0.362718    0.000000
     3  Si    c     0.649423    0.282692    0.698770    0.000000
     4  Si    c     0.276162    0.604608    0.530384    0.000000
     5  Si    c     0.357453    0.664384    0.864549    0.000000
     6  Si    c     0.296442    0.689178    0.198917    0.000000
     7  Si    c     0.352516    0.688931    0.299169    0.000000
     8  Si    c     0.305665    0.609539    0.964936    0.000000
     9  Si    c     0.272036    0.665153    0.632348    0.000000
    10  Si    c     0.600736    0.287360    0.799503    0.000000
    11  Si    c     0.635260    0.340295    0.465810    0.000000
    12  Si    c     0.665519    0.303114    0.131776    0.000000
    13  Si    c     0.519172    0.408368    0.966486    0.000000
    14  Si    c     0.564126    0.091652    0.299972    0.000000
    15  Si    c     0.854928    0.453695    0.631986    0.000000
    16  Si    c     0.440641    0.553911    0.467183    0.000000
    17  Si    c     0.393108    0.875138    0.800417    0.000000
    18  Si    c     0.087015    0.516951    0.131744    0.000000
    19  Si    c     0.380003    0.507590    0.363573    0.000000
    20  Si    c     0.092929    0.573234    0.028558    0.000000
    21  Si    c     0.441954    0.875426    0.698594    0.000000
    22  Si    c     0.565151    0.461222    0.863764    0.000000
    23  Si    c     0.850299    0.391393    0.529255    0.000000
    24  Si    c     0.505591    0.093874    0.199009    0.000000
    25  Si    c     0.283307    0.389512    0.849454    0.000000
    26  Si    c     0.575749    0.887062    0.183294    0.000000
    27  Ge    c     0.066006    0.665373    0.522861    0.000000
    28  Si    c     0.665163    0.575004    0.349303    0.000000
    29  Si    c     0.369280    0.081767    0.683977    0.000000
    30  Si    c     0.879959    0.285453    0.011931    0.000000
    31  Si    c     0.356192    0.266243    0.483090    0.000000
    32  Si    c     0.872847    0.588057    0.143765    0.000000
    33  Si    c     0.676962    0.086228    0.814893    0.000000
    34  Si    c     0.585906    0.688656    0.979329    0.000000
    35  Si    c     0.068908    0.383106    0.647447    0.000000
    36  Si    c     0.278565    0.890104    0.315968    0.000000
    37  Si    c     0.238024    0.331556    0.949817    0.000000
    38  Si    c     0.637558    0.890662    0.283934    0.000000
    39  Si    c     0.057377    0.737920    0.618804    0.000000
    40  Si    c     0.721374    0.630323    0.451624    0.000000
    41  Si    c     0.316679    0.076280    0.784896    0.000000
    42  Si    c     0.882160    0.235174    0.115200    0.000000
    43  Ge    c     0.322963    0.242054    0.382719    0.000000
    44  Si    c     0.892884    0.657771    0.041405    0.000000
    45  Si    c     0.722195    0.077059    0.714099    0.000000
    46  Si    c     0.639418    0.738045    0.878456    0.000000
    47  Si    c     0.058541    0.318421    0.545864    0.000000
    48  Si    c     0.224936    0.895617    0.214571    0.000000
    49  Si    c     0.959426    0.112419    0.964626    0.000000
    50  Si    c     0.851695    0.823862    0.299828    0.000000
    51  Si    c     0.117182    0.011383    0.635054    0.000000
    52  Si    c     0.005871    0.852369    0.467884    0.000000
    53  Si    c     0.101058    0.140052    0.799664    0.000000
    54  Si    c     0.823896    0.957879    0.133025    0.000000
    55  Si    c     0.097441    0.954836    0.367115    0.000000
    56  Si    c     0.835081    0.874585    0.031578    0.000000
    57  Si    c     0.001202    0.137269    0.699125    0.000000
    58  Si    c     0.858405    0.017010    0.864460    0.000000
    59  Si    c     0.111711    0.093865    0.533370    0.000000
    60  Si    c     0.943918    0.833315    0.198016    0.000000
    61  O2    c     0.914642    0.999476    0.000975    0.000000
    62  O2    c     0.972586    0.897471    0.333125    0.000000
    63  O2    c     0.040715    0.057588    0.666627    0.000000
    64  O2    c     0.033970    0.974495    0.499586    0.000000
    65  O2    c     0.979463    0.060829    0.831891    0.000000
    66  O2    c     0.904141    0.918984    0.167289    0.000000
    67  O2    c     0.311738    0.568502    0.332847    0.000000
    68  O2    c     0.393988    0.750069    0.665978    0.000000
    69  O2    c     0.221349    0.647064    0.997849    0.000000
    70  O2    c     0.640403    0.411436    0.831429    0.000000
    71  O2    c     0.554482    0.222200    0.168651    0.000000
    72  O2    c     0.719151    0.302349    0.499269    0.000000
    73  O3    c     0.564010    0.332720    0.997792    0.000000
    74  O2    c     0.732106    0.403915    0.665012    0.000000
    75  O2    c     0.643736    0.218475    0.331905    0.000000
    76  O2    c     0.401976    0.633220    0.501430    0.000000
    77  O2    c     0.210014    0.566216    0.165596    0.000000
    78  O2    c     0.317227    0.749458    0.832429    0.000000
    79  O2    c     0.114205    0.202008    0.969739    0.000000
    80  O2    c     0.762788    0.888873    0.304404    0.000000
    81  O2    c     0.058753    0.859084    0.644014    0.000000
    82  O2    c     0.849284    0.750697    0.472747    0.000000
    83  O2    c     0.191338    0.076505    0.805068    0.000000
    84  O2    c     0.884060    0.112074    0.136886    0.000000
    85  O3    c     0.179370    0.103965    0.360833    0.000000
    86  O2    c     0.909495    0.795216    0.026206    0.000000
    87  O2    c     0.846738    0.075349    0.693790    0.000000
    88  O2    c     0.765360    0.863820    0.857719    0.000000
    89  O2    c     0.053971    0.190132    0.527292    0.000000
    90  O2    c     0.098843    0.896968    0.194109    0.000000
    91  O2    c     0.901198    0.834446    0.248930    0.000000
    92  O2    c     0.092129    0.040935    0.584263    0.000000
    93  O2    c     0.914244    0.050435    0.915193    0.000000
    94  O2    c     0.045189    0.125875    0.749175    0.000000
    95  O2    c     0.840159    0.919170    0.082974    0.000000
    96  O2    c     0.038761    0.904885    0.416731    0.000000
    97  O2    c     0.893704    0.197542    0.973878    0.000000
    98  O2    c     0.762650    0.671705    0.311273    0.000000
    99  O2    c     0.271326    0.084515    0.645680    0.000000
   100  O3    c     0.078742    0.780118    0.481299    0.000000
   101  O2    c     0.184304    0.291760    0.810762    0.000000
   102  O2    c     0.671415    0.886584    0.144561    0.000000
   103  O2    c     0.186491    0.891202    0.355118    0.000000
   104  O2    c     0.684049    0.788048    0.017747    0.000000
   105  O2    c     0.070554    0.289069    0.686391    0.000000
   106  O2    c     0.776811    0.087844    0.853297    0.000000
   107  O2    c     0.266068    0.178922    0.524993    0.000000
   108  O2    c     0.874179    0.684486    0.182180    0.000000
   109  O2    c     0.295975    0.629088    0.248644    0.000000
   110  O2    c     0.324981    0.662532    0.582071    0.000000
   111  O2    c     0.300119    0.664368    0.914595    0.000000
   112  O2    c     0.654251    0.342741    0.748736    0.000000
   113  O3    c     0.602996    0.297144    0.083505    0.000000
   114  O2    c     0.637057    0.290361    0.415022    0.000000
   115  O2    c     0.360815    0.322645    0.967185    0.000000
   116  O2    c     0.652420    0.024591    0.301831    0.000000
   117  O2    c     0.924217    0.609168    0.634499    0.000000
   118  O2    c     0.597292    0.638105    0.468257    0.000000
   119  O2    c     0.306403    0.944053    0.803003    0.000000
   120  O2    c     0.014211    0.361253    0.132935    0.000000
   121  O3    c     0.288173    0.356255    0.357846    0.000000
   122  O2    c     0.026089    0.661409    0.026682    0.000000
   123  O2    c     0.598671    0.945005    0.695195    0.000000
   124  O2    c     0.649954    0.617461    0.859554    0.000000
   125  O2    c     0.926344    0.311086    0.528348    0.000000
   126  O2    c     0.348630    0.024998    0.195021    0.000000
   127  O3    c     0.747504    0.279594    0.002245    0.000000
   128  O2    c     0.661325    0.439942    0.343216    0.000000
   129  O2    c     0.505159    0.214463    0.675962    0.000000
   130  O3    c     0.214536    0.678164    0.505617    0.000000
   131  O2    c     0.282594    0.522423    0.840801    0.000000
   132  O2    c     0.437830    0.755685    0.174937    0.000000
   133  O2    c     0.276136    0.754706    0.320728    0.000000
   134  O2    c     0.451126    0.687850    0.986699    0.000000
   135  O2    c     0.201548    0.519745    0.652550    0.000000
   136  O2    c     0.677123    0.219875    0.821593    0.000000
   137  O2    c     0.491742    0.265767    0.487360    0.000000
   138  O2    c     0.740406    0.452341    0.150686    0.000000
   139  O3    c     0.768557    0.544058    0.018301    0.000000
   140  O3    c     0.436635    0.213754    0.354589    0.000000
   141  O2    c     0.726709    0.204514    0.694090    0.000000
   142  O2    c     0.184397    0.447122    0.528175    0.000000
   143  O2    c     0.514257    0.741533    0.859105    0.000000
   144  O2    c     0.218064    0.766704    0.195144    0.000000
   145  O2    c     0.509764    0.767475    0.303927    0.000000
   146  O2    c     0.233139    0.453864    0.970115    0.000000
   147  O2    c     0.183308    0.730506    0.636054    0.000000
   148  O2    c     0.444290    0.202627    0.804199    0.000000
   149  O2    c     0.702001    0.494934    0.468798    0.000000
   150  O2    c     0.758526    0.239596    0.133184    0.000000
   151  O2    c     0.212302    0.314418    0.895485    0.000000
   152  O2    c     0.651464    0.887692    0.229432    0.000000
   153  O3    c     0.060049    0.766189    0.566229    0.000000
   154  O2    c     0.731537    0.641478    0.397210    0.000000
   155  O2    c     0.297072    0.077879    0.730521    0.000000
   156  O2    c     0.882997    0.221501    0.060815    0.000000
   157  O3    c     0.272767    0.190668    0.439623    0.000000
   158  O2    c     0.878887    0.658338    0.096538    0.000000
   159  O2    c     0.744659    0.080373    0.768386    0.000000
   160  O2    c     0.659611    0.758099    0.932802    0.000000
   161  O2    c     0.061920    0.311858    0.600546    0.000000
   162  O2    c     0.210769    0.898236    0.268870    0.000000
   163  O2    c     0.569964    0.550283    0.988576    0.000000
   164  O2    c     0.424788    0.007256    0.323878    0.000000
   165  O2    c     0.948107    0.404580    0.652855    0.000000
   166  O2    c     0.382969    0.411955    0.489053    0.000000
   167  O2    c     0.535989    0.961788    0.823283    0.000000
   168  O2    c     0.995047    0.567740    0.150544    0.000000
   169  O2    c     0.524150    0.558978    0.342686    0.000000
   170  O2    c     0.002070    0.431957    0.006994    0.000000
   171  O2    c     0.380993    0.955664    0.675023    0.000000
   172  O2    c     0.422027    0.402001    0.840691    0.000000
   173  O3    c     0.921887    0.526169    0.503432    0.000000
   174  O2    c     0.565229    0.014261    0.174932    0.000000
   175  O2    c     0.560623    0.145646    0.249715    0.000000
   176  O2    c     0.805296    0.399236    0.580960    0.000000
   177  O2    c     0.569707    0.413462    0.914684    0.000000
   178  O2    c     0.390868    0.822294    0.749358    0.000000
   179  O2    c     0.135752    0.567065    0.080709    0.000000
   180  O2    c     0.385736    0.553631    0.416443    0.000000
   181  F     c     0.428226    0.885064    0.247031    0.000000
   182  F     c     0.064739    0.557546    0.571016    0.000000
   183  F     c     0.430710    0.541129    0.912748    0.000000
   184  F     c     0.524480    0.084031    0.747568    0.000000
   185  F     c     0.844545    0.429432    0.070941    0.000000
   186  F     c     0.474283    0.386350    0.410027    0.000000
   187  O2    s     0.910591    0.998023    0.000338    0.000000
   188  O2    s     0.971366    0.894751    0.332749    0.000000
   189  O2    s     0.044825    0.061505    0.666784    0.000000
   190  O2    s     0.039800    0.975443    0.500153    0.000000
   191  O2    s     0.979612    0.064891    0.831903    0.000000
   192  O2    s     0.899701    0.913888    0.166893    0.000000
   193  O2    s     0.323326    0.574835    0.332530    0.000000
   194  O2    s     0.385987    0.753802    0.665729    0.000000
   195  O2    s     0.216339    0.635525    0.997756    0.000000
   196  O2    s     0.628712    0.403572    0.831358    0.000000
   197  O2    s     0.561039    0.217240    0.167948    0.000000
   198  O2    s     0.723581    0.315159    0.498805    0.000000
   199  O3    s     0.568638    0.344145    0.996888    0.000000
   200  O2    s     0.736695    0.396840    0.664958    0.000000
   201  O2    s     0.630294    0.213068    0.331759    0.000000
   202  O2    s     0.392899    0.621909    0.500889    0.000000
   203  O2    s     0.205462    0.573266    0.165313    0.000000
   204  O2    s     0.329207    0.754006    0.832332    0.000000
   205  O2    s     0.110047    0.205534    0.967161    0.000000
   206  O2    s     0.758988    0.882179    0.301784    0.000000
   207  O2    s     0.064718    0.862850    0.640616    0.000000
   208  O2    s     0.850107    0.747129    0.469964    0.000000
   209  O2    s     0.194781    0.083211    0.802425    0.000000
   210  O2    s     0.877569    0.108723    0.134251    0.000000
   211  O3    s     0.179829    0.096579    0.362967    0.000000
   212  O2    s     0.899908    0.789572    0.028323    0.000000
   213  O2    s     0.850541    0.082229    0.696437    0.000000
   214  O2    s     0.762381    0.867337    0.860550    0.000000
   215  O2    s     0.060293    0.194012    0.529851    0.000000
   216  O2    s     0.095255    0.890026    0.196609    0.000000
   217  O2    s     0.900541    0.833146    0.248800    0.000000
   218  O2    s     0.097148    0.043535    0.584321    0.000000
   219  O2    s     0.913039    0.053657    0.915035    0.000000
   220  O2    s     0.046395    0.128811    0.749060    0.000000
   221  O2    s     0.837736    0.918620    0.082941    0.000000
   222  O2    s     0.041523    0.904587    0.416916    0.000000
   223  O2    s     0.899502    0.197584    0.976919    0.000000
   224  O2    s     0.761621    0.677306    0.314071    0.000000
   225  O2    s     0.265074    0.076558    0.648444    0.000000
   226  O3    s     0.069716    0.780497    0.482583    0.000000
   227  O2    s     0.185374    0.285311    0.813485    0.000000
   228  O2    s     0.677892    0.894163    0.147246    0.000000
   229  O2    s     0.187648    0.897239    0.352107    0.000000
   230  O2    s     0.690265    0.787204    0.015308    0.000000
   231  O2    s     0.063216    0.283378    0.683570    0.000000
   232  O2    s     0.775162    0.080306    0.850554    0.000000
   233  O2    s     0.258959    0.178778    0.521720    0.000000
   234  O2    s     0.881442    0.690226    0.179841    0.000000
   235  O2    s     0.301720    0.641277    0.248585    0.000000
   236  O2    s     0.314793    0.657236    0.582289    0.000000
   237  O2    s     0.306471    0.658787    0.914632    0.000000
   238  O2    s     0.648363    0.330997    0.748736    0.000000
   239  O3    s     0.615808    0.302840    0.085390    0.000000
   240  O2    s     0.632121    0.295872    0.415194    0.000000
   241  O2    s     0.362988    0.332212    0.965167    0.000000
   242  O2    s     0.641701    0.017496    0.299744    0.000000
   243  O2    s     0.930416    0.605880    0.632628    0.000000
   244  O2    s     0.593877    0.628424    0.466384    0.000000
   245  O2    s     0.316375    0.950834    0.800829    0.000000
   246  O2    s     0.008095    0.364440    0.130958    0.000000
   247  O3    s     0.300122    0.363755    0.360217    0.000000
   248  O2    s     0.019818    0.651901    0.028348    0.000000
   249  O2    s     0.595441    0.951725    0.697550    0.000000
   250  O2    s     0.640158    0.614045    0.861961    0.000000
   251  O2    s     0.932684    0.320047    0.530307    0.000000
   252  O2    s     0.351769    0.018436    0.197493    0.000000
   253  O3    s     0.758635    0.286592    0.005446    0.000000
   254  O2    s     0.654495    0.439522    0.345856    0.000000
   255  O2    s     0.505741    0.207503    0.679202    0.000000
   256  O3    s     0.210678    0.669498    0.509464    0.000000
   257  O2    s     0.290314    0.523056    0.844156    0.000000
   258  O2    s     0.437883    0.762699    0.178288    0.000000
   259  O2    s     0.284390    0.761981    0.317920    0.000000
   260  O2    s     0.450013    0.679867    0.983661    0.000000
   261  O2    s     0.194555    0.520030    0.649905    0.000000
   262  O2    s     0.669306    0.212782    0.818600    0.000000
   263  O2    s     0.492941    0.273628    0.484620    0.000000
   264  O2    s     0.747336    0.452441    0.148087    0.000000
   265  O3    s     0.777834    0.545705    0.021756    0.000000
   266  O3    s     0.444077    0.223987    0.357400    0.000000
   267  O2    s     0.718191    0.198880    0.696690    0.000000
   268  O2    s     0.179603    0.448594    0.530298    0.000000
   269  O2    s     0.511467    0.733075    0.861721    0.000000
   270  O2    s     0.226946    0.772406    0.197573    0.000000
   271  O2    s     0.507310    0.772761    0.301280    0.000000
   272  O2    s     0.241237    0.457157    0.967466    0.000000
   273  O2    s     0.179723    0.724166    0.633881    0.000000
   274  O2    s     0.446839    0.197678    0.801630    0.000000
   275  O2    s     0.696858    0.493218    0.466610    0.000000
   276  O2    s     0.763057    0.245513    0.131050    0.000000
   277  O2    s     0.222425    0.324117    0.896324    0.000000
   278  O2    s     0.642080    0.887932    0.230345    0.000000
   279  O3    s     0.060148    0.756384    0.568859    0.000000
   280  O2    s     0.723346    0.633181    0.397965    0.000000
   281  O2    s     0.306731    0.078113    0.731376    0.000000
   282  O2    s     0.882600    0.229253    0.061816    0.000000
   283  O3    s     0.284877    0.202038    0.440216    0.000000
   284  O2    s     0.879569    0.650574    0.096175    0.000000
   285  O2    s     0.735212    0.080631    0.767456    0.000000
   286  O2    s     0.649798    0.748756    0.931892    0.000000
   287  O2    s     0.062311    0.320211    0.599789    0.000000
   288  O2    s     0.219284    0.897129    0.267901    0.000000
   289  O2    s     0.566344    0.551363    0.985295    0.000000
   290  O2    s     0.423779    0.003320    0.320485    0.000000
   291  O2    s     0.951772    0.407503    0.650051    0.000000
   292  O2    s     0.386403    0.411893    0.486096    0.000000
   293  O2    s     0.536306    0.966386    0.819973    0.000000
   294  O2    s     0.991638    0.564359    0.147780    0.000000
   295  O2    s     0.525172    0.555436    0.345495    0.000000
   296  O2    s     0.999284    0.432331    0.009841    0.000000
   297  O2    s     0.386217    0.960887    0.678413    0.000000
   298  O2    s     0.422012    0.406979    0.844029    0.000000
   299  O3    s     0.925043    0.522422    0.507434    0.000000
   300  O2    s     0.560054    0.008782    0.178300    0.000000
   301  O2    s     0.555106    0.134414    0.249599    0.000000
   302  O2    s     0.814978    0.404216    0.581198    0.000000
   303  O2    s     0.564214    0.418132    0.914343    0.000000
   304  O2    s     0.396442    0.833271    0.749270    0.000000
   305  O2    s     0.126233    0.562445    0.080705    0.000000
   306  O2    s     0.390864    0.549110    0.416573    0.000000
   307  F     s     0.428053    0.884369    0.246789    0.000000
   308  F     s     0.064860    0.564191    0.568061    0.000000
   309  F     s     0.430029    0.541649    0.912530    0.000000
   310  F     s     0.524847    0.084478    0.747352    0.000000
   311  F     s     0.833714    0.425531    0.068239    0.000000
   312  F     s     0.465527    0.377722    0.408512    0.000000
--------------------------------------------------------------------------------

  Final Cartesian lattice vectors (Angstroms) :

       11.965478    0.001060   -0.011165
       -6.107832   10.374569    0.015649
       -0.385780   -0.090793   29.440154


  Final cell parameters and derivatives :

--------------------------------------------------------------------------------
       a           11.965483 Angstrom     dE/de1(xx)     0.002930 eV/strain
       b           12.039001 Angstrom     dE/de2(yy)     0.002830 eV/strain
       c           29.442822 Angstrom     dE/de3(zz)     0.002920 eV/strain
       alpha       89.696912 Degrees      dE/de4(yz)     0.000324 eV/strain
       beta        90.804229 Degrees      dE/de5(xz)     0.000092 eV/strain
       gamma      120.481610 Degrees      dE/de6(xy)    -0.000204 eV/strain
--------------------------------------------------------------------------------

  Primitive cell volume =          3654.759721 Angs**3

  Density of cell =      1.750619 g/cm**3

  Non-primitive cell volume =          3654.759721 Angs**3


  Final internal derivatives :

--------------------------------------------------------------------------------
   No.  Atomic          a             b             c           Radius
        Label          (eV)          (eV)          (eV)        (eV/Angs)
--------------------------------------------------------------------------------
      1 Ge    c       0.000000      0.000000      0.000000      0.000000
      2 Si    c       0.000995     -0.001221     -0.001530      0.000000
      3 Si    c       0.000185     -0.000028      0.001606      0.000000
      4 Si    c      -0.000162      0.000168      0.000547      0.000000
      5 Si    c      -0.000305      0.000784     -0.000491      0.000000
      6 Si    c      -0.000256      0.000192      0.001074      0.000000
      7 Si    c       0.000227     -0.001703      0.001224      0.000000
      8 Si    c       0.000216     -0.000164     -0.001614      0.000000
      9 Si    c       0.000014      0.000053     -0.001085      0.000000
     10 Si    c       0.000143      0.000761      0.000088      0.000000
     11 Si    c      -0.000051      0.000198     -0.000225      0.000000
     12 Si    c       0.000537     -0.000298     -0.003259      0.000000
     13 Si    c       0.000175      0.001343     -0.003913      0.000000
     14 Si    c       0.000419      0.001222      0.000113      0.000000
     15 Si    c       0.000146     -0.000082     -0.000495      0.000000
     16 Si    c       0.000038     -0.000040      0.000507      0.000000
     17 Si    c      -0.000164     -0.000184      0.000087      0.000000
     18 Si    c      -0.000497     -0.000031      0.000869      0.000000
     19 Si    c      -0.001308      0.001284     -0.003151      0.000000
     20 Si    c      -0.000580      0.000754      0.000514      0.000000
     21 Si    c      -0.000247      0.000080      0.000500      0.000000
     22 Si    c       0.001175     -0.000912      0.000112      0.000000
     23 Si    c      -0.000101     -0.000078      0.000297      0.000000
     24 Si    c       0.001141     -0.000452      0.000582      0.000000
     25 Si    c      -0.000542     -0.000322      0.001431      0.000000
     26 Si    c       0.000869     -0.000236      0.000192      0.000000
     27 Ge    c      -0.000128      0.000367      0.000213      0.000000
     28 Si    c       0.000318      0.000218     -0.000237      0.000000
     29 Si    c      -0.000615     -0.000003      0.000223      0.000000
     30 Si    c      -0.002449      0.000354      0.003372      0.000000
     31 Si    c      -0.000147     -0.000005      0.000318      0.000000
     32 Si    c      -0.000672      0.000792     -0.000009      0.000000
     33 Si    c       0.000639     -0.000220     -0.000104      0.000000
     34 Si    c       0.001200     -0.000457      0.000200      0.000000
     35 Si    c       0.000022     -0.000445      0.000109      0.000000
     36 Si    c      -0.000948      0.000278      0.000063      0.000000
     37 Si    c       0.000004     -0.000121     -0.002885      0.000000
     38 Si    c       0.001223     -0.000443     -0.001025      0.000000
     39 Si    c      -0.000041      0.000149     -0.000026      0.000000
     40 Si    c       0.000264      0.000208      0.000388      0.000000
     41 Si    c      -0.000538      0.000020     -0.001045      0.000000
     42 Si    c      -0.000410     -0.000602      0.002109      0.000000
     43 Ge    c      -0.000670     -0.000084      0.000406      0.000000
     44 Si    c      -0.001278      0.000630      0.000502      0.000000
     45 Si    c       0.000463     -0.000146      0.000328      0.000000
     46 Si    c       0.000796      0.000122      0.000852      0.000000
     47 Si    c       0.000007     -0.000176      0.000511      0.000000
     48 Si    c      -0.000864      0.000294     -0.000198      0.000000
     49 Si    c       0.000217     -0.001328      0.000249      0.000000
     50 Si    c      -0.000090      0.000271      0.000387      0.000000
     51 Si    c      -0.000057      0.000165      0.000183      0.000000
     52 Si    c      -0.000007      0.000126     -0.001757      0.000000
     53 Si    c       0.000093     -0.000152      0.000254      0.000000
     54 Si    c      -0.000348      0.000241      0.000072      0.000000
     55 Si    c      -0.000050      0.000021     -0.002222      0.000000
     56 Si    c      -0.000271     -0.000057     -0.001416      0.000000
     57 Si    c       0.000437     -0.000365      0.001914      0.000000
     58 Si    c      -0.000659      0.000198      0.001167      0.000000
     59 Si    c       0.000040      0.000009     -0.000378      0.000000
     60 Si    c      -0.000432     -0.000413      0.003630      0.000000
     61 O2    c       0.000147      0.000020     -0.000084      0.000000
     62 O2    c       0.000272     -0.000621      0.000320      0.000000
     63 O2    c      -0.000086      0.000207      0.000195      0.000000
     64 O2    c       0.000055     -0.000018      0.000059      0.000000
     65 O2    c       0.000225      0.000321     -0.001006      0.000000
     66 O2    c      -0.000762      0.000474     -0.001129      0.000000
     67 O2    c       0.000699      0.000103     -0.000304      0.000000
     68 O2    c       0.000216     -0.000044      0.000294      0.000000
     69 O2    c       0.000031      0.000445      0.000092      0.000000
     70 O2    c      -0.000612      0.000527      0.000898      0.000000
     71 O2    c       0.000012     -0.000590      0.002722      0.000000
     72 O2    c       0.000565     -0.000402      0.000998      0.000000
     73 O3    c       0.003059     -0.001329     -0.001445      0.000000
     74 O2    c      -0.000227      0.000122      0.000485      0.000000
     75 O2    c      -0.000416     -0.000206     -0.000603      0.000000
     76 O2    c       0.000392     -0.000067     -0.000470      0.000000
     77 O2    c       0.000151      0.000094      0.001172      0.000000
     78 O2    c       0.000136     -0.000183      0.000467      0.000000
     79 O2    c       0.001449     -0.000051      0.000957      0.000000
     80 O2    c       0.000354     -0.000298     -0.000875      0.000000
     81 O2    c       0.000023     -0.000164      0.000056      0.000000
     82 O2    c       0.000100     -0.000017     -0.000015      0.000000
     83 O2    c      -0.000365      0.000326     -0.000392      0.000000
     84 O2    c      -0.000068     -0.000264     -0.000405      0.000000
     85 O3    c      -0.000095     -0.000439      0.000633      0.000000
     86 O2    c       0.002121     -0.002463      0.000283      0.000000
     87 O2    c      -0.000209      0.000046      0.000255      0.000000
     88 O2    c      -0.000016      0.000069      0.000622      0.000000
     89 O2    c      -0.000020      0.000069     -0.000092      0.000000
     90 O2    c       0.000183     -0.000213      0.000851      0.000000
     91 O2    c       0.000814     -0.000466     -0.006396      0.000000
     92 O2    c       0.000038     -0.000100      0.000884      0.000000
     93 O2    c      -0.000529     -0.000411     -0.003569      0.000000
     94 O2    c      -0.000671      0.000550     -0.003585      0.000000
     95 O2    c      -0.000603      0.000640      0.005762      0.000000
     96 O2    c      -0.000200     -0.000562      0.004622      0.000000
     97 O2    c      -0.002327      0.001654     -0.000112      0.000000
     98 O2    c       0.000166      0.000774     -0.000582      0.000000
     99 O2    c       0.000122     -0.000054      0.000294      0.000000
    100 O3    c       0.000036     -0.000070      0.000239      0.000000
    101 O2    c      -0.000184     -0.000197     -0.000271      0.000000
    102 O2    c       0.000267      0.000008     -0.000308      0.000000
    103 O2    c      -0.000469      0.000383      0.000313      0.000000
    104 O2    c      -0.002233     -0.000151     -0.001298      0.000000
    105 O2    c       0.000015      0.000067     -0.000280      0.000000
    106 O2    c       0.000532     -0.000488      0.000230      0.000000
    107 O2    c       0.000049     -0.000051      0.000096      0.000000
    108 O2    c       0.000086      0.000230     -0.000592      0.000000
    109 O2    c       0.000036      0.000209     -0.000426      0.000000
    110 O2    c      -0.000044      0.000067      0.000688      0.000000
    111 O2    c      -0.000100     -0.000008      0.001073      0.000000
    112 O2    c       0.000037     -0.000200     -0.000324      0.000000
    113 O3    c       0.002835      0.002040     -0.004058      0.000000
    114 O2    c       0.000253     -0.000207     -0.000677      0.000000
    115 O2    c      -0.000446      0.000083     -0.000872      0.000000
    116 O2    c      -0.000114      0.000369      0.000046      0.000000
    117 O2    c      -0.000131     -0.000042      0.000129      0.000000
    118 O2    c      -0.000270      0.000144      0.000307      0.000000
    119 O2    c       0.000141     -0.000233      0.000022      0.000000
    120 O2    c       0.000441      0.000613      0.000895      0.000000
    121 O3    c      -0.000388      0.000284     -0.000314      0.000000
    122 O2    c       0.000301     -0.000467      0.000210      0.000000
    123 O2    c       0.000032     -0.000173     -0.000194      0.000000
    124 O2    c       0.000286     -0.000362     -0.000024      0.000000
    125 O2    c      -0.000036      0.000019     -0.000151      0.000000
    126 O2    c       0.000153      0.000204     -0.000117      0.000000
    127 O3    c      -0.000014      0.000591      0.004835      0.000000
    128 O2    c       0.000242      0.000018     -0.000209      0.000000
    129 O2    c       0.000119      0.000257     -0.000341      0.000000
    130 O3    c       0.000323     -0.000097     -0.000128      0.000000
    131 O2    c      -0.000376      0.000417     -0.000705      0.000000
    132 O2    c      -0.000118     -0.000262      0.000046      0.000000
    133 O2    c      -0.000061     -0.000190      0.000145      0.000000
    134 O2    c      -0.000173      0.000270      0.000500      0.000000
    135 O2    c       0.000185     -0.000005      0.000180      0.000000
    136 O2    c       0.000035      0.000146      0.000089      0.000000
    137 O2    c       0.000156     -0.000169      0.000216      0.000000
    138 O2    c       0.000052      0.000337     -0.000132      0.000000
    139 O3    c      -0.003537      0.000279     -0.001369      0.000000
    140 O3    c       0.000796     -0.000316     -0.001088      0.000000
    141 O2    c      -0.000135      0.000268     -0.000225      0.000000
    142 O2    c       0.000170     -0.000069     -0.000352      0.000000
    143 O2    c      -0.000723      0.000363     -0.000647      0.000000
    144 O2    c       0.000385     -0.000584     -0.000107      0.000000
    145 O2    c      -0.000048     -0.000249      0.000421      0.000000
    146 O2    c      -0.000407      0.000605      0.000778      0.000000
    147 O2    c       0.000048      0.000017      0.000193      0.000000
    148 O2    c      -0.000013      0.000149      0.000355      0.000000
    149 O2    c       0.000237     -0.000466      0.000498      0.000000
    150 O2    c      -0.001853      0.001326      0.000450      0.000000
    151 O2    c       0.000368      0.000135      0.000262      0.000000
    152 O2    c      -0.000304      0.000097     -0.000896      0.000000
    153 O3    c      -0.000107     -0.000077     -0.000879      0.000000
    154 O2    c       0.000102      0.000013     -0.001065      0.000000
    155 O2    c       0.000137     -0.000039      0.000414      0.000000
    156 O2    c      -0.000479      0.000074     -0.007084      0.000000
    157 O3    c      -0.000126      0.000027     -0.000367      0.000000
    158 O2    c      -0.000454     -0.000520      0.004963      0.000000
    159 O2    c      -0.000059     -0.000018      0.000333      0.000000
    160 O2    c      -0.000005     -0.000118      0.000643      0.000000
    161 O2    c       0.000031      0.000018     -0.000269      0.000000
    162 O2    c       0.000273     -0.000063      0.000822      0.000000
    163 O2    c       0.000760     -0.000339      0.001794      0.000000
    164 O2    c       0.000165     -0.000042     -0.000021      0.000000
    165 O2    c      -0.000113      0.000052      0.000131      0.000000
    166 O2    c      -0.000094      0.000269      0.000131      0.000000
    167 O2    c      -0.000025     -0.000106      0.000151      0.000000
    168 O2    c      -0.000124     -0.000006      0.000145      0.000000
    169 O2    c       0.000002     -0.000058     -0.000163      0.000000
    170 O2    c       0.000065     -0.000542     -0.000292      0.000000
    171 O2    c       0.000133     -0.000252     -0.000106      0.000000
    172 O2    c       0.000749     -0.000220     -0.000347      0.000000
    173 O3    c      -0.000224      0.000049     -0.000857      0.000000
    174 O2    c      -0.000367      0.000631      0.000269      0.000000
    175 O2    c      -0.000020     -0.000197      0.000205      0.000000
    176 O2    c      -0.000004      0.000018      0.000072      0.000000
    177 O2    c       0.000141      0.000173      0.000576      0.000000
    178 O2    c       0.000091     -0.000005     -0.000134      0.000000
    179 O2    c       0.000196     -0.000127      0.001331      0.000000
    180 O2    c      -0.000134      0.000147      0.000017      0.000000
    181 F     c       0.000049     -0.000106     -0.000013      0.000000
    182 F     c       0.000068      0.000031     -0.000041      0.000000
    183 F     c       0.000074      0.000037      0.000126      0.000000
    184 F     c      -0.000005     -0.000026     -0.000002      0.000000
    185 F     c      -0.000597     -0.000012      0.000431      0.000000
    186 F     c      -0.000040      0.000096      0.000407      0.000000
    187 O2    s       0.000188      0.000230      0.000528      0.000000
    188 O2    s      -0.000154     -0.000101     -0.000657      0.000000
    189 O2    s      -0.000016     -0.000022      0.000553      0.000000
    190 O2    s       0.000012     -0.000071     -0.000632      0.000000
    191 O2    s       0.000016      0.000042      0.000189      0.000000
    192 O2    s       0.000529     -0.000384      0.000692      0.000000
    193 O2    s      -0.000374      0.000009      0.000563      0.000000
    194 O2    s       0.000042     -0.000066      0.000075      0.000000
    195 O2    s      -0.000275      0.000653      0.000390      0.000000
    196 O2    s       0.000305     -0.000385      0.000127      0.000000
    197 O2    s      -0.001160      0.000275     -0.001018      0.000000
    198 O2    s       0.000005     -0.000041      0.000050      0.000000
    199 O3    s      -0.004320      0.000362      0.002325      0.000000
    200 O2    s      -0.000042      0.000044     -0.000275      0.000000
    201 O2    s       0.000233     -0.000107     -0.000418      0.000000
    202 O2    s      -0.000013      0.000166     -0.000055      0.000000
    203 O2    s       0.000503     -0.000646     -0.001063      0.000000
    204 O2    s      -0.000199      0.000155     -0.000278      0.000000
    205 O2    s       0.001337     -0.000027      0.000728      0.000000
    206 O2    s       0.000292     -0.000240      0.001792      0.000000
    207 O2    s      -0.000039      0.000081      0.000313      0.000000
    208 O2    s       0.000183      0.000216      0.000481      0.000000
    209 O2    s       0.000061     -0.000015      0.000978      0.000000
    210 O2    s       0.000761     -0.000990      0.002033      0.000000
    211 O3    s      -0.000203      0.000141     -0.001498      0.000000
    212 O2    s       0.002194      0.000245     -0.002660      0.000000
    213 O2    s       0.000277     -0.000072     -0.000686      0.000000
    214 O2    s       0.000060     -0.000076     -0.002320      0.000000
    215 O2    s      -0.000054     -0.000028     -0.000180      0.000000
    216 O2    s      -0.000513     -0.000007     -0.001210      0.000000
    217 O2    s      -0.000063      0.000056      0.001958      0.000000
    218 O2    s      -0.000064      0.000063     -0.000233      0.000000
    219 O2    s       0.000498     -0.000575     -0.000662      0.000000
    220 O2    s       0.000495     -0.000450      0.000232      0.000000
    221 O2    s       0.000478      0.000675      0.001525      0.000000
    222 O2    s      -0.000102      0.000526     -0.001218      0.000000
    223 O2    s      -0.000598      0.000891      0.000167      0.000000
    224 O2    s       0.000103      0.000167     -0.000185      0.000000
    225 O2    s      -0.000023      0.000102     -0.000248      0.000000
    226 O3    s      -0.000135      0.000172     -0.000509      0.000000
    227 O2    s       0.000269     -0.000154     -0.000431      0.000000
    228 O2    s       0.000137     -0.000115      0.000375      0.000000
    229 O2    s       0.000066      0.000092     -0.000697      0.000000
    230 O2    s      -0.001829      0.000951     -0.001198      0.000000
    231 O2    s      -0.000024     -0.000094      0.000427      0.000000
    232 O2    s      -0.000053      0.000097      0.000044      0.000000
    233 O2    s       0.000091     -0.000051      0.000138      0.000000
    234 O2    s       0.000063      0.000483      0.000890      0.000000
    235 O2    s       0.000034     -0.000317      0.001868      0.000000
    236 O2    s       0.000150     -0.000011     -0.000281      0.000000
    237 O2    s      -0.000290      0.000299     -0.000644      0.000000
    238 O2    s      -0.000175      0.000353      0.000333      0.000000
    239 O3    s      -0.004610     -0.002429      0.003343      0.000000
    240 O2    s      -0.000125     -0.000130     -0.000078      0.000000
    241 O2    s       0.000146     -0.000556      0.002042      0.000000
    242 O2    s      -0.000158      0.000003      0.000928      0.000000
    243 O2    s      -0.000054      0.000086      0.000359      0.000000
    244 O2    s      -0.000220      0.000296      0.000056      0.000000
    245 O2    s      -0.000060      0.000083      0.000309      0.000000
    246 O2    s       0.001063     -0.000379      0.000912      0.000000
    247 O3    s       0.000242      0.000012     -0.000447      0.000000
    248 O2    s       0.000779      0.000472     -0.001559      0.000000
    249 O2    s       0.000023     -0.000013     -0.000375      0.000000
    250 O2    s      -0.000088     -0.000111     -0.000874      0.000000
    251 O2    s      -0.000047     -0.000045     -0.000019      0.000000
    252 O2    s      -0.000228      0.000064     -0.000923      0.000000
    253 O3    s       0.000940     -0.001215     -0.006548      0.000000
    254 O2    s      -0.000297      0.000055     -0.000510      0.000000
    255 O2    s      -0.000102     -0.000023     -0.000429      0.000000
    256 O3    s      -0.000196      0.000243     -0.000793      0.000000
    257 O2    s      -0.000070      0.000128     -0.000568      0.000000
    258 O2    s       0.000023      0.000276     -0.001198      0.000000
    259 O2    s       0.000167     -0.000003      0.000634      0.000000
    260 O2    s       0.000043     -0.000056      0.000361      0.000000
    261 O2    s      -0.000026      0.000010      0.000372      0.000000
    262 O2    s      -0.000134      0.000053      0.000758      0.000000
    263 O2    s      -0.000129     -0.000003      0.000431      0.000000
    264 O2    s       0.000112      0.000901      0.001292      0.000000
    265 O3    s       0.003319     -0.000445     -0.002027      0.000000
    266 O3    s      -0.000550     -0.000227      0.000151      0.000000
    267 O2    s       0.000107     -0.000084     -0.000324      0.000000
    268 O2    s      -0.000087     -0.000010      0.000142      0.000000
    269 O2    s      -0.000054      0.000091     -0.000263      0.000000
    270 O2    s      -0.000619      0.000670     -0.000366      0.000000
    271 O2    s      -0.000093      0.000073      0.000189      0.000000
    272 O2    s       0.000294     -0.000573     -0.000201      0.000000
    273 O2    s       0.000023      0.000014      0.000151      0.000000
    274 O2    s      -0.000170     -0.000037      0.000143      0.000000
    275 O2    s      -0.000004      0.000065      0.000225      0.000000
    276 O2    s       0.000399     -0.001272      0.004218      0.000000
    277 O2    s      -0.000347     -0.000267      0.000083      0.000000
    278 O2    s       0.000222      0.000039      0.000108      0.000000
    279 O3    s       0.000170      0.000192      0.000173      0.000000
    280 O2    s      -0.000162      0.000111     -0.000134      0.000000
    281 O2    s      -0.000172      0.000065     -0.000244      0.000000
    282 O2    s       0.000842      0.000030     -0.000535      0.000000
    283 O3    s       0.000075     -0.000184      0.000680      0.000000
    284 O2    s       0.001178      0.000063      0.001890      0.000000
    285 O2    s       0.000116     -0.000029     -0.000282      0.000000
    286 O2    s      -0.000248      0.000249      0.000395      0.000000
    287 O2    s      -0.000037     -0.000111     -0.000001      0.000000
    288 O2    s      -0.000240      0.000012      0.000313      0.000000
    289 O2    s      -0.001529      0.000437     -0.002629      0.000000
    290 O2    s       0.000015      0.000173      0.000964      0.000000
    291 O2    s       0.000033     -0.000007      0.000111      0.000000
    292 O2    s      -0.000026      0.000033      0.000201      0.000000
    293 O2    s      -0.000172     -0.000015      0.000542      0.000000
    294 O2    s      -0.000182      0.000448      0.000672      0.000000
    295 O2    s      -0.000208      0.000309     -0.000147      0.000000
    296 O2    s       0.000026      0.000325     -0.000503      0.000000
    297 O2    s      -0.000020      0.000019     -0.000369      0.000000
    298 O2    s       0.000234     -0.000470     -0.000776      0.000000
    299 O3    s       0.000102     -0.000033      0.000178      0.000000
    300 O2    s      -0.000021     -0.000205     -0.000498      0.000000
    301 O2    s       0.000127      0.000179      0.000629      0.000000
    302 O2    s      -0.000016     -0.000073     -0.000308      0.000000
    303 O2    s      -0.000314     -0.000180     -0.002739      0.000000
    304 O2    s      -0.000141     -0.000106     -0.000011      0.000000
    305 O2    s       0.000755      0.000107     -0.001208      0.000000
    306 O2    s      -0.000061      0.000098     -0.000229      0.000000
    307 F     s      -0.000042      0.000262      0.000416      0.000000
    308 F     s      -0.000031     -0.000153      0.000534      0.000000
    309 F     s      -0.000049     -0.000167     -0.000023      0.000000
    310 F     s      -0.000045      0.000007      0.000110      0.000000
    311 F     s       0.001310      0.000113     -0.000427      0.000000
    312 F     s       0.000340      0.000091     -0.000131      0.000000
--------------------------------------------------------------------------------
  Maximum abs         0.004610      0.002463      0.007084      0.000000
--------------------------------------------------------------------------------


  Time to end of optimisation =       7.6629 seconds


  Peak dynamic memory used =      19.13 MB 


  Timing analysis for GULP :

--------------------------------------------------------------------------------
  Task / Subroutine                                          Time (Seconds)
--------------------------------------------------------------------------------
  Calculation of reciprocal space energy and derivatives          0.2980
  Calculation of real space energy and derivatives                6.2826
  Calculation of three-body energy and derivatives                0.6911
  Calculation of matrix inversion                                 0.1920
--------------------------------------------------------------------------------
  Total CPU time                                                  7.6629
--------------------------------------------------------------------------------


  Dump file written as out.res                                                 
  CIF file written as out.cif                                                 


  Job Finished at 21:58.09  1st December   2016                               

