********************************************************************************
*                       GENERAL UTILITY LATTICE PROGRAM                        *
*                                 Julian Gale                                  *
*                      Nanochemistry Research Institute                        *
*                           Department of Chemistry                            *
*                    Curtin University, Western Australia                      *
********************************************************************************
* Version = 4.2.0 * Last modified =  20th January 2014                         *
********************************************************************************
*  optimise     - perform optimisation run                                     *
*  conp         - constant pressure calculation                                *
*  qok          - running with non charge neutral cell is OK                   *
********************************************************************************

  Job Started  at 20:13.41  1st December   2016                               

  Number of CPUs =     1


  Total number of configurations input =   1

********************************************************************************
*  Input for Configuration =   1                                               *
********************************************************************************

  Formula = Ge3Si57O120F6                                               

  Number of irreducible atoms/shells =     312


  Total number atoms/shells =     312

  Dimensionality = 3               :  Bulk   


  Charge on solid   =  -6.000000 =>neutralising background added


  Cartesian lattice vectors (Angstroms) :

       11.968973    0.000000    0.000000
       -6.120336   10.351139    0.000000
        0.066514    0.098026   29.466846

  Cell parameters (Angstroms/Degrees):

  a =      11.9690    alpha =  89.9018
  b =      12.0252    beta  =  89.8707
  c =      29.4671    gamma = 120.5946

  Initial cell volume =        3650.721258 Angs**3

  Temperature of configuration =  0.000     K 

  Pressure of configuration =         0.000 GPa 

  Fractional coordinates of asymmetric unit :

--------------------------------------------------------------------------------
   No.  Atomic       x           y          z         Charge      Occupancy
        Label      (Frac)      (Frac)     (Frac)        (e)         (Frac)  
--------------------------------------------------------------------------------
      1 Ge    c    0.699600    0.375700    0.033890     4.00000    1.000000    
      2 Si    c    0.627152 *  0.318100 *  0.362454 *   4.00000    1.000000    
      3 Si    c    0.676441 *  0.297958 *  0.696814 *   4.00000    1.000000    
      4 Si    c    0.297268 *  0.622209 *  0.528622 *   4.00000    1.000000    
      5 Si    c    0.372818 *  0.675332 *  0.861194 *   4.00000    1.000000    
      6 Si    c    0.315496 *  0.704522 *  0.195435 *   4.00000    1.000000    
      7 Si    c    0.364503 *  0.694710 *  0.295843 *   4.00000    1.000000    
      8 Si    c    0.314519 *  0.626140 *  0.963621 *   4.00000    1.000000    
      9 Si    c    0.298217 *  0.677030 *  0.629263 *   4.00000    1.000000    
     10 Si    c    0.621291 *  0.297850 *  0.797402 *   4.00000    1.000000    
     11 Si    c    0.680922 *  0.383794 *  0.464439 *   4.00000    1.000000    
     12 Si    c    0.685735 *  0.318353 *  0.132562 *   4.00000    1.000000    
     13 Si    c    0.527708 *  0.412445 *  0.966058 *   4.00000    1.000000    
     14 Si    c    0.579680 *  0.099361 *  0.301718 *   4.00000    1.000000    
     15 Si    c    0.887673 *  0.469794 *  0.631608 *   4.00000    1.000000    
     16 Si    c    0.470265 *  0.589661 *  0.461385 *   4.00000    1.000000    
     17 Si    c    0.415976 *  0.888331 *  0.796335 *   4.00000    1.000000    
     18 Si    c    0.105528 *  0.535444 *  0.128311 *   4.00000    1.000000    
     19 Si    c    0.410482 *  0.529446 *  0.358453 *   4.00000    1.000000    
     20 Si    c    0.101865 *  0.589078 *  0.025490 *   4.00000    1.000000    
     21 Si    c    0.467588 *  0.887574 *  0.694766 *   4.00000    1.000000    
     22 Si    c    0.580398 *  0.468199 *  0.862143 *   4.00000    1.000000    
     23 Si    c    0.888203 *  0.418956 *  0.530144 *   4.00000    1.000000    
     24 Si    c    0.529130 *  0.110883 *  0.201304 *   4.00000    1.000000    
     25 Si    c    0.294738 *  0.395326 *  0.844095 *   4.00000    1.000000    
     26 Si    c    0.598871 *  0.903871 *  0.183467 *   4.00000    1.000000    
     27 Si    c    0.097150 *  0.700425 *  0.514543 *   4.00000    1.000000    
     28 Ge    c    0.685088 *  0.587156 *  0.353380 *   4.00000    1.000000    
     29 Si    c    0.397245 *  0.096292 *  0.681546 *   4.00000    1.000000    
     30 Si    c    0.893101 *  0.298784 *  0.010068 *   4.00000    1.000000    
     31 Si    c    0.398445 *  0.305722 *  0.477883 *   4.00000    1.000000    
     32 Si    c    0.890562 *  0.604976 *  0.142623 *   4.00000    1.000000    
     33 Si    c    0.698952 *  0.097593 *  0.811331 *   4.00000    1.000000    
     34 Si    c    0.596172 *  0.697441 *  0.979303 *   4.00000    1.000000    
     35 Si    c    0.096166 *  0.397848 *  0.645265 *   4.00000    1.000000    
     36 Si    c    0.293719 *  0.896976 *  0.313366 *   4.00000    1.000000    
     37 Ge    c    0.263686 *  0.360408 *  0.943859 *   4.00000    1.000000    
     38 Si    c    0.653014 *  0.898102 *  0.284109 *   4.00000    1.000000    
     39 Si    c    0.089686 *  0.749663 *  0.615374 *   4.00000    1.000000    
     40 Si    c    0.754990 *  0.670129 *  0.449210 *   4.00000    1.000000    
     41 Si    c    0.338123 *  0.088070 *  0.782149 *   4.00000    1.000000    
     42 Si    c    0.902569 *  0.252069 *  0.113082 *   4.00000    1.000000    
     43 Si    c    0.339818 *  0.249295 *  0.376188 *   4.00000    1.000000    
     44 Si    c    0.894801 *  0.663231 *  0.040185 *   4.00000    1.000000    
     45 Si    c    0.748017 *  0.090149 *  0.710442 *   4.00000    1.000000    
     46 Si    c    0.659504 *  0.748743 *  0.877172 *   4.00000    1.000000    
     47 Si    c    0.087551 *  0.340609 *  0.544594 *   4.00000    1.000000    
     48 Si    c    0.245455 *  0.912391 *  0.212984 *   4.00000    1.000000    
     49 Si    c    0.979363 *  0.129517 *  0.962031 *   4.00000    1.000000    
     50 Si    c    0.871420 *  0.836278 *  0.298602 *   4.00000    1.000000    
     51 Si    c    0.150120 *  0.028616 *  0.630245 *   4.00000    1.000000    
     52 Si    c    0.031621 *  0.882117 *  0.465027 *   4.00000    1.000000    
     53 Si    c    0.120103 *  0.148933 *  0.794756 *   4.00000    1.000000    
     54 Si    c    0.846564 *  0.975204 *  0.130730 *   4.00000    1.000000    
     55 Si    c    0.116286 *  0.967477 *  0.362806 *   4.00000    1.000000    
     56 Si    c    0.846263 *  0.886698 *  0.028810 *   4.00000    1.000000    
     57 Si    c    0.026604 *  0.148152 *  0.694583 *   4.00000    1.000000    
     58 Si    c    0.879029 *  0.030898 *  0.862162 *   4.00000    1.000000    
     59 Si    c    0.151139 *  0.125411 *  0.529836 *   4.00000    1.000000    
     60 Si    c    0.966012 *  0.852967 *  0.196230 *   4.00000    1.000000    
     61 O2    c    0.922667 *  0.008728 *  0.996757 *   0.87073    1.000000    
     62 O2    c    0.997205 *  0.927947 *  0.329542 *   0.87073    1.000000    
     63 O2    c    0.066813 *  0.069275 *  0.661141 *   0.87073    1.000000    
     64 O2    c    0.077524 *  0.006479 *  0.496196 *   0.87073    1.000000    
     65 O2    c    0.998670 *  0.072614 *  0.828164 *   0.87073    1.000000    
     66 O2    c    0.929210 *  0.937124 *  0.163558 *   0.87073    1.000000    
     67 O2    c    0.322243 *  0.569278 *  0.328190 *   0.87073    1.000000    
     68 O2    c    0.421077 *  0.763203 *  0.662054 *   0.87073    1.000000    
     69 O2    c    0.231643 *  0.671709 *  0.994697 *   0.87073    1.000000    
     70 O2    c    0.658430 *  0.420243 *  0.830126 *   0.87073    1.000000    
     71 O2    c    0.579834 *  0.240948 *  0.171879 *   0.87073    1.000000    
     72 O2    c    0.761199 *  0.343526 *  0.497993 *   0.87073    1.000000    
     73 O3    c    0.572525 *  0.335166 *  0.996749 *   1.33043    1.000000    
     74 O2    c    0.762247 *  0.421988 *  0.664215 *   0.87073    1.000000    
     75 O2    c    0.658513 *  0.219774 *  0.335962 *   0.87073    1.000000    
     76 O2    c    0.418991 *  0.661457 *  0.494623 *   0.87073    1.000000    
     77 O2    c    0.230797 *  0.585802 *  0.160737 *   0.87073    1.000000    
     78 O2    c    0.338764 *  0.762075 *  0.828583 *   0.87073    1.000000    
     79 O3    c    0.128693 *  0.214408 *  0.966315 *   1.33043    1.000000    
     80 O2    c    0.774820 *  0.893769 *  0.305035 *   0.87073    1.000000    
     81 O2    c    0.088257 *  0.874449 *  0.635549 *   0.87073    1.000000    
     82 O2    c    0.877972 *  0.790778 *  0.474410 *   0.87073    1.000000    
     83 O2    c    0.210758 *  0.086220 *  0.801890 *   0.87073    1.000000    
     84 O2    c    0.907081 *  0.129808 *  0.134386 *   0.87073    1.000000    
     85 O2    c    0.213168 *  0.122086 *  0.357125 *   0.87073    1.000000    
     86 O2    c    0.913232 *  0.800661 *  0.023336 *   0.87073    1.000000    
     87 O2    c    0.872213 *  0.088051 *  0.689293 *   0.87073    1.000000    
     88 O2    c    0.784357 *  0.875626 *  0.856625 *   0.87073    1.000000    
     89 O2    c    0.085464 *  0.213372 *  0.524957 *   0.87073    1.000000    
     90 O2    c    0.121693 *  0.915641 *  0.192360 *   0.87073    1.000000    
     91 O2    c    0.923092 *  0.859777 *  0.246755 *   0.87073    1.000000    
     92 O2    c    0.139715 *  0.069151 *  0.579565 *   0.87073    1.000000    
     93 O2    c    0.930059 *  0.065650 *  0.912492 *   0.87073    1.000000    
     94 O2    c    0.063942 *  0.127178 *  0.744356 *   0.87073    1.000000    
     95 O2    c    0.855610 *  0.934248 *  0.080152 *   0.87073    1.000000    
     96 O2    c    0.065407 *  0.932791 *  0.414022 *   0.87073    1.000000    
     97 O2    c    0.910437 *  0.213266 *  0.971862 *   0.87073    1.000000    
     98 O3    c    0.798973 *  0.689976 *  0.310907 *   1.33043    1.000000    
     99 O2    c    0.301762 *  0.099689 *  0.643112 *   0.87073    1.000000    
    100 O2    c    0.101714 *  0.800455 *  0.476444 *   0.87073    1.000000    
    101 O2    c    0.206767 *  0.303116 *  0.802232 *   0.87073    1.000000    
    102 O2    c    0.695016 *  0.904023 *  0.144558 *   0.87073    1.000000    
    103 O2    c    0.196795 *  0.895995 *  0.352182 *   0.87073    1.000000    
    104 O2    c    0.692886 *  0.798150 *  0.016869 *   0.87073    1.000000    
    105 O2    c    0.098445 *  0.301070 *  0.683346 *   0.87073    1.000000    
    106 O2    c    0.796444 *  0.099297 *  0.849710 *   0.87073    1.000000    
    107 O2    c    0.303735 *  0.213172 *  0.517622 *   0.87073    1.000000    
    108 O2    c    0.895789 *  0.702916 *  0.181386 *   0.87073    1.000000    
    109 O2    c    0.310616 *  0.641159 *  0.244931 *   0.87073    1.000000    
    110 O2    c    0.356158 *  0.679113 *  0.578774 *   0.87073    1.000000    
    111 O2    c    0.317173 *  0.675678 *  0.911447 *   0.87073    1.000000    
    112 O2    c    0.678713 *  0.355659 *  0.747057 *   0.87073    1.000000    
    113 O3    c    0.612457 *  0.303555 *  0.085813 *   1.33043    1.000000    
    114 O2    c    0.680373 *  0.328135 *  0.414473 *   0.87073    1.000000    
    115 O3    c    0.373447 *  0.323419 *  0.968415 *   1.33043    1.000000    
    116 O2    c    0.665878 *  0.030605 *  0.303287 *   0.87073    1.000000    
    117 O2    c    0.956936 *  0.626090 *  0.633891 *   0.87073    1.000000    
    118 O2    c    0.626990 *  0.676330 *  0.464487 *   0.87073    1.000000    
    119 O2    c    0.328629 *  0.956126 *  0.800322 *   0.87073    1.000000    
    120 O2    c    0.034031 *  0.379569 *  0.130203 *   0.87073    1.000000    
    121 O2    c    0.330210 *  0.371556 *  0.358615 *   0.87073    1.000000    
    122 O2    c    0.029522 *  0.671290 *  0.024178 *   0.87073    1.000000    
    123 O2    c    0.624576 *  0.957463 *  0.692264 *   0.87073    1.000000    
    124 O2    c    0.665544 *  0.625024 *  0.859170 *   0.87073    1.000000    
    125 O2    c    0.955458 *  0.331002 *  0.526000 *   0.87073    1.000000    
    126 O2    c    0.372624 *  0.044228 *  0.196207 *   0.87073    1.000000    
    127 O3    c    0.756442 *  0.285525 *  0.002477 *   1.33043    1.000000    
    128 O3    c    0.702718 *  0.453863 *  0.337684 *   1.33043    1.000000    
    129 O2    c    0.532927 *  0.230531 *  0.674213 *   0.87073    1.000000    
    130 O2    c    0.229433 *  0.697164 *  0.506633 *   0.87073    1.000000    
    131 O2    c    0.300317 *  0.533086 *  0.838252 *   0.87073    1.000000    
    132 O2    c    0.460612 *  0.773764 *  0.173892 *   0.87073    1.000000    
    133 O2    c    0.288619 *  0.760566 *  0.318734 *   0.87073    1.000000    
    134 O2    c    0.461837 *  0.698969 *  0.983721 *   0.87073    1.000000    
    135 O2    c    0.230884 *  0.533513 *  0.651692 *   0.87073    1.000000    
    136 O2    c    0.696311 *  0.229669 *  0.819221 *   0.87073    1.000000    
    137 O2    c    0.533964 *  0.309970 *  0.484314 *   0.87073    1.000000    
    138 O2    c    0.759376 *  0.467858 *  0.150809 *   0.87073    1.000000    
    139 O3    c    0.768148 *  0.548117 *  0.019639 *   1.33043    1.000000    
    140 O2    c    0.469314 *  0.253647 *  0.358876 *   0.87073    1.000000    
    141 O2    c    0.750350 *  0.216848 *  0.691076 *   0.87073    1.000000    
    142 O2    c    0.216197 *  0.465495 *  0.524588 *   0.87073    1.000000    
    143 O2    c    0.528749 *  0.740932 *  0.859566 *   0.87073    1.000000    
    144 O2    c    0.241296 *  0.785645 *  0.192486 *   0.87073    1.000000    
    145 O2    c    0.520725 *  0.774311 *  0.302074 *   0.87073    1.000000    
    146 O3    c    0.233027 *  0.473633 *  0.971093 *   1.33043    1.000000    
    147 O2    c    0.216105 *  0.750091 *  0.634298 *   0.87073    1.000000    
    148 O2    c    0.464233 *  0.214817 *  0.801837 *   0.87073    1.000000    
    149 O2    c    0.746956 *  0.538683 *  0.467874 *   0.87073    1.000000    
    150 O2    c    0.778493 *  0.254789 *  0.132548 *   0.87073    1.000000    
    151 O3    c    0.212199 *  0.313696 *  0.886710 *   1.33043    1.000000    
    152 O2    c    0.670079 *  0.900169 *  0.229552 *   0.87073    1.000000    
    153 O2    c    0.092999 *  0.769417 *  0.561097 *   0.87073    1.000000    
    154 O3    c    0.786745 *  0.695934 *  0.396801 *   1.33043    1.000000    
    155 O2    c    0.321272 *  0.090041 *  0.727778 *   0.87073    1.000000    
    156 O2    c    0.901905 *  0.237761 *  0.058882 *   0.87073    1.000000    
    157 O2    c    0.329319 *  0.238547 *  0.430888 *   0.87073    1.000000    
    158 O2    c    0.890858 *  0.672340 *  0.095556 *   0.87073    1.000000    
    159 O2    c    0.769272 *  0.094567 *  0.764666 *   0.87073    1.000000    
    160 O2    c    0.668413 *  0.758349 *  0.931464 *   0.87073    1.000000    
    161 O2    c    0.089194 *  0.322715 *  0.598830 *   0.87073    1.000000    
    162 O2    c    0.226027 *  0.908158 *  0.267399 *   0.87073    1.000000    
    163 O2    c    0.572851 *  0.555431 *  0.987420 *   0.87073    1.000000    
    164 O2    c    0.436180 *  0.017569 *  0.324276 *   0.87073    1.000000    
    165 O2    c    0.971854 *  0.413180 *  0.654556 *   0.87073    1.000000    
    166 O2    c    0.418960 *  0.447570 *  0.482480 *   0.87073    1.000000    
    167 O2    c    0.558374 *  0.970148 *  0.819326 *   0.87073    1.000000    
    168 O2    c    0.014063 *  0.586238 *  0.148150 *   0.87073    1.000000    
    169 O3    c    0.546970 *  0.589750 *  0.333333 *   1.33043    1.000000    
    170 O2    c    0.012153 *  0.447470 *  0.004281 *   0.87073    1.000000    
    171 O2    c    0.410204 *  0.971170 *  0.671957 *   0.87073    1.000000    
    172 O2    c    0.438974 *  0.414589 *  0.839516 *   0.87073    1.000000    
    173 O2    c    0.970102 *  0.560253 *  0.506305 *   0.87073    1.000000    
    174 O2    c    0.590000 *  0.032395 *  0.176756 *   0.87073    1.000000    
    175 O2    c    0.581816 *  0.160342 *  0.252310 *   0.87073    1.000000    
    176 O2    c    0.833664 *  0.415820 *  0.580935 *   0.87073    1.000000    
    177 O2    c    0.579499 *  0.421266 *  0.913469 *   0.87073    1.000000    
    178 O2    c    0.413219 *  0.834004 *  0.745552 *   0.87073    1.000000    
    179 O2    c    0.149872 *  0.584700 *  0.076835 *   0.87073    1.000000    
    180 O2    c    0.418149 *  0.584119 *  0.410263 *   0.87073    1.000000    
    181 F     c    0.445465 *  0.901476 *  0.248065 *   0.56000    1.000000    
    182 F     c    0.095141 *  0.546413 *  0.579102 *   0.56000    1.000000    
    183 F     c    0.410994 *  0.512790 *  0.916728 *   0.56000    1.000000    
    184 F     c    0.546435 *  0.095917 *  0.746092 *   0.56000    1.000000    
    185 F     c    0.850946 *  0.438182 *  0.069565 *   0.56000    1.000000    
    186 F     c    0.575807 *  0.482268 *  0.401948 *   0.56000    1.000000    
    187 O2    s    0.919664 *  0.007229 *  0.996826 *  -2.87073    1.000000    
    188 O2    s    0.997754 *  0.922962 *  0.330133 *  -2.87073    1.000000    
    189 O2    s    0.071702 *  0.073452 *  0.661380 *  -2.87073    1.000000    
    190 O2    s    0.080881 *  0.006191 *  0.496563 *  -2.87073    1.000000    
    191 O2    s    0.998967 *  0.076522 *  0.828181 *  -2.87073    1.000000    
    192 O2    s    0.924191 *  0.932216 *  0.163502 *  -2.87073    1.000000    
    193 O2    s    0.335214 *  0.577761 *  0.327979 *  -2.87073    1.000000    
    194 O2    s    0.413153 *  0.767068 *  0.662006 *  -2.87073    1.000000    
    195 O2    s    0.226713 *  0.658924 *  0.994739 *  -2.87073    1.000000    
    196 O2    s    0.646638 *  0.412554 *  0.830018 *  -2.87073    1.000000    
    197 O2    s    0.585604 *  0.235215 *  0.170862 *  -2.87073    1.000000    
    198 O2    s    0.765782 *  0.355509 *  0.497754 *  -2.87073    1.000000    
    199 O3    s    0.577804 *  0.346674 *  0.996428 *  -3.33043    1.000000    
    200 O2    s    0.766499 *  0.414223 *  0.664179 *  -2.87073    1.000000    
    201 O2    s    0.646994 *  0.217694 *  0.335238 *  -2.87073    1.000000    
    202 O2    s    0.411905 *  0.649962 *  0.494636 *  -2.87073    1.000000    
    203 O2    s    0.226190 *  0.592549 *  0.160853 *  -2.87073    1.000000    
    204 O2    s    0.350342 *  0.765994 *  0.828684 *  -2.87073    1.000000    
    205 O3    s    0.120166 *  0.214162 *  0.964365 *  -3.33043    1.000000    
    206 O2    s    0.771345 *  0.888465 *  0.302160 *  -2.87073    1.000000    
    207 O2    s    0.094967 *  0.877879 *  0.632929 *  -2.87073    1.000000    
    208 O2    s    0.881816 *  0.788269 *  0.470941 *  -2.87073    1.000000    
    209 O2    s    0.214570 *  0.092937 *  0.799105 *  -2.87073    1.000000    
    210 O2    s    0.900296 *  0.126258 *  0.131826 *  -2.87073    1.000000    
    211 O2    s    0.216717 *  0.119687 *  0.359746 *  -2.87073    1.000000    
    212 O2    s    0.904085 *  0.796059 *  0.025607 *  -2.87073    1.000000    
    213 O2    s    0.875830 *  0.094703 *  0.692013 *  -2.87073    1.000000    
    214 O2    s    0.780653 *  0.877907 *  0.859363 *  -2.87073    1.000000    
    215 O2    s    0.092678 *  0.217079 *  0.527469 *  -2.87073    1.000000    
    216 O2    s    0.118262 *  0.908743 *  0.194889 *  -2.87073    1.000000    
    217 O2    s    0.922574 *  0.856532 *  0.246417 *  -2.87073    1.000000    
    218 O2    s    0.142206 *  0.071062 *  0.579567 *  -2.87073    1.000000    
    219 O2    s    0.929153 *  0.068196 *  0.911716 *  -2.87073    1.000000    
    220 O2    s    0.065957 *  0.132022 *  0.744304 *  -2.87073    1.000000    
    221 O2    s    0.853521 *  0.933693 *  0.080271 *  -2.87073    1.000000    
    222 O2    s    0.067275 *  0.930930 *  0.414115 *  -2.87073    1.000000    
    223 O2    s    0.915695 *  0.213753 *  0.974925 *  -2.87073    1.000000    
    224 O3    s    0.799628 *  0.699677 *  0.312302 *  -3.33043    1.000000    
    225 O2    s    0.295241 *  0.091725 *  0.645649 *  -2.87073    1.000000    
    226 O2    s    0.093944 *  0.798753 *  0.479158 *  -2.87073    1.000000    
    227 O2    s    0.206324 *  0.295995 *  0.805509 *  -2.87073    1.000000    
    228 O2    s    0.701155 *  0.911548 *  0.147112 *  -2.87073    1.000000    
    229 O2    s    0.198220 *  0.903591 *  0.349321 *  -2.87073    1.000000    
    230 O2    s    0.698375 *  0.796617 *  0.014155 *  -2.87073    1.000000    
    231 O2    s    0.090702 *  0.294953 *  0.680633 *  -2.87073    1.000000    
    232 O2    s    0.794927 *  0.091931 *  0.847005 *  -2.87073    1.000000    
    233 O2    s    0.297779 *  0.213838 *  0.514672 *  -2.87073    1.000000    
    234 O2    s    0.902599 *  0.708501 *  0.178910 *  -2.87073    1.000000    
    235 O2    s    0.316531 *  0.652997 *  0.245048 *  -2.87073    1.000000    
    236 O2    s    0.344356 *  0.673132 *  0.578772 *  -2.87073    1.000000    
    237 O2    s    0.322660 *  0.670707 *  0.911338 *  -2.87073    1.000000    
    238 O2    s    0.672627 *  0.343867 *  0.747055 *  -2.87073    1.000000    
    239 O3    s    0.625597 *  0.309829 *  0.087057 *  -3.33043    1.000000    
    240 O2    s    0.675230 *  0.333114 *  0.414670 *  -2.87073    1.000000    
    241 O3    s    0.380487 *  0.335345 *  0.966237 *  -3.33043    1.000000    
    242 O2    s    0.655403 *  0.024056 *  0.301109 *  -2.87073    1.000000    
    243 O2    s    0.963811 *  0.622983 *  0.631688 *  -2.87073    1.000000    
    244 O2    s    0.623453 *  0.666654 *  0.462609 *  -2.87073    1.000000    
    245 O2    s    0.338661 *  0.962906 *  0.797994 *  -2.87073    1.000000    
    246 O2    s    0.027929 *  0.382733 *  0.128226 *  -2.87073    1.000000    
    247 O2    s    0.339269 *  0.374406 *  0.360479 *  -2.87073    1.000000    
    248 O2    s    0.023739 *  0.661653 *  0.025924 *  -2.87073    1.000000    
    249 O2    s    0.621255 *  0.964196 *  0.694451 *  -2.87073    1.000000    
    250 O2    s    0.656236 *  0.622101 *  0.861367 *  -2.87073    1.000000    
    251 O2    s    0.962384 *  0.341051 *  0.528377 *  -2.87073    1.000000    
    252 O2    s    0.375092 *  0.036947 *  0.198541 *  -2.87073    1.000000    
    253 O3    s    0.767210 *  0.292811 *  0.005422 *  -3.33043    1.000000    
    254 O3    s    0.693565 *  0.448990 *  0.341406 *  -3.33043    1.000000    
    255 O2    s    0.533380 *  0.223282 *  0.677354 *  -2.87073    1.000000    
    256 O2    s    0.222533 *  0.689734 *  0.509780 *  -2.87073    1.000000    
    257 O2    s    0.307249 *  0.533914 *  0.841248 *  -2.87073    1.000000    
    258 O2    s    0.459910 *  0.780113 *  0.177162 *  -2.87073    1.000000    
    259 O2    s    0.296936 *  0.768166 *  0.315758 *  -2.87073    1.000000    
    260 O2    s    0.460886 *  0.691445 *  0.981209 *  -2.87073    1.000000    
    261 O2    s    0.223619 *  0.533985 *  0.648668 *  -2.87073    1.000000    
    262 O2    s    0.688833 *  0.222872 *  0.816111 *  -2.87073    1.000000    
    263 O2    s    0.534515 *  0.317167 *  0.481544 *  -2.87073    1.000000    
    264 O2    s    0.766151 *  0.467869 *  0.148098 *  -2.87073    1.000000    
    265 O3    s    0.778116 *  0.550638 *  0.022699 *  -3.33043    1.000000    
    266 O2    s    0.470677 *  0.259662 *  0.361113 *  -2.87073    1.000000    
    267 O2    s    0.742314 *  0.211494 *  0.693734 *  -2.87073    1.000000    
    268 O2    s    0.210749 *  0.468329 *  0.527122 *  -2.87073    1.000000    
    269 O2    s    0.526430 *  0.734713 *  0.861651 *  -2.87073    1.000000    
    270 O2    s    0.249559 *  0.790656 *  0.194968 *  -2.87073    1.000000    
    271 O2    s    0.518520 *  0.779433 *  0.299498 *  -2.87073    1.000000    
    272 O3    s    0.243624 *  0.480962 *  0.968398 *  -3.33043    1.000000    
    273 O2    s    0.210822 *  0.742337 *  0.631741 *  -2.87073    1.000000    
    274 O2    s    0.467017 *  0.209703 *  0.799274 *  -2.87073    1.000000    
    275 O2    s    0.740586 *  0.535568 *  0.465590 *  -2.87073    1.000000    
    276 O2    s    0.782925 *  0.260935 *  0.130383 *  -2.87073    1.000000    
    277 O3    s    0.224199 *  0.325342 *  0.886248 *  -3.33043    1.000000    
    278 O2    s    0.660734 *  0.900310 *  0.230429 *  -2.87073    1.000000    
    279 O2    s    0.093094 *  0.760079 *  0.561981 *  -2.87073    1.000000    
    280 O3    s    0.776570 *  0.685922 *  0.399388 *  -3.33043    1.000000    
    281 O2    s    0.331070 *  0.090474 *  0.728627 *  -2.87073    1.000000    
    282 O2    s    0.901103 *  0.245237 *  0.060036 *  -2.87073    1.000000    
    283 O2    s    0.337869 *  0.246920 *  0.430223 *  -2.87073    1.000000    
    284 O2    s    0.891117 *  0.663985 *  0.095260 *  -2.87073    1.000000    
    285 O2    s    0.759694 *  0.094431 *  0.763772 *  -2.87073    1.000000    
    286 O2    s    0.659873 *  0.750911 *  0.930523 *  -2.87073    1.000000    
    287 O2    s    0.089743 *  0.332486 *  0.597900 *  -2.87073    1.000000    
    288 O2    s    0.235120 *  0.907428 *  0.266442 *  -2.87073    1.000000    
    289 O2    s    0.570770 *  0.557286 *  0.984431 *  -2.87073    1.000000    
    290 O2    s    0.435776 *  0.012938 *  0.320741 *  -2.87073    1.000000    
    291 O2    s    0.976682 *  0.417614 *  0.651162 *  -2.87073    1.000000    
    292 O2    s    0.422239 *  0.446891 *  0.479722 *  -2.87073    1.000000    
    293 O2    s    0.558536 *  0.975353 *  0.816064 *  -2.87073    1.000000    
    294 O2    s    0.010630 *  0.582658 *  0.145417 *  -2.87073    1.000000    
    295 O3    s    0.542947 *  0.583130 *  0.337379 *  -3.33043    1.000000    
    296 O2    s    0.009608 *  0.447826 *  0.007184 *  -2.87073    1.000000    
    297 O2    s    0.414956 *  0.976049 *  0.675358 *  -2.87073    1.000000    
    298 O2    s    0.438976 *  0.418374 *  0.842389 *  -2.87073    1.000000    
    299 O2    s    0.975367 *  0.560612 *  0.509653 *  -2.87073    1.000000    
    300 O2    s    0.584502 *  0.026554 *  0.180017 *  -2.87073    1.000000    
    301 O2    s    0.576012 *  0.148729 *  0.252156 *  -2.87073    1.000000    
    302 O2    s    0.844962 *  0.421722 *  0.580865 *  -2.87073    1.000000    
    303 O2    s    0.574676 *  0.425542 *  0.912949 *  -2.87073    1.000000    
    304 O2    s    0.419131 *  0.845174 *  0.745518 *  -2.87073    1.000000    
    305 O2    s    0.140287 *  0.579890 *  0.077118 *  -2.87073    1.000000    
    306 O2    s    0.422931 *  0.579434 *  0.410633 *  -2.87073    1.000000    
    307 F     s    0.445169 *  0.901275 *  0.248035 *  -1.56000    1.000000    
    308 F     s    0.095420 *  0.546385 *  0.579012 *  -1.56000    1.000000    
    309 F     s    0.402492 *  0.504669 *  0.918037 *  -1.56000    1.000000    
    310 F     s    0.546553 *  0.096271 *  0.746045 *  -1.56000    1.000000    
    311 F     s    0.840682 *  0.434051 *  0.067367 *  -1.56000    1.000000    
    312 F     s    0.582702 *  0.488840 *  0.399038 *  -1.56000    1.000000    
--------------------------------------------------------------------------------



********************************************************************************
*  General input information                                                   *
********************************************************************************

  Species output for all configurations : 

--------------------------------------------------------------------------------
  Species    Type    Atomic    Atomic    Charge       Radii (Angs)     Library
                     Number     Mass       (e)     Cova   Ionic  VDW   Symbol
--------------------------------------------------------------------------------
    Si       Core       14      28.09   4.000000   1.200  0.000  2.100          
    O1       Core        8      16.00   1.733957   0.730  0.000  1.360          
    O1       Shell       8       0.00  -3.733957   0.730  0.000  1.360          
    O2       Core        8      16.00   0.870733   0.730  0.000  1.360          
    O2       Shell       8       0.00  -2.870733   0.730  0.000  1.360          
    O3       Core        8      16.00   1.330431   0.730  0.000  1.360          
    O3       Shell       8       0.00  -3.330431   0.730  0.000  1.360          
    F        Core        9      19.00   0.560000   0.710  0.000  1.300          
    F        Shell       9       0.00  -1.560000   0.710  0.000  1.300          
    Ge       Core       32      72.61   4.000000   1.170  0.000  1.750          
--------------------------------------------------------------------------------


  Lattice summation method               =    Ewald          (3-D)
                                         =    Parry          (2-D)
                                         =    Saunders et al (1-D)
  Accuracy factor for lattice sums       =   12.000


  Time limit = Infinity

  Maximum range for interatomic potentials =        16.000000 Angstroms

  Taper potentials to zero over   1.0000 Angstroms using polynomial

  General interatomic potentials :

--------------------------------------------------------------------------------
Atom  Types   Potential         A         B         C         D     Cutoffs(Ang)
  1     2                                                            Min    Max 
--------------------------------------------------------------------------------
Si   c O1   s Buckingham    0.132E+04 0.318      10.1      0.00     0.000 16.000
Si   c O2   s Buckingham    0.132E+04 0.318      10.1      0.00     0.000 16.000
Si   c O3   s Buckingham    0.132E+04 0.318      10.1      0.00     0.000 16.000
Ge   c O1   s Buckingham    0.150E+04 0.326      16.8      0.00     0.000 16.000
Ge   c O2   s Buckingham    0.150E+04 0.326      16.8      0.00     0.000 16.000
Ge   c O3   s Buckingham    0.150E+04 0.326      16.8      0.00     0.000 16.000
O1   s O1   s Buckingham    0.228E+05 0.149      10.9      0.00     0.000 16.000
O1   s O2   s Buckingham    0.228E+05 0.149      10.9      0.00     0.000 16.000
O1   s O3   s Buckingham    0.228E+05 0.149      10.9      0.00     0.000 16.000
O2   s O2   s Buckingham    0.228E+05 0.149      10.9      0.00     0.000 16.000
O2   s O3   s Buckingham    0.228E+05 0.149      10.9      0.00     0.000 16.000
O3   s O3   s Buckingham    0.228E+05 0.149      10.9      0.00     0.000 16.000
Si   c F    s Buckingham     977.     0.282      0.00      0.00     0.000 16.000
Ge   c F    s Buckingham     681.     0.320      0.00      0.00     0.000 16.000
F    s F    s Buckingham     540.     0.262      0.00      0.00     0.000 16.000
O1   s F    s Buckingham    0.168E+04 0.268      0.00      0.00     0.000 16.000
O2   s F    s Buckingham    0.168E+04 0.268      0.00      0.00     0.000 16.000
O3   s F    s Buckingham    0.168E+04 0.268      0.00      0.00     0.000 16.000
O2   c O2   s Spring (c-s)   76.0      0.00      0.00      0.00     0.000  0.800
O3   c O3   s Spring (c-s)   128.      0.00      0.00      0.00     0.000  0.800
O1   c O1   s Spring (c-s)   180.      0.00      0.00      0.00     0.000  0.800
F    c F    s Spring (c-s)   33.5      0.00      0.00      0.00     0.000  0.800
--------------------------------------------------------------------------------

  General Three-body potentials :

  Harmonic form:

--------------------------------------------------------------------------------
Atom    Atom    Atom           Force Constants            Theta     Cutoffs  
  1       2       3     (eVrad**-2/eVrad**-3/eVrad**-4)   (deg)  1-2  1-3  2-3
--------------------------------------------------------------------------------
Si    c O1    s O1    s  1.261        0.0000    0.0000   109.470 0.00 0.00 0.00
                                                                 1.90 1.90 3.50
Si    c O1    s O2    s  1.261        0.0000    0.0000   109.470 0.00 0.00 0.00
                                                                 1.90 1.90 3.50
Si    c O2    s O2    s  1.261        0.0000    0.0000   109.470 0.00 0.00 0.00
                                                                 1.90 1.90 3.50
--------------------------------------------------------------------------------

********************************************************************************
*  Output for configuration   1                                                *
********************************************************************************


  Components of energy : 

--------------------------------------------------------------------------------
  Interatomic potentials     =        2065.93907371 eV
  Three-body potentials      =           0.48418707 eV
  Monopole - monopole (real) =       -6613.90560367 eV
  Monopole - monopole (recip)=       -3173.10685861 eV
  Monopole - monopole (total)=       -9787.01246228 eV
  Neutralising energy        =          -6.46361857 eV
--------------------------------------------------------------------------------
  Total lattice energy       =       -7727.05282007 eV
--------------------------------------------------------------------------------
  Total lattice energy       =         -745542.4783 kJ/(mole unit cells)
--------------------------------------------------------------------------------


  Number of variables =      939

  Maximum number of calculations  =          1000
  Maximum Hessian update interval =            10
  Maximum step size               =   1.000000000
  Maximum parameter tolerance     =   0.000010000
  Maximum function  tolerance     =   0.000010000
  Maximum gradient  tolerance     =   0.001000000
  Maximum gradient  component     =   0.010000000

  Symmetry not applied to optimisation

  Cell parameters to be optimised using strains

  Newton-Raphson optimiser to be used

  BFGS hessian update to be used

  Dumpfile to be written after every cycle

  Start of bulk optimisation :

  Cycle:      0 Energy:     -7727.052820  Gnorm:      0.006059  CPU:    1.034
  ** Hessian calculated **
  Cycle:      1 Energy:     -7727.235988  Gnorm:      0.009742  CPU:    3.605
  Cycle:      2 Energy:     -7727.249969  Gnorm:      0.003383  CPU:    5.321
  Cycle:      3 Energy:     -7727.250387  Gnorm:      0.000847  CPU:    6.706
  Cycle:      4 Energy:     -7727.250460  Gnorm:      0.000390  CPU:    8.090
  Cycle:      5 Energy:     -7727.250465  Gnorm:      0.000069  CPU:    9.475


  **** Optimisation achieved ****


  Final energy =   -7727.25046485 eV
  Final Gnorm  =       0.00002535

  Components of energy : 

--------------------------------------------------------------------------------
  Interatomic potentials     =        2066.79953860 eV
  Three-body potentials      =           0.49136062 eV
  Monopole - monopole (real) =       -6615.68944215 eV
  Monopole - monopole (recip)=       -3172.38976054 eV
  Monopole - monopole (total)=       -9788.07920269 eV
  Neutralising energy        =          -6.46216138 eV
--------------------------------------------------------------------------------
  Total lattice energy       =       -7727.25046485 eV
--------------------------------------------------------------------------------
  Total lattice energy       =         -745561.5480 kJ/(mole unit cells)
--------------------------------------------------------------------------------

  Final fractional coordinates of atoms :

--------------------------------------------------------------------------------
   No.  Atomic        x           y          z          Radius
        Label       (Frac)      (Frac)     (Frac)       (Angs) 
--------------------------------------------------------------------------------
     1  Ge    c     0.699600    0.375700    0.033890    0.000000
     2  Si    c     0.597028    0.298378    0.361501    0.000000
     3  Si    c     0.649044    0.278664    0.695778    0.000000
     4  Si    c     0.269741    0.606075    0.527149    0.000000
     5  Si    c     0.346932    0.652436    0.860668    0.000000
     6  Si    c     0.285781    0.686875    0.195701    0.000000
     7  Si    c     0.329792    0.673496    0.295944    0.000000
     8  Si    c     0.292218    0.604632    0.963757    0.000000
     9  Si    c     0.271898    0.660044    0.627856    0.000000
    10  Si    c     0.592096    0.275012    0.796547    0.000000
    11  Si    c     0.652818    0.366339    0.463298    0.000000
    12  Si    c     0.661246    0.302830    0.131890    0.000000
    13  Si    c     0.511043    0.393353    0.966733    0.000000
    14  Si    c     0.544947    0.077463    0.301374    0.000000
    15  Si    c     0.861211    0.452733    0.630711    0.000000
    16  Si    c     0.441742    0.571549    0.460133    0.000000
    17  Si    c     0.387766    0.865123    0.795235    0.000000
    18  Si    c     0.079834    0.518465    0.128938    0.000000
    19  Si    c     0.380020    0.509497    0.357403    0.000000
    20  Si    c     0.085624    0.579285    0.026260    0.000000
    21  Si    c     0.441145    0.868766    0.693444    0.000000
    22  Si    c     0.555654    0.446969    0.861706    0.000000
    23  Si    c     0.861043    0.403183    0.528996    0.000000
    24  Si    c     0.498476    0.092507    0.200358    0.000000
    25  Si    c     0.269597    0.372440    0.844094    0.000000
    26  Si    c     0.568414    0.884962    0.183379    0.000000
    27  Si    c     0.070172    0.684720    0.513467    0.000000
    28  Ge    c     0.654438    0.567118    0.352292    0.000000
    29  Si    c     0.370457    0.077192    0.680282    0.000000
    30  Si    c     0.881568    0.288825    0.008913    0.000000
    31  Si    c     0.370089    0.287536    0.476888    0.000000
    32  Si    c     0.866114    0.589114    0.143285    0.000000
    33  Si    c     0.670038    0.074677    0.810351    0.000000
    34  Si    c     0.574285    0.676970    0.978713    0.000000
    35  Si    c     0.069832    0.380759    0.644075    0.000000
    36  Si    c     0.258716    0.874982    0.312787    0.000000
    37  Ge    c     0.246704    0.340994    0.944276    0.000000
    38  Si    c     0.618310    0.875785    0.284365    0.000000
    39  Si    c     0.063343    0.732635    0.614404    0.000000
    40  Si    c     0.726621    0.652767    0.447774    0.000000
    41  Si    c     0.309688    0.065002    0.781034    0.000000
    42  Si    c     0.878669    0.236413    0.112485    0.000000
    43  Si    c     0.309779    0.229551    0.375400    0.000000
    44  Si    c     0.884240    0.660312    0.040922    0.000000
    45  Si    c     0.720896    0.070943    0.709341    0.000000
    46  Si    c     0.634183    0.727092    0.876203    0.000000
    47  Si    c     0.060403    0.324575    0.543284    0.000000
    48  Si    c     0.214766    0.893523    0.212118    0.000000
    49  Si    c     0.960130    0.114478    0.960418    0.000000
    50  Si    c     0.839605    0.817621    0.298193    0.000000
    51  Si    c     0.123479    0.011129    0.629496    0.000000
    52  Si    c     0.002065    0.865613    0.464473    0.000000
    53  Si    c     0.093447    0.128123    0.793995    0.000000
    54  Si    c     0.816994    0.957950    0.130392    0.000000
    55  Si    c     0.084081    0.949132    0.361924    0.000000
    56  Si    c     0.822149    0.873327    0.028415    0.000000
    57  Si    c     0.000194    0.130547    0.693782    0.000000
    58  Si    c     0.852053    0.010498    0.861516    0.000000
    59  Si    c     0.122450    0.108237    0.529035    0.000000
    60  Si    c     0.936132    0.835184    0.196032    0.000000
    61  O2    c     0.894265    0.995528    0.996156    0.000000
    62  O2    c     0.964603    0.910877    0.329033    0.000000
    63  O2    c     0.040687    0.051234    0.660838    0.000000
    64  O2    c     0.046858    0.988847    0.495912    0.000000
    65  O2    c     0.971515    0.052484    0.827367    0.000000
    66  O2    c     0.898996    0.917758    0.162581    0.000000
    67  O2    c     0.288813    0.547379    0.328006    0.000000
    68  O2    c     0.394912    0.745496    0.660435    0.000000
    69  O2    c     0.215312    0.656520    0.995073    0.000000
    70  O2    c     0.631054    0.397138    0.829252    0.000000
    71  O2    c     0.552313    0.222867    0.170417    0.000000
    72  O2    c     0.734058    0.327541    0.497063    0.000000
    73  O3    c     0.567992    0.327269    0.996631    0.000000
    74  O2    c     0.735593    0.403841    0.663428    0.000000
    75  O2    c     0.625041    0.197494    0.335359    0.000000
    76  O2    c     0.391122    0.644382    0.492999    0.000000
    77  O2    c     0.203476    0.567142    0.161581    0.000000
    78  O2    c     0.311826    0.738337    0.827687    0.000000
    79  O3    c     0.109347    0.191908    0.965099    0.000000
    80  O2    c     0.739775    0.871032    0.305276    0.000000
    81  O2    c     0.061884    0.856999    0.634701    0.000000
    82  O2    c     0.848433    0.772707    0.473360    0.000000
    83  O2    c     0.181558    0.062330    0.800516    0.000000
    84  O2    c     0.879429    0.112482    0.134194    0.000000
    85  O2    c     0.183836    0.103094    0.355943    0.000000
    86  O2    c     0.899727    0.796602    0.024648    0.000000
    87  O2    c     0.846044    0.070424    0.688341    0.000000
    88  O2    c     0.759126    0.855249    0.856138    0.000000
    89  O2    c     0.058119    0.197350    0.523807    0.000000
    90  O2    c     0.091637    0.898255    0.191717    0.000000
    91  O2    c     0.892100    0.843837    0.246265    0.000000
    92  O2    c     0.111445    0.052584    0.578996    0.000000
    93  O2    c     0.904491    0.048479    0.911648    0.000000
    94  O2    c     0.037526    0.110306    0.743707    0.000000
    95  O2    c     0.824190    0.918706    0.079488    0.000000
    96  O2    c     0.034814    0.917606    0.413450    0.000000
    97  O2    c     0.901674    0.207891    0.970024    0.000000
    98  O3    c     0.769174    0.670874    0.309941    0.000000
    99  O2    c     0.275208    0.081675    0.641937    0.000000
   100  O2    c     0.073748    0.785268    0.475530    0.000000
   101  O2    c     0.181820    0.281407    0.802225    0.000000
   102  O2    c     0.665874    0.887087    0.144645    0.000000
   103  O2    c     0.160915    0.874068    0.351249    0.000000
   104  O2    c     0.671127    0.778218    0.015868    0.000000
   105  O2    c     0.072115    0.283350    0.682111    0.000000
   106  O2    c     0.767179    0.076282    0.848858    0.000000
   107  O2    c     0.275071    0.194651    0.516712    0.000000
   108  O2    c     0.867616    0.684733    0.182115    0.000000
   109  O2    c     0.277570    0.620682    0.245046    0.000000
   110  O2    c     0.329372    0.662771    0.577153    0.000000
   111  O2    c     0.291865    0.651691    0.911179    0.000000
   112  O2    c     0.649820    0.334117    0.746170    0.000000
   113  O3    c     0.599673    0.298060    0.084076    0.000000
   114  O2    c     0.651604    0.309799    0.413458    0.000000
   115  O3    c     0.356159    0.303963    0.969508    0.000000
   116  O2    c     0.630427    0.008138    0.302925    0.000000
   117  O2    c     0.930572    0.608886    0.633026    0.000000
   118  O2    c     0.598208    0.657978    0.463102    0.000000
   119  O2    c     0.300130    0.932678    0.799215    0.000000
   120  O2    c     0.007942    0.362754    0.130927    0.000000
   121  O2    c     0.299979    0.351820    0.357993    0.000000
   122  O2    c     0.019099    0.667432    0.025637    0.000000
   123  O2    c     0.598091    0.938695    0.690947    0.000000
   124  O2    c     0.640304    0.603909    0.857867    0.000000
   125  O2    c     0.928598    0.315593    0.524850    0.000000
   126  O2    c     0.342212    0.025525    0.195094    0.000000
   127  O3    c     0.746681    0.279022    0.002154    0.000000
   128  O3    c     0.672415    0.433936    0.336392    0.000000
   129  O2    c     0.505985    0.211724    0.673074    0.000000
   130  O2    c     0.202428    0.681749    0.505089    0.000000
   131  O2    c     0.275010    0.510254    0.838175    0.000000
   132  O2    c     0.430500    0.755654    0.173705    0.000000
   133  O2    c     0.252336    0.737927    0.318658    0.000000
   134  O2    c     0.440048    0.678215    0.982968    0.000000
   135  O2    c     0.204504    0.516138    0.650281    0.000000
   136  O2    c     0.666271    0.205835    0.818310    0.000000
   137  O2    c     0.505889    0.292496    0.483337    0.000000
   138  O2    c     0.735575    0.451482    0.150990    0.000000
   139  O3    c     0.761485    0.544463    0.018751    0.000000
   140  O2    c     0.439462    0.234433    0.358165    0.000000
   141  O2    c     0.723281    0.197968    0.690028    0.000000
   142  O2    c     0.188780    0.449523    0.523062    0.000000
   143  O2    c     0.502913    0.718706    0.858958    0.000000
   144  O2    c     0.210372    0.766985    0.191554    0.000000
   145  O2    c     0.485736    0.752902    0.302705    0.000000
   146  O3    c     0.212793    0.452370    0.971914    0.000000
   147  O2    c     0.189723    0.732903    0.633173    0.000000
   148  O2    c     0.435059    0.191413    0.800902    0.000000
   149  O2    c     0.718907    0.521054    0.466272    0.000000
   150  O2    c     0.752999    0.237958    0.130764    0.000000
   151  O3    c     0.190348    0.292029    0.887380    0.000000
   152  O2    c     0.636438    0.878375    0.229811    0.000000
   153  O2    c     0.066579    0.753382    0.560078    0.000000
   154  O3    c     0.756946    0.677634    0.395220    0.000000
   155  O2    c     0.293678    0.068718    0.726628    0.000000
   156  O2    c     0.886383    0.226569    0.058212    0.000000
   157  O2    c     0.300308    0.219249    0.430197    0.000000
   158  O2    c     0.870350    0.659989    0.096222    0.000000
   159  O2    c     0.741129    0.073430    0.763616    0.000000
   160  O2    c     0.644910    0.736610    0.930435    0.000000
   161  O2    c     0.062379    0.306355    0.597564    0.000000
   162  O2    c     0.193088    0.887757    0.266517    0.000000
   163  O2    c     0.552021    0.535999    0.987494    0.000000
   164  O2    c     0.401198    0.994931    0.323770    0.000000
   165  O2    c     0.945788    0.396289    0.653498    0.000000
   166  O2    c     0.390304    0.429193    0.481339    0.000000
   167  O2    c     0.529830    0.946682    0.818146    0.000000
   168  O2    c     0.989182    0.570100    0.148817    0.000000
   169  O3    c     0.515922    0.568708    0.331847    0.000000
   170  O2    c     0.995467    0.440090    0.003955    0.000000
   171  O2    c     0.384126    0.952744    0.670494    0.000000
   172  O2    c     0.414089    0.392708    0.839386    0.000000
   173  O2    c     0.943086    0.544934    0.505251    0.000000
   174  O2    c     0.559754    0.013645    0.176831    0.000000
   175  O2    c     0.547291    0.138803    0.251801    0.000000
   176  O2    c     0.807436    0.399858    0.580012    0.000000
   177  O2    c     0.557000    0.401637    0.913070    0.000000
   178  O2    c     0.385782    0.812970    0.744187    0.000000
   179  O2    c     0.128667    0.569934    0.077788    0.000000
   180  O2    c     0.389755    0.565476    0.409006    0.000000
   181  F     c     0.409192    0.877331    0.247714    0.000000
   182  F     c     0.069465    0.531158    0.577721    0.000000
   183  F     c     0.388793    0.491032    0.916764    0.000000
   184  F     c     0.518259    0.074316    0.744805    0.000000
   185  F     c     0.841950    0.432210    0.070360    0.000000
   186  F     c     0.546895    0.463258    0.400880    0.000000
   187  O2    s     0.892661    0.993638    0.996184    0.000000
   188  O2    s     0.965289    0.905623    0.329586    0.000000
   189  O2    s     0.045506    0.055543    0.660972    0.000000
   190  O2    s     0.050524    0.988694    0.496180    0.000000
   191  O2    s     0.971899    0.056308    0.827414    0.000000
   192  O2    s     0.894007    0.913227    0.162669    0.000000
   193  O2    s     0.302004    0.556194    0.327736    0.000000
   194  O2    s     0.386940    0.749287    0.660437    0.000000
   195  O2    s     0.209614    0.643572    0.995178    0.000000
   196  O2    s     0.619341    0.389627    0.829171    0.000000
   197  O2    s     0.558005    0.217395    0.169549    0.000000
   198  O2    s     0.738528    0.339358    0.496783    0.000000
   199  O3    s     0.571002    0.338314    0.995946    0.000000
   200  O2    s     0.739790    0.396093    0.663350    0.000000
   201  O2    s     0.613770    0.195753    0.334622    0.000000
   202  O2    s     0.383998    0.632867    0.493067    0.000000
   203  O2    s     0.198656    0.574189    0.161586    0.000000
   204  O2    s     0.323325    0.742442    0.827794    0.000000
   205  O3    s     0.100658    0.192359    0.963260    0.000000
   206  O2    s     0.736643    0.866240    0.302341    0.000000
   207  O2    s     0.068568    0.860474    0.632077    0.000000
   208  O2    s     0.852411    0.770448    0.469904    0.000000
   209  O2    s     0.185675    0.069452    0.797838    0.000000
   210  O2    s     0.872807    0.109083    0.131571    0.000000
   211  O2    s     0.186977    0.100648    0.358622    0.000000
   212  O2    s     0.889904    0.790685    0.026715    0.000000
   213  O2    s     0.849538    0.076904    0.691064    0.000000
   214  O2    s     0.755284    0.857448    0.858806    0.000000
   215  O2    s     0.065203    0.200932    0.526338    0.000000
   216  O2    s     0.088158    0.891173    0.194262    0.000000
   217  O2    s     0.891656    0.840118    0.245956    0.000000
   218  O2    s     0.114074    0.054318    0.578943    0.000000
   219  O2    s     0.904162    0.050903    0.910858    0.000000
   220  O2    s     0.039529    0.114637    0.743626    0.000000
   221  O2    s     0.823138    0.918164    0.079651    0.000000
   222  O2    s     0.036631    0.915231    0.413495    0.000000
   223  O2    s     0.905448    0.207179    0.973274    0.000000
   224  O3    s     0.769546    0.680543    0.311392    0.000000
   225  O2    s     0.268669    0.073683    0.644494    0.000000
   226  O2    s     0.065903    0.783399    0.478254    0.000000
   227  O2    s     0.181159    0.274216    0.805433    0.000000
   228  O2    s     0.671835    0.894402    0.147158    0.000000
   229  O2    s     0.162859    0.882059    0.348420    0.000000
   230  O2    s     0.676679    0.777472    0.013279    0.000000
   231  O2    s     0.064362    0.277320    0.679447    0.000000
   232  O2    s     0.765984    0.069192    0.846176    0.000000
   233  O2    s     0.269154    0.195489    0.513759    0.000000
   234  O2    s     0.874624    0.690555    0.179537    0.000000
   235  O2    s     0.283766    0.632889    0.245220    0.000000
   236  O2    s     0.317542    0.656748    0.577190    0.000000
   237  O2    s     0.297600    0.647140    0.911030    0.000000
   238  O2    s     0.643860    0.322397    0.746122    0.000000
   239  O3    s     0.612430    0.303449    0.086000    0.000000
   240  O2    s     0.646427    0.314694    0.413652    0.000000
   241  O3    s     0.362992    0.315580    0.967287    0.000000
   242  O2    s     0.620099    0.001682    0.300811    0.000000
   243  O2    s     0.937400    0.605779    0.630812    0.000000
   244  O2    s     0.594711    0.648397    0.461232    0.000000
   245  O2    s     0.310152    0.939489    0.796904    0.000000
   246  O2    s     0.002066    0.366004    0.128797    0.000000
   247  O2    s     0.309073    0.354605    0.359807    0.000000
   248  O2    s     0.012645    0.657481    0.027240    0.000000
   249  O2    s     0.594724    0.945353    0.693154    0.000000
   250  O2    s     0.631145    0.601057    0.860174    0.000000
   251  O2    s     0.935461    0.325528    0.527211    0.000000
   252  O2    s     0.344812    0.018456    0.197440    0.000000
   253  O3    s     0.758125    0.286485    0.005066    0.000000
   254  O3    s     0.663266    0.428903    0.340156    0.000000
   255  O2    s     0.506414    0.204417    0.676204    0.000000
   256  O2    s     0.195476    0.674244    0.508280    0.000000
   257  O2    s     0.281944    0.511223    0.841136    0.000000
   258  O2    s     0.429985    0.762126    0.177034    0.000000
   259  O2    s     0.260954    0.745737    0.315665    0.000000
   260  O2    s     0.439130    0.670640    0.980555    0.000000
   261  O2    s     0.197238    0.516655    0.647285    0.000000
   262  O2    s     0.658993    0.199171    0.815189    0.000000
   263  O2    s     0.506400    0.299587    0.480555    0.000000
   264  O2    s     0.742416    0.451911    0.148292    0.000000
   265  O3    s     0.771076    0.546528    0.022067    0.000000
   266  O2    s     0.440753    0.240334    0.360371    0.000000
   267  O2    s     0.715206    0.192543    0.692681    0.000000
   268  O2    s     0.183300    0.452268    0.525630    0.000000
   269  O2    s     0.500701    0.712533    0.861006    0.000000
   270  O2    s     0.218725    0.772199    0.194152    0.000000
   271  O2    s     0.483746    0.758029    0.300053    0.000000
   272  O3    s     0.223319    0.460064    0.969192    0.000000
   273  O2    s     0.184439    0.725187    0.630604    0.000000
   274  O2    s     0.437910    0.186404    0.798333    0.000000
   275  O2    s     0.712469    0.517887    0.464054    0.000000
   276  O2    s     0.757813    0.244303    0.128851    0.000000
   277  O3    s     0.202365    0.303761    0.886642    0.000000
   278  O2    s     0.627298    0.878787    0.230625    0.000000
   279  O2    s     0.066615    0.743969    0.560966    0.000000
   280  O3    s     0.746986    0.667749    0.397944    0.000000
   281  O2    s     0.303481    0.069207    0.727473    0.000000
   282  O2    s     0.885115    0.233658    0.059290    0.000000
   283  O2    s     0.308778    0.227649    0.429475    0.000000
   284  O2    s     0.871221    0.652313    0.095818    0.000000
   285  O2    s     0.731560    0.073310    0.762729    0.000000
   286  O2    s     0.636323    0.729298    0.929546    0.000000
   287  O2    s     0.062941    0.316100    0.596644    0.000000
   288  O2    s     0.202246    0.887042    0.265618    0.000000
   289  O2    s     0.550368    0.538272    0.984509    0.000000
   290  O2    s     0.400939    0.990556    0.320250    0.000000
   291  O2    s     0.950523    0.400675    0.650105    0.000000
   292  O2    s     0.393614    0.428534    0.478595    0.000000
   293  O2    s     0.529996    0.951977    0.814913    0.000000
   294  O2    s     0.985601    0.566483    0.146080    0.000000
   295  O3    s     0.511899    0.562300    0.335936    0.000000
   296  O2    s     0.993617    0.440095    0.006910    0.000000
   297  O2    s     0.388750    0.957529    0.673929    0.000000
   298  O2    s     0.414085    0.396465    0.842239    0.000000
   299  O2    s     0.948294    0.545143    0.508591    0.000000
   300  O2    s     0.554150    0.007925    0.179993    0.000000
   301  O2    s     0.541884    0.127549    0.251575    0.000000
   302  O2    s     0.818600    0.405654    0.579913    0.000000
   303  O2    s     0.552546    0.405876    0.912463    0.000000
   304  O2    s     0.391683    0.824101    0.744207    0.000000
   305  O2    s     0.119050    0.565424    0.077931    0.000000
   306  O2    s     0.394361    0.560710    0.409411    0.000000
   307  F     s     0.408571    0.876689    0.247674    0.000000
   308  F     s     0.069856    0.531238    0.577611    0.000000
   309  F     s     0.379629    0.482067    0.918282    0.000000
   310  F     s     0.518345    0.074607    0.744740    0.000000
   311  F     s     0.830729    0.428004    0.067600    0.000000
   312  F     s     0.554018    0.470040    0.397812    0.000000
--------------------------------------------------------------------------------

  Final Cartesian lattice vectors (Angstroms) :

       11.978543    0.005296    0.004171
       -6.120650   10.356663    0.031615
        0.076879    0.194203   29.440476


  Final cell parameters and derivatives :

--------------------------------------------------------------------------------
       a           11.978545 Angstrom     dE/de1(xx)     0.003570 eV/strain
       b           12.030122 Angstrom     dE/de2(yy)     0.002898 eV/strain
       c           29.441217 Angstrom     dE/de3(zz)     0.003878 eV/strain
       alpha       89.600184 Degrees      dE/de4(yz)    -0.000171 eV/strain
       beta        89.830268 Degrees      dE/de5(xz)     0.000308 eV/strain
       gamma      120.557008 Degrees      dE/de6(xy)    -0.000004 eV/strain
--------------------------------------------------------------------------------

  Primitive cell volume =          3653.191490 Angs**3

  Density of cell =      1.751371 g/cm**3

  Non-primitive cell volume =          3653.191490 Angs**3


  Final internal derivatives :

--------------------------------------------------------------------------------
   No.  Atomic          a             b             c           Radius
        Label          (eV)          (eV)          (eV)        (eV/Angs)
--------------------------------------------------------------------------------
      1 Ge    c       0.000000      0.000000      0.000000      0.000000
      2 Si    c      -0.000651      0.001167      0.000910      0.000000
      3 Si    c      -0.000077     -0.000240      0.000179      0.000000
      4 Si    c      -0.000121     -0.000125     -0.000315      0.000000
      5 Si    c       0.000205     -0.000163      0.000345      0.000000
      6 Si    c       0.000175      0.000436     -0.002051      0.000000
      7 Si    c       0.000012      0.000204     -0.000211      0.000000
      8 Si    c       0.000835     -0.000801     -0.001380      0.000000
      9 Si    c       0.000034     -0.000141      0.000334      0.000000
     10 Si    c       0.000030     -0.000372     -0.000660      0.000000
     11 Si    c      -0.000217      0.000235      0.000123      0.000000
     12 Si    c      -0.001566     -0.000153      0.006043      0.000000
     13 Si    c      -0.003530      0.001450     -0.005340      0.000000
     14 Si    c      -0.000025     -0.000426     -0.000433      0.000000
     15 Si    c      -0.000019      0.000093     -0.000042      0.000000
     16 Si    c       0.000150     -0.000208      0.000359      0.000000
     17 Si    c      -0.000052      0.000189      0.000187      0.000000
     18 Si    c       0.000793     -0.000030      0.001120      0.000000
     19 Si    c       0.000531     -0.000516      0.000029      0.000000
     20 Si    c      -0.000839      0.000311      0.000501      0.000000
     21 Si    c       0.000029      0.000077     -0.000551      0.000000
     22 Si    c      -0.000849      0.000471      0.000086      0.000000
     23 Si    c       0.000077      0.000024     -0.000431      0.000000
     24 Si    c      -0.000837     -0.000450     -0.001308      0.000000
     25 Si    c       0.000029     -0.000029     -0.001551      0.000000
     26 Si    c      -0.000705      0.000161     -0.000027      0.000000
     27 Si    c      -0.000014     -0.000212     -0.000062      0.000000
     28 Ge    c      -0.000238     -0.000530      0.000644      0.000000
     29 Si    c      -0.000032      0.000050     -0.000399      0.000000
     30 Si    c       0.001112     -0.000627     -0.001327      0.000000
     31 Si    c       0.000014      0.000176      0.000521      0.000000
     32 Si    c       0.000141     -0.000565     -0.000376      0.000000
     33 Si    c       0.000116     -0.000007      0.000189      0.000000
     34 Si    c      -0.000800      0.000431     -0.001167      0.000000
     35 Si    c       0.000034      0.000072      0.000242      0.000000
     36 Si    c       0.000239     -0.000027     -0.000075      0.000000
     37 Ge    c       0.000327      0.000570      0.000323      0.000000
     38 Si    c      -0.000086     -0.000015      0.000077      0.000000
     39 Si    c      -0.000116      0.000047      0.000176      0.000000
     40 Si    c       0.000134     -0.000072      0.001259      0.000000
     41 Si    c      -0.000049      0.000161      0.000217      0.000000
     42 Si    c       0.000010      0.000212      0.002255      0.000000
     43 Si    c       0.000037      0.000031     -0.000686      0.000000
     44 Si    c       0.001915     -0.000885     -0.001940      0.000000
     45 Si    c      -0.000103      0.000055      0.000103      0.000000
     46 Si    c      -0.000287     -0.000131     -0.000610      0.000000
     47 Si    c       0.000026      0.000100     -0.000320      0.000000
     48 Si    c       0.000533     -0.000055     -0.000868      0.000000
     49 Si    c       0.000659     -0.000009     -0.003317      0.000000
     50 Si    c       0.000202      0.000230     -0.000298      0.000000
     51 Si    c       0.000124     -0.000171      0.000705      0.000000
     52 Si    c       0.000253      0.000150     -0.000250      0.000000
     53 Si    c      -0.000107     -0.000132      0.000980      0.000000
     54 Si    c       0.000337     -0.000380     -0.000028      0.000000
     55 Si    c      -0.000446      0.000231     -0.000731      0.000000
     56 Si    c       0.000014      0.000976      0.001417      0.000000
     57 Si    c       0.000093      0.000028      0.000301      0.000000
     58 Si    c       0.000395     -0.000233     -0.001607      0.000000
     59 Si    c       0.000020      0.000283      0.000150      0.000000
     60 Si    c      -0.000055      0.000227      0.000039      0.000000
     61 O2    c       0.000004     -0.001888      0.005632      0.000000
     62 O2    c       0.000025      0.000196      0.000356      0.000000
     63 O2    c       0.000080     -0.000055     -0.000188      0.000000
     64 O2    c      -0.000153     -0.000406     -0.000799      0.000000
     65 O2    c      -0.000078      0.000031      0.000397      0.000000
     66 O2    c       0.000071     -0.000122      0.000043      0.000000
     67 O2    c      -0.000305     -0.000111      0.000213      0.000000
     68 O2    c       0.000071     -0.000023      0.000007      0.000000
     69 O2    c       0.000106      0.000785      0.000221      0.000000
     70 O2    c       0.000370     -0.000064     -0.000126      0.000000
     71 O2    c      -0.000441      0.000755     -0.001206      0.000000
     72 O2    c       0.000229     -0.000198      0.000495      0.000000
     73 O3    c      -0.000086     -0.003500      0.002042      0.000000
     74 O2    c       0.000063      0.000241     -0.000477      0.000000
     75 O2    c       0.000792     -0.000996     -0.000936      0.000000
     76 O2    c      -0.000046      0.000106      0.000098      0.000000
     77 O2    c      -0.000122      0.000098     -0.000343      0.000000
     78 O2    c      -0.000150      0.000026     -0.000275      0.000000
     79 O3    c       0.000968     -0.001059      0.002024      0.000000
     80 O2    c      -0.000813      0.000492      0.000530      0.000000
     81 O2    c      -0.000026      0.000133     -0.000075      0.000000
     82 O2    c      -0.000315     -0.000084      0.000214      0.000000
     83 O2    c       0.000444     -0.000465      0.000145      0.000000
     84 O2    c       0.000105      0.000027      0.000306      0.000000
     85 O2    c       0.000243      0.000445     -0.000470      0.000000
     86 O2    c       0.000663      0.000700     -0.000004      0.000000
     87 O2    c       0.000140     -0.000104     -0.000156      0.000000
     88 O2    c       0.000137      0.000184     -0.000508      0.000000
     89 O2    c       0.000037     -0.000058      0.000012      0.000000
     90 O2    c       0.000017      0.000063     -0.000223      0.000000
     91 O2    c       0.000067      0.000066     -0.000892      0.000000
     92 O2    c      -0.000119      0.000086     -0.000583      0.000000
     93 O2    c       0.000298      0.000308      0.000314      0.000000
     94 O2    c      -0.000362      0.000204     -0.002200      0.000000
     95 O2    c      -0.000013      0.000107     -0.000897      0.000000
     96 O2    c      -0.000135     -0.000092      0.002375      0.000000
     97 O2    c      -0.002311      0.002676      0.001370      0.000000
     98 O3    c       0.000119     -0.000692     -0.000089      0.000000
     99 O2    c       0.000003      0.000018     -0.000044      0.000000
    100 O2    c      -0.000017      0.000072     -0.000398      0.000000
    101 O2    c       0.000158      0.000543      0.000602      0.000000
    102 O2    c       0.000260     -0.000168     -0.000376      0.000000
    103 O2    c       0.000718     -0.000806     -0.000180      0.000000
    104 O2    c      -0.000607      0.000343     -0.000093      0.000000
    105 O2    c       0.000005     -0.000060      0.000022      0.000000
    106 O2    c      -0.000595      0.000627     -0.000243      0.000000
    107 O2    c      -0.000010     -0.000004      0.000045      0.000000
    108 O2    c      -0.000070      0.000409      0.000746      0.000000
    109 O2    c       0.000105     -0.000291      0.001124      0.000000
    110 O2    c       0.000102      0.000013      0.000188      0.000000
    111 O2    c      -0.000011      0.000015     -0.000769      0.000000
    112 O2    c      -0.000013      0.000125      0.000140      0.000000
    113 O3    c      -0.003437      0.000775     -0.008147      0.000000
    114 O2    c       0.000209     -0.000132      0.000448      0.000000
    115 O3    c       0.000262     -0.000026      0.000189      0.000000
    116 O2    c       0.000087     -0.000063      0.000055      0.000000
    117 O2    c       0.000032      0.000041     -0.000088      0.000000
    118 O2    c      -0.000104      0.000035      0.000125      0.000000
    119 O2    c       0.000040     -0.000056      0.000052      0.000000
    120 O2    c       0.000203      0.000004     -0.000020      0.000000
    121 O2    c       0.000059     -0.000044     -0.000022      0.000000
    122 O2    c      -0.000385      0.000803      0.000198      0.000000
    123 O2    c      -0.000040     -0.000059     -0.000111      0.000000
    124 O2    c      -0.000108      0.000185     -0.000122      0.000000
    125 O2    c      -0.000025      0.000006      0.000007      0.000000
    126 O2    c      -0.000057     -0.000080     -0.000113      0.000000
    127 O3    c      -0.001075      0.000076     -0.000015      0.000000
    128 O3    c      -0.000114      0.000066      0.000517      0.000000
    129 O2    c       0.000108      0.000097      0.000059      0.000000
    130 O2    c       0.000128     -0.000069     -0.000111      0.000000
    131 O2    c       0.000026     -0.000115     -0.000220      0.000000
    132 O2    c      -0.000230      0.000107      0.000227      0.000000
    133 O2    c      -0.000208      0.000156      0.000495      0.000000
    134 O2    c      -0.000107     -0.000004     -0.000175      0.000000
    135 O2    c      -0.000027      0.000045     -0.000145      0.000000
    136 O2    c      -0.000028      0.000132      0.000061      0.000000
    137 O2    c       0.000118     -0.000059      0.000043      0.000000
    138 O2    c       0.000004     -0.000093     -0.000126      0.000000
    139 O3    c       0.002204     -0.000837      0.000223      0.000000
    140 O2    c       0.000095     -0.000027     -0.000213      0.000000
    141 O2    c      -0.000073      0.000106      0.000008      0.000000
    142 O2    c      -0.000055      0.000037      0.000215      0.000000
    143 O2    c       0.000099     -0.000006     -0.000019      0.000000
    144 O2    c       0.000130      0.000000     -0.000538      0.000000
    145 O2    c       0.000556     -0.000243      0.000473      0.000000
    146 O3    c      -0.000312     -0.000339     -0.000245      0.000000
    147 O2    c      -0.000054      0.000099      0.000095      0.000000
    148 O2    c      -0.000130      0.000183      0.000344      0.000000
    149 O2    c      -0.000019      0.000048      0.000011      0.000000
    150 O2    c       0.001151     -0.000955      0.000792      0.000000
    151 O3    c      -0.000826     -0.000462     -0.000436      0.000000
    152 O2    c       0.000287     -0.000084      0.000802      0.000000
    153 O2    c      -0.000031      0.000071      0.000159      0.000000
    154 O3    c       0.000187      0.000651     -0.000831      0.000000
    155 O2    c      -0.000138      0.000071      0.000304      0.000000
    156 O2    c       0.000282     -0.000572     -0.000315      0.000000
    157 O2    c      -0.000058     -0.000132     -0.000039      0.000000
    158 O2    c      -0.000021     -0.000010      0.004659      0.000000
    159 O2    c       0.000111     -0.000083     -0.000089      0.000000
    160 O2    c       0.000067      0.000064     -0.000670      0.000000
    161 O2    c       0.000048     -0.000095     -0.000002      0.000000
    162 O2    c      -0.000055      0.000091      0.000391      0.000000
    163 O2    c      -0.000284     -0.000214     -0.000961      0.000000
    164 O2    c      -0.000016      0.000143      0.000444      0.000000
    165 O2    c       0.000059     -0.000077      0.000105      0.000000
    166 O2    c       0.000010     -0.000027     -0.000020      0.000000
    167 O2    c      -0.000128     -0.000086     -0.000028      0.000000
    168 O2    c      -0.000123      0.000158      0.000300      0.000000
    169 O3    c      -0.000243      0.000259     -0.000988      0.000000
    170 O2    c       0.000544     -0.000464      0.000515      0.000000
    171 O2    c       0.000117     -0.000183     -0.000075      0.000000
    172 O2    c       0.000021     -0.000018     -0.000031      0.000000
    173 O2    c       0.000010      0.000016      0.000040      0.000000
    174 O2    c      -0.000060     -0.000047     -0.000547      0.000000
    175 O2    c       0.000238      0.000322      0.002513      0.000000
    176 O2    c      -0.000119      0.000047      0.000514      0.000000
    177 O2    c      -0.000098     -0.000389      0.000014      0.000000
    178 O2    c       0.000015     -0.000197     -0.000035      0.000000
    179 O2    c       0.000293      0.000083      0.000312      0.000000
    180 O2    c      -0.000091      0.000188      0.000335      0.000000
    181 F     c       0.000071      0.000122     -0.000934      0.000000
    182 F     c      -0.000052     -0.000025     -0.000144      0.000000
    183 F     c       0.000195     -0.000160      0.000126      0.000000
    184 F     c       0.000014     -0.000000     -0.000039      0.000000
    185 F     c       0.000388     -0.000263      0.001865      0.000000
    186 F     c       0.000014      0.000011     -0.000525      0.000000
    187 O2    s       0.000277     -0.000729     -0.001768      0.000000
    188 O2    s      -0.000221      0.000109     -0.000455      0.000000
    189 O2    s      -0.000074      0.000048      0.000173      0.000000
    190 O2    s      -0.000017      0.000130      0.000186      0.000000
    191 O2    s      -0.000069     -0.000045     -0.000468      0.000000
    192 O2    s      -0.000113     -0.000130     -0.000130      0.000000
    193 O2    s       0.000093      0.000041      0.000073      0.000000
    194 O2    s       0.000054     -0.000112      0.000070      0.000000
    195 O2    s       0.000014     -0.000914     -0.000738      0.000000
    196 O2    s      -0.000227      0.000157     -0.000342      0.000000
    197 O2    s       0.000729     -0.000411      0.001180      0.000000
    198 O2    s      -0.000091      0.000074     -0.000157      0.000000
    199 O3    s       0.000155      0.003364     -0.003808      0.000000
    200 O2    s      -0.000019      0.000018      0.000038      0.000000
    201 O2    s      -0.000405      0.000328     -0.000142      0.000000
    202 O2    s       0.000047     -0.000072      0.000030      0.000000
    203 O2    s      -0.000138     -0.000128      0.000210      0.000000
    204 O2    s       0.000065     -0.000050      0.000160      0.000000
    205 O3    s       0.001610      0.000475     -0.002683      0.000000
    206 O2    s       0.000030      0.000187     -0.000191      0.000000
    207 O2    s      -0.000028     -0.000055      0.000238      0.000000
    208 O2    s       0.000127      0.000092     -0.000186      0.000000
    209 O2    s       0.000130     -0.000416     -0.000067      0.000000
    210 O2    s      -0.000131      0.000072      0.000128      0.000000
    211 O2    s      -0.000123      0.000317      0.000481      0.000000
    212 O2    s      -0.001121     -0.000587      0.000500      0.000000
    213 O2    s       0.000042     -0.000024     -0.000129      0.000000
    214 O2    s      -0.000003     -0.000485      0.001006      0.000000
    215 O2    s      -0.000021      0.000068      0.000029      0.000000
    216 O2    s      -0.000207     -0.000075      0.000539      0.000000
    217 O2    s       0.000195     -0.000027     -0.000611      0.000000
    218 O2    s       0.000053     -0.000003      0.000410      0.000000
    219 O2    s      -0.000254     -0.000918     -0.000619      0.000000
    220 O2    s      -0.000130      0.000015     -0.000042      0.000000
    221 O2    s      -0.000274     -0.000310      0.000194      0.000000
    222 O2    s      -0.000208      0.000170      0.000308      0.000000
    223 O2    s      -0.001080      0.000745      0.000333      0.000000
    224 O3    s       0.000348     -0.000258      0.000109      0.000000
    225 O2    s      -0.000018     -0.000023     -0.000111      0.000000
    226 O2    s      -0.000038      0.000019      0.000207      0.000000
    227 O2    s      -0.000087      0.000380     -0.000104      0.000000
    228 O2    s       0.000164      0.000050     -0.000715      0.000000
    229 O2    s       0.000039     -0.000295     -0.000438      0.000000
    230 O2    s       0.000754     -0.000465      0.001342      0.000000
    231 O2    s       0.000019      0.000006      0.000098      0.000000
    232 O2    s      -0.000075     -0.000151     -0.000551      0.000000
    233 O2    s       0.000071     -0.000097      0.000054      0.000000
    234 O2    s       0.000014     -0.000200     -0.000346      0.000000
    235 O2    s      -0.000242      0.000810     -0.000593      0.000000
    236 O2    s      -0.000078     -0.000012     -0.000056      0.000000
    237 O2    s      -0.000016      0.000098      0.000206      0.000000
    238 O2    s       0.000027      0.000045      0.000176      0.000000
    239 O3    s       0.003871     -0.000220      0.003462      0.000000
    240 O2    s      -0.000093      0.000055     -0.000015      0.000000
    241 O3    s      -0.000115     -0.000195      0.001265      0.000000
    242 O2    s      -0.000018      0.000068     -0.000180      0.000000
    243 O2    s      -0.000024     -0.000015      0.000163      0.000000
    244 O2    s       0.000107     -0.000065     -0.000282      0.000000
    245 O2    s      -0.000041     -0.000020      0.000050      0.000000
    246 O2    s      -0.000200      0.000221     -0.000587      0.000000
    247 O2    s      -0.000039     -0.000026      0.000155      0.000000
    248 O2    s       0.000516     -0.000889     -0.000363      0.000000
    249 O2    s       0.000024     -0.000136     -0.000036      0.000000
    250 O2    s       0.000167      0.000123      0.000255      0.000000
    251 O2    s       0.000014     -0.000036      0.000004      0.000000
    252 O2    s      -0.000083      0.000304      0.000463      0.000000
    253 O3    s       0.000490      0.000062     -0.001013      0.000000
    254 O3    s       0.000196      0.000137     -0.000794      0.000000
    255 O2    s      -0.000116      0.000027     -0.000271      0.000000
    256 O2    s       0.000022     -0.000004      0.000068      0.000000
    257 O2    s       0.000031      0.000060      0.000363      0.000000
    258 O2    s       0.000438     -0.000709     -0.000923      0.000000
    259 O2    s       0.000052     -0.000104     -0.000626      0.000000
    260 O2    s       0.000046      0.000197      0.000416      0.000000
    261 O2    s       0.000024     -0.000022      0.000211      0.000000
    262 O2    s       0.000076     -0.000024      0.000106      0.000000
    263 O2    s      -0.000044     -0.000008      0.000083      0.000000
    264 O2    s       0.000175      0.000085     -0.001622      0.000000
    265 O3    s      -0.003513      0.000229     -0.000797      0.000000
    266 O2    s      -0.000004     -0.000069      0.000384      0.000000
    267 O2    s       0.000161     -0.000059     -0.000266      0.000000
    268 O2    s       0.000145     -0.000116     -0.000371      0.000000
    269 O2    s       0.000073     -0.000051      0.000207      0.000000
    270 O2    s      -0.000351     -0.000347      0.000777      0.000000
    271 O2    s      -0.000427      0.000584     -0.000600      0.000000
    272 O3    s       0.000532      0.000476      0.000329      0.000000
    273 O2    s      -0.000049     -0.000060     -0.000022      0.000000
    274 O2    s       0.000307     -0.000236     -0.000379      0.000000
    275 O2    s      -0.000047      0.000096     -0.000151      0.000000
    276 O2    s      -0.001087      0.000866     -0.001534      0.000000
    277 O3    s       0.001110      0.000340      0.001129      0.000000
    278 O2    s      -0.000034      0.000055      0.000334      0.000000
    279 O2    s      -0.000036     -0.000026      0.000064      0.000000
    280 O3    s      -0.000202     -0.000801      0.000451      0.000000
    281 O2    s       0.000050     -0.000063     -0.000023      0.000000
    282 O2    s      -0.000441      0.000551     -0.001002      0.000000
    283 O2    s      -0.000042      0.000037     -0.000308      0.000000
    284 O2    s      -0.000524      0.000316     -0.002011      0.000000
    285 O2    s      -0.000049      0.000059      0.000317      0.000000
    286 O2    s       0.000188      0.000052     -0.000072      0.000000
    287 O2    s      -0.000026     -0.000007      0.000091      0.000000
    288 O2    s      -0.000024     -0.000105     -0.000373      0.000000
    289 O2    s       0.000696     -0.000300      0.002062      0.000000
    290 O2    s       0.000290     -0.000075     -0.000322      0.000000
    291 O2    s      -0.000066      0.000055      0.000015      0.000000
    292 O2    s      -0.000023      0.000035      0.000010      0.000000
    293 O2    s       0.000046     -0.000025      0.000100      0.000000
    294 O2    s       0.000002     -0.000263     -0.000892      0.000000
    295 O3    s       0.000178     -0.000214      0.000417      0.000000
    296 O2    s      -0.001136      0.000712     -0.000065      0.000000
    297 O2    s      -0.000015     -0.000085     -0.000021      0.000000
    298 O2    s      -0.000228      0.000046     -0.000132      0.000000
    299 O2    s      -0.000059     -0.000025     -0.000091      0.000000
    300 O2    s       0.000268      0.000412      0.001134      0.000000
    301 O2    s       0.000070     -0.000449     -0.000786      0.000000
    302 O2    s       0.000081     -0.000045     -0.000136      0.000000
    303 O2    s       0.000459      0.000496      0.000632      0.000000
    304 O2    s      -0.000036      0.000105     -0.000001      0.000000
    305 O2    s      -0.000640     -0.000247      0.000373      0.000000
    306 O2    s      -0.000026     -0.000034      0.000080      0.000000
    307 F     s      -0.000124     -0.000356      0.001510      0.000000
    308 F     s       0.000065      0.000045      0.000383      0.000000
    309 F     s      -0.000410      0.000393     -0.000025      0.000000
    310 F     s      -0.000034     -0.000034      0.000170      0.000000
    311 F     s       0.000236      0.000387      0.000451      0.000000
    312 F     s       0.000190      0.000074      0.000011      0.000000
--------------------------------------------------------------------------------
  Maximum abs         0.003871      0.003500      0.008147      0.000000
--------------------------------------------------------------------------------


  Time to end of optimisation =      10.8817 seconds


  Peak dynamic memory used =      19.13 MB 


  Timing analysis for GULP :

--------------------------------------------------------------------------------
  Task / Subroutine                                          Time (Seconds)
--------------------------------------------------------------------------------
  Calculation of reciprocal space energy and derivatives          0.3576
  Calculation of real space energy and derivatives                9.2382
  Calculation of three-body energy and derivatives                1.0366
  Calculation of matrix inversion                                 0.1920
--------------------------------------------------------------------------------
  Total CPU time                                                 10.8818
--------------------------------------------------------------------------------


  Dump file written as out.res                                                 
  CIF file written as out.cif                                                 


  Job Finished at 20:13.52  1st December   2016                               

