********************************************************************************
*                       GENERAL UTILITY LATTICE PROGRAM                        *
*                                 Julian Gale                                  *
*                      Nanochemistry Research Institute                        *
*                           Department of Chemistry                            *
*                    Curtin University, Western Australia                      *
********************************************************************************
* Version = 4.2.0 * Last modified =  20th January 2014                         *
********************************************************************************
*  optimise     - perform optimisation run                                     *
*  conp         - constant pressure calculation                                *
*  qok          - running with non charge neutral cell is OK                   *
********************************************************************************

  Job Started  at 17:29.05  1st December   2016                               

  Number of CPUs =     1


  Total number of configurations input =   1

********************************************************************************
*  Input for Configuration =   1                                               *
********************************************************************************

  Formula = Ge3Si57O120F6                                               

  Number of irreducible atoms/shells =     312


  Total number atoms/shells =     312

  Dimensionality = 3               :  Bulk   


  Charge on solid   =  -6.000000 =>neutralising background added


  Cartesian lattice vectors (Angstroms) :

       11.951502    0.000000    0.000000
       -6.014794   10.392024    0.000000
       -0.313838   -0.108846   29.444060

  Cell parameters (Angstroms/Degrees):

  a =      11.9515    alpha =  89.8774
  b =      12.0072    beta  =  90.6107
  c =      29.4459    gamma = 120.0618

  Initial cell volume =        3656.961039 Angs**3

  Temperature of configuration =  0.000     K 

  Pressure of configuration =         0.000 GPa 

  Fractional coordinates of asymmetric unit :

--------------------------------------------------------------------------------
   No.  Atomic       x           y          z         Charge      Occupancy
        Label      (Frac)      (Frac)     (Frac)        (e)         (Frac)  
--------------------------------------------------------------------------------
      1 Ge    c    0.699600    0.375700    0.033890     4.00000    1.000000    
      2 Si    c    0.627074 *  0.324243 *  0.366063 *   4.00000    1.000000    
      3 Si    c    0.682486 *  0.308207 *  0.696333 *   4.00000    1.000000    
      4 Si    c    0.297158 *  0.616448 *  0.529984 *   4.00000    1.000000    
      5 Si    c    0.377007 *  0.677390 *  0.862875 *   4.00000    1.000000    
      6 Si    c    0.319738 *  0.705447 *  0.196534 *   4.00000    1.000000    
      7 Si    c    0.377619 *  0.697288 *  0.296588 *   4.00000    1.000000    
      8 Si    c    0.320219 *  0.622548 *  0.962974 *   4.00000    1.000000    
      9 Si    c    0.302608 *  0.669718 *  0.630726 *   4.00000    1.000000    
     10 Si    c    0.618436 *  0.300680 *  0.798471 *   4.00000    1.000000    
     11 Si    c    0.675736 *  0.377476 *  0.467169 *   4.00000    1.000000    
     12 Si    c    0.686283 *  0.317711 *  0.133011 *   4.00000    1.000000    
     13 Si    c    0.528350 *  0.417721 *  0.966223 *   4.00000    1.000000    
     14 Si    c    0.585056 *  0.110735 *  0.302550 *   4.00000    1.000000    
     15 Si    c    0.898220 *  0.475890 *  0.633368 *   4.00000    1.000000    
     16 Si    c    0.467979 *  0.579851 *  0.464427 *   4.00000    1.000000    
     17 Si    c    0.409852 *  0.884142 *  0.796767 *   4.00000    1.000000    
     18 Si    c    0.108911 *  0.533060 *  0.129180 *   4.00000    1.000000    
     19 Si    c    0.421490 *  0.530702 *  0.362467 *   4.00000    1.000000    
     20 Si    c    0.104854 *  0.582747 *  0.025868 *   4.00000    1.000000    
     21 Si    c    0.468339 *  0.880377 *  0.694083 *   4.00000    1.000000    
     22 Si    c    0.580186 *  0.470950 *  0.864162 *   4.00000    1.000000    
     23 Si    c    0.888179 *  0.417416 *  0.532246 *   4.00000    1.000000    
     24 Si    c    0.527416 *  0.112611 *  0.201314 *   4.00000    1.000000    
     25 Si    c    0.299184 *  0.400281 *  0.848468 *   4.00000    1.000000    
     26 Si    c    0.599305 *  0.907094 *  0.182741 *   4.00000    1.000000    
     27 Si    c    0.097418 *  0.696791 *  0.516853 *   4.00000    1.000000    
     28 Si    c    0.702555 *  0.600933 *  0.350994 *   4.00000    1.000000    
     29 Ge    c    0.411930 *  0.096287 *  0.688688 *   4.00000    1.000000    
     30 Si    c    0.890859 *  0.296045 *  0.011661 *   4.00000    1.000000    
     31 Si    c    0.395074 *  0.298370 *  0.479275 *   4.00000    1.000000    
     32 Si    c    0.893086 *  0.602419 *  0.142211 *   4.00000    1.000000    
     33 Si    c    0.695853 *  0.097117 *  0.813041 *   4.00000    1.000000    
     34 Si    c    0.598505 *  0.698902 *  0.979098 *   4.00000    1.000000    
     35 Si    c    0.100147 *  0.394229 *  0.646487 *   4.00000    1.000000    
     36 Si    c    0.304005 *  0.898458 *  0.315492 *   4.00000    1.000000    
     37 Si    c    0.248879 *  0.342443 *  0.948854 *   4.00000    1.000000    
     38 Si    c    0.658360 *  0.908698 *  0.283388 *   4.00000    1.000000    
     39 Si    c    0.100185 *  0.753492 *  0.617716 *   4.00000    1.000000    
     40 Si    c    0.747969 *  0.657499 *  0.452053 *   4.00000    1.000000    
     41 Si    c    0.329598 *  0.087063 *  0.784166 *   4.00000    1.000000    
     42 Si    c    0.903425 *  0.251201 *  0.114634 *   4.00000    1.000000    
     43 Si    c    0.346152 *  0.253742 *  0.377703 *   4.00000    1.000000    
     44 Si    c    0.898832 *  0.660156 *  0.039595 *   4.00000    1.000000    
     45 Si    c    0.750015 *  0.090402 *  0.711442 *   4.00000    1.000000    
     46 Si    c    0.657392 *  0.748959 *  0.878602 *   4.00000    1.000000    
     47 Si    c    0.087729 *  0.336815 *  0.545701 *   4.00000    1.000000    
     48 Si    c    0.247806 *  0.912081 *  0.215312 *   4.00000    1.000000    
     49 Si    c    0.971609 *  0.122787 *  0.964164 *   4.00000    1.000000    
     50 Si    c    0.875462 *  0.845154 *  0.297659 *   4.00000    1.000000    
     51 Si    c    0.161903 *  0.034293 *  0.634158 *   4.00000    1.000000    
     52 Si    c    0.025947 *  0.876093 *  0.467790 *   4.00000    1.000000    
     53 Si    c    0.118180 *  0.151304 *  0.799383 *   4.00000    1.000000    
     54 Si    c    0.846268 *  0.974163 *  0.131410 *   4.00000    1.000000    
     55 Ge    c    0.123930 *  0.970070 *  0.364811 *   4.00000    1.000000    
     56 Si    c    0.847447 *  0.882953 *  0.030074 *   4.00000    1.000000    
     57 Si    c    0.030207 *  0.146954 *  0.697137 *   4.00000    1.000000    
     58 Si    c    0.874787 *  0.027135 *  0.863841 *   4.00000    1.000000    
     59 Si    c    0.150237 *  0.120162 *  0.532558 *   4.00000    1.000000    
     60 Si    c    0.967021 *  0.850024 *  0.196191 *   4.00000    1.000000    
     61 O2    c    0.927610 *  0.006614 *  0.999016 *   0.87073    1.000000    
     62 O3    c    0.000029 *  0.932815 *  0.327040 *   1.33043    1.000000    
     63 O2    c    0.068599 *  0.064695 *  0.665105 *   0.87073    1.000000    
     64 O2    c    0.068535 *  0.995656 *  0.501253 *   0.87073    1.000000    
     65 O2    c    0.993768 *  0.073348 *  0.830471 *   0.87073    1.000000    
     66 O2    c    0.929346 *  0.935373 *  0.164273 *   0.87073    1.000000    
     67 O2    c    0.342410 *  0.574522 *  0.328567 *   0.87073    1.000000    
     68 O2    c    0.427088 *  0.751402 *  0.664079 *   0.87073    1.000000    
     69 O2    c    0.232158 *  0.658745 *  0.994819 *   0.87073    1.000000    
     70 O2    c    0.656651 *  0.421603 *  0.831913 *   0.87073    1.000000    
     71 O2    c    0.578220 *  0.241532 *  0.171249 *   0.87073    1.000000    
     72 O2    c    0.759516 *  0.339493 *  0.500673 *   0.87073    1.000000    
     73 O3    c    0.566441 *  0.336709 *  0.998494 *   1.33043    1.000000    
     74 O2    c    0.778897 *  0.434645 *  0.667759 *   0.87073    1.000000    
     75 O2    c    0.664645 *  0.236127 *  0.334881 *   0.87073    1.000000    
     76 O2    c    0.418273 *  0.655226 *  0.496571 *   0.87073    1.000000    
     77 O2    c    0.234281 *  0.585334 *  0.162068 *   0.87073    1.000000    
     78 O2    c    0.337578 *  0.760848 *  0.829705 *   0.87073    1.000000    
     79 O2    c    0.125670 *  0.214667 *  0.969336 *   0.87073    1.000000    
     80 O2    c    0.782823 *  0.905921 *  0.303498 *   0.87073    1.000000    
     81 O2    c    0.103083 *  0.879052 *  0.638335 *   0.87073    1.000000    
     82 O2    c    0.871800 *  0.783102 *  0.473740 *   0.87073    1.000000    
     83 O2    c    0.209798 *  0.090219 *  0.808995 *   0.87073    1.000000    
     84 O2    c    0.907953 *  0.128484 *  0.135568 *   0.87073    1.000000    
     85 O3    c    0.222837 *  0.132068 *  0.355776 *   1.33043    1.000000    
     86 O2    c    0.916100 *  0.798093 *  0.023906 *   0.87073    1.000000    
     87 O2    c    0.875404 *  0.089362 *  0.692133 *   0.87073    1.000000    
     88 O2    c    0.784231 *  0.873559 *  0.858177 *   0.87073    1.000000    
     89 O2    c    0.086302 *  0.210364 *  0.525615 *   0.87073    1.000000    
     90 O2    c    0.122186 *  0.914179 *  0.194823 *   0.87073    1.000000    
     91 O2    c    0.917363 *  0.850547 *  0.245934 *   0.87073    1.000000    
     92 O2    c    0.142533 *  0.072653 *  0.583282 *   0.87073    1.000000    
     93 O2    c    0.930776 *  0.064074 *  0.914217 *   0.87073    1.000000    
     94 O2    c    0.066903 *  0.133521 *  0.748331 *   0.87073    1.000000    
     95 O2    c    0.857219 *  0.932173 *  0.081191 *   0.87073    1.000000    
     96 O3    c    0.059515 *  0.932175 *  0.417776 *   1.33043    1.000000    
     97 O2    c    0.902587 *  0.205127 *  0.973903 *   0.87073    1.000000    
     98 O2    c    0.801289 *  0.695932 *  0.312720 *   0.87073    1.000000    
     99 O3    c    0.308241 *  0.106721 *  0.646551 *   1.33043    1.000000    
    100 O2    c    0.096976 *  0.793936 *  0.478206 *   0.87073    1.000000    
    101 O2    c    0.199848 *  0.303808 *  0.809948 *   0.87073    1.000000    
    102 O2    c    0.694989 *  0.905952 *  0.144115 *   0.87073    1.000000    
    103 O3    c    0.209549 *  0.892249 *  0.354950 *   1.33043    1.000000    
    104 O2    c    0.695388 *  0.798445 *  0.017608 *   0.87073    1.000000    
    105 O2    c    0.101895 *  0.298227 *  0.684983 *   0.87073    1.000000    
    106 O2    c    0.789682 *  0.094946 *  0.852558 *   0.87073    1.000000    
    107 O2    c    0.300133 *  0.201688 *  0.517688 *   0.87073    1.000000    
    108 O2    c    0.899003 *  0.701560 *  0.180497 *   0.87073    1.000000    
    109 O2    c    0.320494 *  0.642875 *  0.245666 *   0.87073    1.000000    
    110 O2    c    0.358217 *  0.672382 *  0.580160 *   0.87073    1.000000    
    111 O2    c    0.318380 *  0.678753 *  0.912620 *   0.87073    1.000000    
    112 O2    c    0.674455 *  0.354302 *  0.748295 *   0.87073    1.000000    
    113 O3    c    0.614827 *  0.303982 *  0.085557 *   1.33043    1.000000    
    114 O2    c    0.680907 *  0.323097 *  0.416934 *   0.87073    1.000000    
    115 O2    c    0.371023 *  0.332605 *  0.966500 *   0.87073    1.000000    
    116 O2    c    0.670887 *  0.040178 *  0.303479 *   0.87073    1.000000    
    117 O2    c    0.967423 *  0.631175 *  0.635652 *   0.87073    1.000000    
    118 O2    c    0.624267 *  0.667118 *  0.468532 *   0.87073    1.000000    
    119 O2    c    0.323631 *  0.953582 *  0.799916 *   0.87073    1.000000    
    120 O2    c    0.036489 *  0.377424 *  0.131147 *   0.87073    1.000000    
    121 O2    c    0.335739 *  0.375508 *  0.359352 *   0.87073    1.000000    
    122 O2    c    0.032876 *  0.666271 *  0.023963 *   0.87073    1.000000    
    123 O2    c    0.626215 *  0.957554 *  0.694387 *   0.87073    1.000000    
    124 O2    c    0.666374 *  0.626748 *  0.860046 *   0.87073    1.000000    
    125 O2    c    0.955005 *  0.328579 *  0.527749 *   0.87073    1.000000    
    126 O2    c    0.370694 *  0.044019 *  0.197304 *   0.87073    1.000000    
    127 O3    c    0.755807 *  0.285713 *  0.002213 *   1.33043    1.000000    
    128 O2    c    0.702731 *  0.467022 *  0.343572 *   0.87073    1.000000    
    129 O3    c    0.545595 *  0.246515 *  0.672011 *   1.33043    1.000000    
    130 O2    c    0.228753 *  0.692337 *  0.508146 *   0.87073    1.000000    
    131 O2    c    0.302745 *  0.535292 *  0.839665 *   0.87073    1.000000    
    132 O2    c    0.462462 *  0.775689 *  0.173936 *   0.87073    1.000000    
    133 O2    c    0.302502 *  0.763396 *  0.319533 *   0.87073    1.000000    
    134 O2    c    0.463951 *  0.699607 *  0.985773 *   0.87073    1.000000    
    135 O2    c    0.235802 *  0.527074 *  0.652953 *   0.87073    1.000000    
    136 O2    c    0.692709 *  0.228980 *  0.818841 *   0.87073    1.000000    
    137 O2    c    0.530830 *  0.301509 *  0.487655 *   0.87073    1.000000    
    138 O2    c    0.761637 *  0.467677 *  0.150668 *   0.87073    1.000000    
    139 O3    c    0.772505 *  0.546343 *  0.018395 *   1.33043    1.000000    
    140 O2    c    0.471417 *  0.250526 *  0.359331 *   0.87073    1.000000    
    141 O2    c    0.745915 *  0.214892 *  0.693740 *   0.87073    1.000000    
    142 O2    c    0.214298 *  0.460746 *  0.525645 *   0.87073    1.000000    
    143 O2    c    0.533794 *  0.754658 *  0.858702 *   0.87073    1.000000    
    144 O2    c    0.242435 *  0.784568 *  0.194537 *   0.87073    1.000000    
    145 O2    c    0.533383 *  0.780813 *  0.301430 *   0.87073    1.000000    
    146 O2    c    0.246542 *  0.467140 *  0.968390 *   0.87073    1.000000    
    147 O2    c    0.223360 *  0.745802 *  0.636481 *   0.87073    1.000000    
    148 O2    c    0.463298 *  0.211748 *  0.801863 *   0.87073    1.000000    
    149 O2    c    0.748102 *  0.532786 *  0.472161 *   0.87073    1.000000    
    150 O2    c    0.780518 *  0.255077 *  0.134339 *   0.87073    1.000000    
    151 O2    c    0.226529 *  0.326853 *  0.894491 *   0.87073    1.000000    
    152 O2    c    0.674720 *  0.909709 *  0.228929 *   0.87073    1.000000    
    153 O2    c    0.099562 *  0.769903 *  0.563146 *   0.87073    1.000000    
    154 O2    c    0.772566 *  0.675579 *  0.397754 *   0.87073    1.000000    
    155 O3    c    0.303215 *  0.089877 *  0.731616 *   1.33043    1.000000    
    156 O2    c    0.898819 *  0.234396 *  0.060353 *   0.87073    1.000000    
    157 O2    c    0.324070 *  0.228393 *  0.431966 *   0.87073    1.000000    
    158 O2    c    0.893828 *  0.668988 *  0.094895 *   0.87073    1.000000    
    159 O2    c    0.762013 *  0.093418 *  0.766186 *   0.87073    1.000000    
    160 O2    c    0.675330 *  0.768246 *  0.933019 *   0.87073    1.000000    
    161 O2    c    0.090747 *  0.318445 *  0.599980 *   0.87073    1.000000    
    162 O2    c    0.230999 *  0.909407 *  0.269895 *   0.87073    1.000000    
    163 O2    c    0.580725 *  0.559352 *  0.988758 *   0.87073    1.000000    
    164 O2    c    0.444433 *  0.022886 *  0.325215 *   0.87073    1.000000    
    165 O2    c    0.977917 *  0.412889 *  0.656152 *   0.87073    1.000000    
    166 O2    c    0.408628 *  0.437752 *  0.486468 *   0.87073    1.000000    
    167 O2    c    0.552892 *  0.976374 *  0.817755 *   0.87073    1.000000    
    168 O2    c    0.016733 *  0.583637 *  0.148388 *   0.87073    1.000000    
    169 O2    c    0.564390 *  0.589886 *  0.340738 *   0.87073    1.000000    
    170 O2    c    0.014340 *  0.440176 *  0.005420 *   0.87073    1.000000    
    171 O3    c    0.408264 *  0.955502 *  0.668524 *   1.33043    1.000000    
    172 O2    c    0.437960 *  0.411237 *  0.840768 *   0.87073    1.000000    
    173 O2    c    0.969778 *  0.558070 *  0.508761 *   0.87073    1.000000    
    174 O2    c    0.586648 *  0.033691 *  0.175763 *   0.87073    1.000000    
    175 O2    c    0.581902 *  0.164276 *  0.252148 *   0.87073    1.000000    
    176 O2    c    0.837716 *  0.418216 *  0.583296 *   0.87073    1.000000    
    177 O2    c    0.582931 *  0.421841 *  0.915156 *   0.87073    1.000000    
    178 O2    c    0.413546 *  0.835425 *  0.745819 *   0.87073    1.000000    
    179 O2    c    0.152944 *  0.580420 *  0.077664 *   0.87073    1.000000    
    180 O2    c    0.418326 *  0.583486 *  0.412998 *   0.87073    1.000000    
    181 F     c    0.448965 *  0.903807 *  0.247927 *   0.56000    1.000000    
    182 F     c    0.097549 *  0.543514 *  0.581167 *   0.56000    1.000000    
    183 F     c    0.448500 *  0.553309 *  0.912530 *   0.56000    1.000000    
    184 F     c    0.517186 *  0.094069 *  0.737131 *   0.56000    1.000000    
    185 F     c    0.852678 *  0.435424 *  0.069842 *   0.56000    1.000000    
    186 F     c    0.549880 *  0.451939 *  0.413753 *   0.56000    1.000000    
    187 O2    s    0.923513 *  0.005813 *  0.998579 *  -2.87073    1.000000    
    188 O3    s    0.997015 *  0.926356 *  0.327074 *  -3.33043    1.000000    
    189 O2    s    0.073825 *  0.070847 *  0.665542 *  -2.87073    1.000000    
    190 O2    s    0.072877 *  0.996105 *  0.500977 *  -2.87073    1.000000    
    191 O2    s    0.994033 *  0.076794 *  0.830814 *  -2.87073    1.000000    
    192 O2    s    0.924340 *  0.930316 *  0.164149 *  -2.87073    1.000000    
    193 O2    s    0.354138 *  0.582890 *  0.328663 *  -2.87073    1.000000    
    194 O2    s    0.418787 *  0.756167 *  0.663743 *  -2.87073    1.000000    
    195 O2    s    0.227668 *  0.647136 *  0.994857 *  -2.87073    1.000000    
    196 O2    s    0.644915 *  0.413933 *  0.831673 *  -2.87073    1.000000    
    197 O2    s    0.584169 *  0.235958 *  0.170399 *  -2.87073    1.000000    
    198 O2    s    0.763955 *  0.351451 *  0.500402 *  -2.87073    1.000000    
    199 O3    s    0.572458 *  0.348201 *  0.997763 *  -3.33043    1.000000    
    200 O2    s    0.781068 *  0.425532 *  0.667248 *  -2.87073    1.000000    
    201 O2    s    0.652669 *  0.232081 *  0.334698 *  -2.87073    1.000000    
    202 O2    s    0.410956 *  0.643366 *  0.496673 *  -2.87073    1.000000    
    203 O2    s    0.229545 *  0.591823 *  0.162045 *  -2.87073    1.000000    
    204 O2    s    0.349225 *  0.765307 *  0.829630 *  -2.87073    1.000000    
    205 O2    s    0.121696 *  0.217902 *  0.966691 *  -2.87073    1.000000    
    206 O2    s    0.779293 *  0.899707 *  0.300738 *  -2.87073    1.000000    
    207 O2    s    0.108610 *  0.881014 *  0.635735 *  -2.87073    1.000000    
    208 O2    s    0.875035 *  0.779715 *  0.470868 *  -2.87073    1.000000    
    209 O2    s    0.212223 *  0.096306 *  0.805561 *  -2.87073    1.000000    
    210 O2    s    0.901030 *  0.125095 *  0.132988 *  -2.87073    1.000000    
    211 O3    s    0.227038 *  0.130860 *  0.358714 *  -3.33043    1.000000    
    212 O2    s    0.906926 *  0.793323 *  0.026126 *  -2.87073    1.000000    
    213 O2    s    0.878066 *  0.095452 *  0.694681 *  -2.87073    1.000000    
    214 O2    s    0.780898 *  0.877224 *  0.860852 *  -2.87073    1.000000    
    215 O2    s    0.093100 *  0.214020 *  0.528380 *  -2.87073    1.000000    
    216 O2    s    0.118576 *  0.907114 *  0.197057 *  -2.87073    1.000000    
    217 O2    s    0.918416 *  0.849855 *  0.245926 *  -2.87073    1.000000    
    218 O2    s    0.145441 *  0.074087 *  0.582752 *  -2.87073    1.000000    
    219 O2    s    0.928967 *  0.066469 *  0.914089 *  -2.87073    1.000000    
    220 O2    s    0.068571 *  0.137034 *  0.748402 *  -2.87073    1.000000    
    221 O2    s    0.854868 *  0.931511 *  0.081241 *  -2.87073    1.000000    
    222 O3    s    0.061665 *  0.929588 *  0.418372 *  -3.33043    1.000000    
    223 O2    s    0.909004 *  0.205599 *  0.976793 *  -2.87073    1.000000    
    224 O2    s    0.799056 *  0.701975 *  0.315044 *  -2.87073    1.000000    
    225 O3    s    0.298483 *  0.097772 *  0.647948 *  -3.33043    1.000000    
    226 O2    s    0.089643 *  0.792733 *  0.480982 *  -2.87073    1.000000    
    227 O2    s    0.201387 *  0.297576 *  0.812782 *  -2.87073    1.000000    
    228 O2    s    0.701203 *  0.913277 *  0.146706 *  -2.87073    1.000000    
    229 O3    s    0.211793 *  0.899147 *  0.351918 *  -3.33043    1.000000    
    230 O2    s    0.701618 *  0.797290 *  0.015014 *  -2.87073    1.000000    
    231 O2    s    0.094131 *  0.292111 *  0.682302 *  -2.87073    1.000000    
    232 O2    s    0.788607 *  0.088147 *  0.849571 *  -2.87073    1.000000    
    233 O2    s    0.294364 *  0.203278 *  0.515212 *  -2.87073    1.000000    
    234 O2    s    0.905657 *  0.707012 *  0.178128 *  -2.87073    1.000000    
    235 O2    s    0.326138 *  0.654699 *  0.245755 *  -2.87073    1.000000    
    236 O2    s    0.346281 *  0.666366 *  0.580191 *  -2.87073    1.000000    
    237 O2    s    0.324474 *  0.672872 *  0.912709 *  -2.87073    1.000000    
    238 O2    s    0.669357 *  0.344244 *  0.748524 *  -2.87073    1.000000    
    239 O3    s    0.627741 *  0.310166 *  0.086871 *  -3.33043    1.000000    
    240 O2    s    0.674836 *  0.328759 *  0.416763 *  -2.87073    1.000000    
    241 O2    s    0.373462 *  0.342397 *  0.964491 *  -2.87073    1.000000    
    242 O2    s    0.660717 *  0.033734 *  0.301279 *  -2.87073    1.000000    
    243 O2    s    0.973997 *  0.627568 *  0.633523 *  -2.87073    1.000000    
    244 O2    s    0.621091 *  0.657029 *  0.466347 *  -2.87073    1.000000    
    245 O2    s    0.333206 *  0.959722 *  0.797995 *  -2.87073    1.000000    
    246 O2    s    0.030296 *  0.380588 *  0.129241 *  -2.87073    1.000000    
    247 O2    s    0.345933 *  0.379119 *  0.361631 *  -2.87073    1.000000    
    248 O2    s    0.027177 *  0.656798 *  0.025712 *  -2.87073    1.000000    
    249 O2    s    0.623521 *  0.963951 *  0.696184 *  -2.87073    1.000000    
    250 O2    s    0.656551 *  0.623564 *  0.862426 *  -2.87073    1.000000    
    251 O2    s    0.962067 *  0.338553 *  0.530093 *  -2.87073    1.000000    
    252 O2    s    0.373852 *  0.037186 *  0.199611 *  -2.87073    1.000000    
    253 O3    s    0.766385 *  0.292771 *  0.005388 *  -3.33043    1.000000    
    254 O2    s    0.694981 *  0.466288 *  0.346666 *  -2.87073    1.000000    
    255 O3    s    0.550620 *  0.242461 *  0.675788 *  -3.33043    1.000000    
    256 O2    s    0.221958 *  0.684984 *  0.511328 *  -2.87073    1.000000    
    257 O2    s    0.310054 *  0.535775 *  0.843022 *  -2.87073    1.000000    
    258 O2    s    0.461956 *  0.782100 *  0.177199 *  -2.87073    1.000000    
    259 O2    s    0.310537 *  0.770758 *  0.316641 *  -2.87073    1.000000    
    260 O2    s    0.462986 *  0.691625 *  0.982711 *  -2.87073    1.000000    
    261 O2    s    0.228301 *  0.527713 *  0.649927 *  -2.87073    1.000000    
    262 O2    s    0.685445 *  0.222201 *  0.816121 *  -2.87073    1.000000    
    263 O2    s    0.531646 *  0.309081 *  0.484606 *  -2.87073    1.000000    
    264 O2    s    0.768226 *  0.467344 *  0.148001 *  -2.87073    1.000000    
    265 O3    s    0.782109 *  0.548542 *  0.021607 *  -3.33043    1.000000    
    266 O2    s    0.474436 *  0.258710 *  0.361966 *  -2.87073    1.000000    
    267 O2    s    0.739958 *  0.210313 *  0.695930 *  -2.87073    1.000000    
    268 O2    s    0.209284 *  0.463745 *  0.528225 *  -2.87073    1.000000    
    269 O2    s    0.530824 *  0.746006 *  0.861240 *  -2.87073    1.000000    
    270 O2    s    0.251117 *  0.789806 *  0.196924 *  -2.87073    1.000000    
    271 O2    s    0.530471 *  0.786039 *  0.298949 *  -2.87073    1.000000    
    272 O2    s    0.254480 *  0.470073 *  0.965786 *  -2.87073    1.000000    
    273 O2    s    0.218214 *  0.738478 *  0.633882 *  -2.87073    1.000000    
    274 O2    s    0.466213 *  0.208379 *  0.799684 *  -2.87073    1.000000    
    275 O2    s    0.740348 *  0.530062 *  0.469459 *  -2.87073    1.000000    
    276 O2    s    0.784684 *  0.261004 *  0.132038 *  -2.87073    1.000000    
    277 O2    s    0.236450 *  0.336188 *  0.895426 *  -2.87073    1.000000    
    278 O2    s    0.664967 *  0.909333 *  0.229782 *  -2.87073    1.000000    
    279 O2    s    0.099397 *  0.760440 *  0.563965 *  -2.87073    1.000000    
    280 O2    s    0.762785 *  0.665954 *  0.398500 *  -2.87073    1.000000    
    281 O3    s    0.313252 *  0.089970 *  0.734298 *  -3.33043    1.000000    
    282 O2    s    0.898484 *  0.242304 *  0.061394 *  -2.87073    1.000000    
    283 O2    s    0.333655 *  0.238148 *  0.431301 *  -2.87073    1.000000    
    284 O2    s    0.894118 *  0.660661 *  0.094623 *  -2.87073    1.000000    
    285 O2    s    0.753672 *  0.093497 *  0.765459 *  -2.87073    1.000000    
    286 O2    s    0.665460 *  0.759019 *  0.932026 *  -2.87073    1.000000    
    287 O2    s    0.091413 *  0.328394 *  0.599128 *  -2.87073    1.000000    
    288 O2    s    0.239993 *  0.908655 *  0.268759 *  -2.87073    1.000000    
    289 O2    s    0.577063 *  0.560269 *  0.985386 *  -2.87073    1.000000    
    290 O2    s    0.444232 *  0.018688 *  0.321800 *  -2.87073    1.000000    
    291 O2    s    0.982954 *  0.417591 *  0.652739 *  -2.87073    1.000000    
    292 O2    s    0.413560 *  0.437650 *  0.483363 *  -2.87073    1.000000    
    293 O2    s    0.553675 *  0.980174 *  0.815006 *  -2.87073    1.000000    
    294 O2    s    0.013305 *  0.580047 *  0.145638 *  -2.87073    1.000000    
    295 O2    s    0.564306 *  0.584725 *  0.344107 *  -2.87073    1.000000    
    296 O2    s    0.011251 *  0.440785 *  0.008265 *  -2.87073    1.000000    
    297 O3    s    0.414933 *  0.958216 *  0.672621 *  -3.33043    1.000000    
    298 O2    s    0.437956 *  0.416430 *  0.844023 *  -2.87073    1.000000    
    299 O2    s    0.975158 *  0.558344 *  0.512059 *  -2.87073    1.000000    
    300 O2    s    0.581764 *  0.028025 *  0.179111 *  -2.87073    1.000000    
    301 O2    s    0.576428 *  0.153168 *  0.252057 *  -2.87073    1.000000    
    302 O2    s    0.849158 *  0.424053 *  0.583166 *  -2.87073    1.000000    
    303 O2    s    0.577233 *  0.426692 *  0.914855 *  -2.87073    1.000000    
    304 O2    s    0.418510 *  0.844999 *  0.746122 *  -2.87073    1.000000    
    305 O2    s    0.143376 *  0.575611 *  0.077850 *  -2.87073    1.000000    
    306 O2    s    0.423742 *  0.577661 *  0.413039 *  -2.87073    1.000000    
    307 F     s    0.448607 *  0.903481 *  0.247795 *  -1.56000    1.000000    
    308 F     s    0.097752 *  0.543406 *  0.581134 *  -1.56000    1.000000    
    309 F     s    0.448115 *  0.553958 *  0.912373 *  -1.56000    1.000000    
    310 F     s    0.510402 *  0.094256 *  0.734113 *  -1.56000    1.000000    
    311 F     s    0.842814 *  0.431528 *  0.067638 *  -1.56000    1.000000    
    312 F     s    0.550086 *  0.451814 *  0.413606 *  -1.56000    1.000000    
--------------------------------------------------------------------------------



********************************************************************************
*  General input information                                                   *
********************************************************************************

  Species output for all configurations : 

--------------------------------------------------------------------------------
  Species    Type    Atomic    Atomic    Charge       Radii (Angs)     Library
                     Number     Mass       (e)     Cova   Ionic  VDW   Symbol
--------------------------------------------------------------------------------
    Si       Core       14      28.09   4.000000   1.200  0.000  2.100          
    O1       Core        8      16.00   1.733957   0.730  0.000  1.360          
    O1       Shell       8       0.00  -3.733957   0.730  0.000  1.360          
    O2       Core        8      16.00   0.870733   0.730  0.000  1.360          
    O2       Shell       8       0.00  -2.870733   0.730  0.000  1.360          
    O3       Core        8      16.00   1.330431   0.730  0.000  1.360          
    O3       Shell       8       0.00  -3.330431   0.730  0.000  1.360          
    F        Core        9      19.00   0.560000   0.710  0.000  1.300          
    F        Shell       9       0.00  -1.560000   0.710  0.000  1.300          
    Ge       Core       32      72.61   4.000000   1.170  0.000  1.750          
--------------------------------------------------------------------------------


  Lattice summation method               =    Ewald          (3-D)
                                         =    Parry          (2-D)
                                         =    Saunders et al (1-D)
  Accuracy factor for lattice sums       =   12.000


  Time limit = Infinity

  Maximum range for interatomic potentials =        16.000000 Angstroms

  Taper potentials to zero over   1.0000 Angstroms using polynomial

  General interatomic potentials :

--------------------------------------------------------------------------------
Atom  Types   Potential         A         B         C         D     Cutoffs(Ang)
  1     2                                                            Min    Max 
--------------------------------------------------------------------------------
Si   c O1   s Buckingham    0.132E+04 0.318      10.1      0.00     0.000 16.000
Si   c O2   s Buckingham    0.132E+04 0.318      10.1      0.00     0.000 16.000
Si   c O3   s Buckingham    0.132E+04 0.318      10.1      0.00     0.000 16.000
Ge   c O1   s Buckingham    0.150E+04 0.326      16.8      0.00     0.000 16.000
Ge   c O2   s Buckingham    0.150E+04 0.326      16.8      0.00     0.000 16.000
Ge   c O3   s Buckingham    0.150E+04 0.326      16.8      0.00     0.000 16.000
O1   s O1   s Buckingham    0.228E+05 0.149      10.9      0.00     0.000 16.000
O1   s O2   s Buckingham    0.228E+05 0.149      10.9      0.00     0.000 16.000
O1   s O3   s Buckingham    0.228E+05 0.149      10.9      0.00     0.000 16.000
O2   s O2   s Buckingham    0.228E+05 0.149      10.9      0.00     0.000 16.000
O2   s O3   s Buckingham    0.228E+05 0.149      10.9      0.00     0.000 16.000
O3   s O3   s Buckingham    0.228E+05 0.149      10.9      0.00     0.000 16.000
Si   c F    s Buckingham     977.     0.282      0.00      0.00     0.000 16.000
Ge   c F    s Buckingham     681.     0.320      0.00      0.00     0.000 16.000
F    s F    s Buckingham     540.     0.262      0.00      0.00     0.000 16.000
O1   s F    s Buckingham    0.168E+04 0.268      0.00      0.00     0.000 16.000
O2   s F    s Buckingham    0.168E+04 0.268      0.00      0.00     0.000 16.000
O3   s F    s Buckingham    0.168E+04 0.268      0.00      0.00     0.000 16.000
O2   c O2   s Spring (c-s)   76.0      0.00      0.00      0.00     0.000  0.800
O3   c O3   s Spring (c-s)   128.      0.00      0.00      0.00     0.000  0.800
O1   c O1   s Spring (c-s)   180.      0.00      0.00      0.00     0.000  0.800
F    c F    s Spring (c-s)   33.5      0.00      0.00      0.00     0.000  0.800
--------------------------------------------------------------------------------

  General Three-body potentials :

  Harmonic form:

--------------------------------------------------------------------------------
Atom    Atom    Atom           Force Constants            Theta     Cutoffs  
  1       2       3     (eVrad**-2/eVrad**-3/eVrad**-4)   (deg)  1-2  1-3  2-3
--------------------------------------------------------------------------------
Si    c O1    s O1    s  1.261        0.0000    0.0000   109.470 0.00 0.00 0.00
                                                                 1.90 1.90 3.50
Si    c O1    s O2    s  1.261        0.0000    0.0000   109.470 0.00 0.00 0.00
                                                                 1.90 1.90 3.50
Si    c O2    s O2    s  1.261        0.0000    0.0000   109.470 0.00 0.00 0.00
                                                                 1.90 1.90 3.50
--------------------------------------------------------------------------------

********************************************************************************
*  Output for configuration   1                                                *
********************************************************************************


  Components of energy : 

--------------------------------------------------------------------------------
  Interatomic potentials     =        2063.72100205 eV
  Three-body potentials      =           0.46973106 eV
  Monopole - monopole (real) =       -6613.04340490 eV
  Monopole - monopole (recip)=       -3171.30264092 eV
  Monopole - monopole (total)=       -9784.34604582 eV
  Neutralising energy        =          -6.45994024 eV
--------------------------------------------------------------------------------
  Total lattice energy       =       -7726.61525295 eV
--------------------------------------------------------------------------------
  Total lattice energy       =         -745500.2598 kJ/(mole unit cells)
--------------------------------------------------------------------------------


  Number of variables =      939

  Maximum number of calculations  =          1000
  Maximum Hessian update interval =            10
  Maximum step size               =   1.000000000
  Maximum parameter tolerance     =   0.000010000
  Maximum function  tolerance     =   0.000010000
  Maximum gradient  tolerance     =   0.001000000
  Maximum gradient  component     =   0.010000000

  Symmetry not applied to optimisation

  Cell parameters to be optimised using strains

  Newton-Raphson optimiser to be used

  BFGS hessian update to be used

  Dumpfile to be written after every cycle

  Start of bulk optimisation :

  Cycle:      0 Energy:     -7726.615253  Gnorm:      0.005712  CPU:    1.043
  ** Hessian calculated **
  Cycle:      1 Energy:     -7726.716876  Gnorm:      0.007070  CPU:    3.284
  Cycle:      2 Energy:     -7726.718385  Gnorm:      0.001560  CPU:    4.668
  Cycle:      3 Energy:     -7726.718921  Gnorm:      0.000295  CPU:    6.052
  Cycle:      4 Energy:     -7726.718924  Gnorm:      0.000045  CPU:    7.435


  **** Optimisation achieved ****


  Final energy =   -7726.71892417 eV
  Final Gnorm  =       0.00000465

  Components of energy : 

--------------------------------------------------------------------------------
  Interatomic potentials     =        2064.06395422 eV
  Three-body potentials      =           0.48765291 eV
  Monopole - monopole (real) =       -6613.47686259 eV
  Monopole - monopole (recip)=       -3171.33366054 eV
  Monopole - monopole (total)=       -9784.81052313 eV
  Neutralising energy        =          -6.46000817 eV
--------------------------------------------------------------------------------
  Total lattice energy       =       -7726.71892417 eV
--------------------------------------------------------------------------------
  Total lattice energy       =         -745510.2625 kJ/(mole unit cells)
--------------------------------------------------------------------------------

  Final fractional coordinates of atoms :

--------------------------------------------------------------------------------
   No.  Atomic        x           y          z          Radius
        Label       (Frac)      (Frac)     (Frac)       (Angs) 
--------------------------------------------------------------------------------
     1  Ge    c     0.699600    0.375700    0.033890    0.000000
     2  Si    c     0.610248    0.307195    0.365840    0.000000
     3  Si    c     0.670514    0.298492    0.695844    0.000000
     4  Si    c     0.279961    0.600763    0.528362    0.000000
     5  Si    c     0.361462    0.662339    0.860693    0.000000
     6  Si    c     0.303871    0.693764    0.195330    0.000000
     7  Si    c     0.360097    0.681179    0.295435    0.000000
     8  Si    c     0.306127    0.610704    0.961112    0.000000
     9  Si    c     0.291844    0.657324    0.629048    0.000000
    10  Si    c     0.603569    0.286500    0.798020    0.000000
    11  Si    c     0.658395    0.362021    0.467072    0.000000
    12  Si    c     0.671925    0.306475    0.132534    0.000000
    13  Si    c     0.518274    0.408430    0.966721    0.000000
    14  Si    c     0.567951    0.094278    0.302372    0.000000
    15  Si    c     0.888316    0.465931    0.633812    0.000000
    16  Si    c     0.449086    0.562366    0.462669    0.000000
    17  Si    c     0.396437    0.870218    0.794408    0.000000
    18  Si    c     0.094284    0.521074    0.127932    0.000000
    19  Si    c     0.403025    0.511922    0.360537    0.000000
    20  Si    c     0.092698    0.573447    0.024491    0.000000
    21  Si    c     0.457092    0.870656    0.691411    0.000000
    22  Si    c     0.565870    0.457288    0.863729    0.000000
    23  Si    c     0.872410    0.404356    0.532446    0.000000
    24  Si    c     0.511049    0.100075    0.200810    0.000000
    25  Si    c     0.284656    0.385697    0.847446    0.000000
    26  Si    c     0.582905    0.894739    0.182033    0.000000
    27  Si    c     0.081301    0.682835    0.516247    0.000000
    28  Si    c     0.684286    0.582553    0.349741    0.000000
    29  Ge    c     0.400842    0.086974    0.687010    0.000000
    30  Si    c     0.880298    0.286541    0.009808    0.000000
    31  Si    c     0.377240    0.281793    0.478134    0.000000
    32  Si    c     0.878962    0.590952    0.141482    0.000000
    33  Si    c     0.681606    0.082837    0.811674    0.000000
    34  Si    c     0.584756    0.689026    0.977723    0.000000
    35  Si    c     0.090280    0.383251    0.646025    0.000000
    36  Si    c     0.287339    0.882173    0.314975    0.000000
    37  Si    c     0.237968    0.331885    0.948334    0.000000
    38  Si    c     0.640667    0.892205    0.282905    0.000000
    39  Si    c     0.089932    0.742453    0.617247    0.000000
    40  Si    c     0.729569    0.641130    0.450938    0.000000
    41  Si    c     0.315726    0.073253    0.782506    0.000000
    42  Si    c     0.889436    0.240113    0.113448    0.000000
    43  Si    c     0.328946    0.235982    0.376375    0.000000
    44  Si    c     0.891295    0.656907    0.038841    0.000000
    45  Si    c     0.737917    0.080280    0.709903    0.000000
    46  Si    c     0.641955    0.734955    0.876856    0.000000
    47  Si    c     0.071775    0.322485    0.545092    0.000000
    48  Si    c     0.231625    0.899409    0.214673    0.000000
    49  Si    c     0.960223    0.113021    0.962740    0.000000
    50  Si    c     0.856880    0.827217    0.296924    0.000000
    51  Si    c     0.149235    0.022352    0.633241    0.000000
    52  Si    c     0.007045    0.860506    0.466843    0.000000
    53  Si    c     0.103605    0.135968    0.798516    0.000000
    54  Si    c     0.830303    0.962958    0.130778    0.000000
    55  Ge    c     0.106713    0.952872    0.363854    0.000000
    56  Si    c     0.833602    0.874946    0.029150    0.000000
    57  Si    c     0.017613    0.134789    0.696048    0.000000
    58  Si    c     0.860440    0.012331    0.862835    0.000000
    59  Si    c     0.131978    0.104438    0.531403    0.000000
    60  Si    c     0.950527    0.837177    0.195513    0.000000
    61  O2    c     0.914618    0.999695    0.998893    0.000000
    62  O3    c     0.982371    0.913921    0.325976    0.000000
    63  O2    c     0.055198    0.051797    0.664126    0.000000
    64  O2    c     0.048962    0.980473    0.500009    0.000000
    65  O2    c     0.979833    0.057672    0.829788    0.000000
    66  O2    c     0.912917    0.922990    0.163604    0.000000
    67  O2    c     0.324379    0.556605    0.326546    0.000000
    68  O2    c     0.417885    0.742140    0.661515    0.000000
    69  O2    c     0.218764    0.647798    0.992979    0.000000
    70  O2    c     0.641449    0.406103    0.831926    0.000000
    71  O2    c     0.563552    0.229421    0.170689    0.000000
    72  O2    c     0.742576    0.325952    0.501404    0.000000
    73  O3    c     0.561700    0.333071    0.999168    0.000000
    74  O2    c     0.769766    0.426065    0.668396    0.000000
    75  O2    c     0.647862    0.218530    0.335057    0.000000
    76  O2    c     0.399150    0.638197    0.494238    0.000000
    77  O2    c     0.219708    0.573953    0.160802    0.000000
    78  O2    c     0.322996    0.745609    0.826749    0.000000
    79  O2    c     0.114103    0.203610    0.968357    0.000000
    80  O2    c     0.764166    0.887707    0.303321    0.000000
    81  O2    c     0.094287    0.868130    0.638145    0.000000
    82  O2    c     0.852976    0.767137    0.472491    0.000000
    83  O2    c     0.195493    0.074843    0.807566    0.000000
    84  O2    c     0.893078    0.117119    0.134627    0.000000
    85  O3    c     0.205942    0.114325    0.354438    0.000000
    86  O2    c     0.906322    0.793521    0.023429    0.000000
    87  O2    c     0.863570    0.080355    0.690382    0.000000
    88  O2    c     0.769499    0.859311    0.856814    0.000000
    89  O2    c     0.068289    0.195146    0.525080    0.000000
    90  O2    c     0.105744    0.902329    0.194614    0.000000
    91  O2    c     0.897791    0.834605    0.244958    0.000000
    92  O2    c     0.125339    0.056197    0.582087    0.000000
    93  O2    c     0.917014    0.050127    0.913356    0.000000
    94  O2    c     0.050964    0.118225    0.747505    0.000000
    95  O2    c     0.840113    0.920839    0.080486    0.000000
    96  O3    c     0.040900    0.916032    0.416675    0.000000
    97  O2    c     0.892632    0.197303    0.971709    0.000000
    98  O2    c     0.782948    0.677730    0.311463    0.000000
    99  O3    c     0.296014    0.097612    0.645045    0.000000
   100  O2    c     0.078772    0.779134    0.477561    0.000000
   101  O2    c     0.184867    0.287952    0.809285    0.000000
   102  O2    c     0.679307    0.895625    0.143390    0.000000
   103  O3    c     0.193055    0.875563    0.354551    0.000000
   104  O2    c     0.682591    0.790184    0.015749    0.000000
   105  O2    c     0.092123    0.286408    0.684359    0.000000
   106  O2    c     0.775437    0.080202    0.851327    0.000000
   107  O2    c     0.281520    0.185228    0.516375    0.000000
   108  O2    c     0.884357    0.689434    0.179718    0.000000
   109  O2    c     0.304022    0.629258    0.244217    0.000000
   110  O2    c     0.344738    0.657843    0.578163    0.000000
   111  O2    c     0.302283    0.664814    0.910326    0.000000
   112  O2    c     0.660585    0.341922    0.748016    0.000000
   113  O3    c     0.606994    0.298889    0.084505    0.000000
   114  O2    c     0.664260    0.306993    0.416980    0.000000
   115  O2    c     0.360478    0.323489    0.966777    0.000000
   116  O2    c     0.653771    0.023692    0.302937    0.000000
   117  O2    c     0.957891    0.620873    0.635704    0.000000
   118  O2    c     0.605189    0.649892    0.466949    0.000000
   119  O2    c     0.310470    0.939857    0.797792    0.000000
   120  O2    c     0.021945    0.365822    0.130369    0.000000
   121  O2    c     0.317738    0.357009    0.357510    0.000000
   122  O2    c     0.024362    0.660819    0.023603    0.000000
   123  O2    c     0.614897    0.948271    0.692245    0.000000
   124  O2    c     0.651129    0.612697    0.858756    0.000000
   125  O2    c     0.938766    0.315217    0.527862    0.000000
   126  O2    c     0.354332    0.031512    0.196688    0.000000
   127  O3    c     0.746746    0.279622    0.001389    0.000000
   128  O2    c     0.685797    0.449287    0.342890    0.000000
   129  O3    c     0.534313    0.238198    0.670933    0.000000
   130  O2    c     0.211476    0.677052    0.506622    0.000000
   131  O2    c     0.287156    0.519949    0.837867    0.000000
   132  O2    c     0.446263    0.764361    0.172592    0.000000
   133  O2    c     0.284820    0.746620    0.318673    0.000000
   134  O2    c     0.449912    0.689514    0.983901    0.000000
   135  O2    c     0.226716    0.515434    0.651926    0.000000
   136  O2    c     0.677204    0.213647    0.818153    0.000000
   137  O2    c     0.513259    0.285637    0.487226    0.000000
   138  O2    c     0.748502    0.456341    0.150355    0.000000
   139  O3    c     0.766809    0.542648    0.016788    0.000000
   140  O2    c     0.454733    0.233038    0.358520    0.000000
   141  O2    c     0.733823    0.205191    0.692695    0.000000
   142  O2    c     0.197191    0.445266    0.524163    0.000000
   143  O2    c     0.518219    0.739808    0.856413    0.000000
   144  O2    c     0.225989    0.772530    0.193353    0.000000
   145  O2    c     0.515616    0.764641    0.300824    0.000000
   146  O2    c     0.233296    0.455694    0.967422    0.000000
   147  O2    c     0.213369    0.734017    0.635399    0.000000
   148  O2    c     0.448570    0.197501    0.800811    0.000000
   149  O2    c     0.729999    0.517033    0.471572    0.000000
   150  O2    c     0.766450    0.243873    0.132965    0.000000
   151  O2    c     0.214030    0.314083    0.893958    0.000000
   152  O2    c     0.657152    0.894550    0.228350    0.000000
   153  O2    c     0.086503    0.757374    0.562534    0.000000
   154  O2    c     0.753561    0.657842    0.396526    0.000000
   155  O3    c     0.290545    0.078244    0.729853    0.000000
   156  O2    c     0.887244    0.225335    0.058976    0.000000
   157  O2    c     0.306838    0.211360    0.430757    0.000000
   158  O2    c     0.879286    0.658499    0.094154    0.000000
   159  O2    c     0.748902    0.081446    0.764788    0.000000
   160  O2    c     0.660199    0.756177    0.931261    0.000000
   161  O2    c     0.078130    0.306385    0.599505    0.000000
   162  O2    c     0.214893    0.895298    0.269376    0.000000
   163  O2    c     0.567962    0.550692    0.988249    0.000000
   164  O2    c     0.427837    0.005528    0.325060    0.000000
   165  O2    c     0.969654    0.404033    0.656316    0.000000
   166  O2    c     0.390236    0.420791    0.485025    0.000000
   167  O2    c     0.539177    0.961438    0.815840    0.000000
   168  O2    c     0.002908    0.572507    0.147114    0.000000
   169  O2    c     0.545727    0.570206    0.338882    0.000000
   170  O2    c     0.000828    0.432139    0.003655    0.000000
   171  O3    c     0.398438    0.947560    0.665993    0.000000
   172  O2    c     0.423643    0.397005    0.840133    0.000000
   173  O2    c     0.953144    0.544559    0.508766    0.000000
   174  O2    c     0.570406    0.021453    0.175425    0.000000
   175  O2    c     0.564039    0.149063    0.252052    0.000000
   176  O2    c     0.825988    0.407404    0.583927    0.000000
   177  O2    c     0.570154    0.411602    0.915135    0.000000
   178  O2    c     0.401351    0.824635    0.743074    0.000000
   179  O2    c     0.139059    0.567730    0.076349    0.000000
   180  O2    c     0.399531    0.564725    0.410993    0.000000
   181  F     c     0.431065    0.888326    0.247170    0.000000
   182  F     c     0.086884    0.532211    0.580462    0.000000
   183  F     c     0.432872    0.541512    0.911246    0.000000
   184  F     c     0.504895    0.083396    0.735459    0.000000
   185  F     c     0.846499    0.430506    0.069562    0.000000
   186  F     c     0.531868    0.433750    0.412535    0.000000
   187  O2    s     0.910513    0.998335    0.998230    0.000000
   188  O3    s     0.979289    0.907709    0.326060    0.000000
   189  O2    s     0.060602    0.058134    0.664557    0.000000
   190  O2    s     0.053488    0.980808    0.499782    0.000000
   191  O2    s     0.979988    0.061274    0.830082    0.000000
   192  O2    s     0.907945    0.918032    0.163474    0.000000
   193  O2    s     0.336112    0.565064    0.326746    0.000000
   194  O2    s     0.409221    0.746494    0.661254    0.000000
   195  O2    s     0.214229    0.636259    0.993103    0.000000
   196  O2    s     0.629856    0.398756    0.831583    0.000000
   197  O2    s     0.569317    0.223946    0.169857    0.000000
   198  O2    s     0.747101    0.337746    0.501000    0.000000
   199  O3    s     0.566683    0.344378    0.998066    0.000000
   200  O2    s     0.771526    0.416687    0.667742    0.000000
   201  O2    s     0.635872    0.214648    0.334789    0.000000
   202  O2    s     0.392095    0.626386    0.494454    0.000000
   203  O2    s     0.214778    0.580364    0.160776    0.000000
   204  O2    s     0.334628    0.750232    0.826809    0.000000
   205  O2    s     0.110026    0.206845    0.965735    0.000000
   206  O2    s     0.760753    0.881738    0.300469    0.000000
   207  O2    s     0.099254    0.869939    0.635437    0.000000
   208  O2    s     0.856245    0.763766    0.469673    0.000000
   209  O2    s     0.197890    0.081107    0.804165    0.000000
   210  O2    s     0.886133    0.113753    0.132050    0.000000
   211  O3    s     0.210074    0.113160    0.357408    0.000000
   212  O2    s     0.897028    0.788127    0.025613    0.000000
   213  O2    s     0.866163    0.086013    0.693024    0.000000
   214  O2    s     0.766194    0.863004    0.859484    0.000000
   215  O2    s     0.075272    0.198832    0.527770    0.000000
   216  O2    s     0.102157    0.895091    0.196753    0.000000
   217  O2    s     0.899363    0.834087    0.245010    0.000000
   218  O2    s     0.128631    0.058225    0.581592    0.000000
   219  O2    s     0.915479    0.052947    0.913201    0.000000
   220  O2    s     0.053201    0.122134    0.747535    0.000000
   221  O2    s     0.838253    0.920538    0.080498    0.000000
   222  O3    s     0.043152    0.913417    0.417308    0.000000
   223  O2    s     0.898753    0.197582    0.974769    0.000000
   224  O2    s     0.780715    0.683785    0.313841    0.000000
   225  O3    s     0.286322    0.088388    0.646467    0.000000
   226  O2    s     0.071559    0.777941    0.480316    0.000000
   227  O2    s     0.186500    0.281891    0.812060    0.000000
   228  O2    s     0.685451    0.902675    0.146008    0.000000
   229  O3    s     0.195200    0.882441    0.351475    0.000000
   230  O2    s     0.688821    0.789011    0.013335    0.000000
   231  O2    s     0.084121    0.280432    0.681652    0.000000
   232  O2    s     0.774396    0.073436    0.848362    0.000000
   233  O2    s     0.275864    0.186886    0.513928    0.000000
   234  O2    s     0.890931    0.694888    0.177338    0.000000
   235  O2    s     0.309670    0.641108    0.244389    0.000000
   236  O2    s     0.332712    0.651955    0.578288    0.000000
   237  O2    s     0.308611    0.659081    0.910482    0.000000
   238  O2    s     0.655577    0.331933    0.748187    0.000000
   239  O3    s     0.619730    0.304584    0.086320    0.000000
   240  O2    s     0.658119    0.312594    0.416772    0.000000
   241  O2    s     0.362614    0.332896    0.964711    0.000000
   242  O2    s     0.643543    0.017252    0.300773    0.000000
   243  O2    s     0.964323    0.617172    0.633558    0.000000
   244  O2    s     0.602172    0.639880    0.464791    0.000000
   245  O2    s     0.319952    0.945999    0.795890    0.000000
   246  O2    s     0.015815    0.369013    0.128368    0.000000
   247  O2    s     0.327960    0.360708    0.359826    0.000000
   248  O2    s     0.018245    0.651334    0.025224    0.000000
   249  O2    s     0.612185    0.954573    0.694060    0.000000
   250  O2    s     0.641430    0.609627    0.861167    0.000000
   251  O2    s     0.945908    0.325129    0.530144    0.000000
   252  O2    s     0.357587    0.024777    0.198984    0.000000
   253  O3    s     0.758060    0.286697    0.004502    0.000000
   254  O2    s     0.677940    0.448579    0.345974    0.000000
   255  O3    s     0.539324    0.234026    0.674692    0.000000
   256  O2    s     0.204798    0.669835    0.509889    0.000000
   257  O2    s     0.294563    0.520567    0.841255    0.000000
   258  O2    s     0.445851    0.770697    0.175939    0.000000
   259  O2    s     0.292963    0.754085    0.315798    0.000000
   260  O2    s     0.449033    0.681413    0.980903    0.000000
   261  O2    s     0.219006    0.516053    0.648913    0.000000
   262  O2    s     0.670146    0.207095    0.815385    0.000000
   263  O2    s     0.514092    0.293160    0.484143    0.000000
   264  O2    s     0.755038    0.456252    0.147661    0.000000
   265  O3    s     0.776291    0.544590    0.020215    0.000000
   266  O2    s     0.457618    0.241203    0.361159    0.000000
   267  O2    s     0.727885    0.200549    0.694882    0.000000
   268  O2    s     0.192245    0.448298    0.526827    0.000000
   269  O2    s     0.515388    0.731279    0.859023    0.000000
   270  O2    s     0.234726    0.777768    0.195791    0.000000
   271  O2    s     0.512744    0.769842    0.298303    0.000000
   272  O2    s     0.241350    0.458653    0.964793    0.000000
   273  O2    s     0.208083    0.726760    0.632807    0.000000
   274  O2    s     0.451620    0.194231    0.798635    0.000000
   275  O2    s     0.722293    0.514265    0.468857    0.000000
   276  O2    s     0.770691    0.249754    0.130775    0.000000
   277  O2    s     0.223948    0.323501    0.894814    0.000000
   278  O2    s     0.647517    0.894338    0.229197    0.000000
   279  O2    s     0.086310    0.747929    0.563367    0.000000
   280  O2    s     0.743927    0.648306    0.397295    0.000000
   281  O3    s     0.300473    0.078252    0.732596    0.000000
   282  O2    s     0.886792    0.232944    0.059986    0.000000
   283  O2    s     0.316366    0.221090    0.430081    0.000000
   284  O2    s     0.880377    0.650887    0.093808    0.000000
   285  O2    s     0.740558    0.081470    0.764058    0.000000
   286  O2    s     0.650392    0.746929    0.930333    0.000000
   287  O2    s     0.078721    0.316180    0.598622    0.000000
   288  O2    s     0.223814    0.894486    0.268225    0.000000
   289  O2    s     0.564565    0.551752    0.984900    0.000000
   290  O2    s     0.427589    0.001550    0.321598    0.000000
   291  O2    s     0.974280    0.408374    0.652861    0.000000
   292  O2    s     0.395177    0.420660    0.481922    0.000000
   293  O2    s     0.539959    0.965429    0.813116    0.000000
   294  O2    s     0.999321    0.568817    0.144418    0.000000
   295  O2    s     0.545713    0.565295    0.342310    0.000000
   296  O2    s     0.998312    0.432606    0.006546    0.000000
   297  O3    s     0.404850    0.949875    0.670110    0.000000
   298  O2    s     0.423558    0.402202    0.843359    0.000000
   299  O2    s     0.958614    0.544763    0.512026    0.000000
   300  O2    s     0.565482    0.015811    0.178741    0.000000
   301  O2    s     0.558816    0.138168    0.251877    0.000000
   302  O2    s     0.837185    0.413054    0.583696    0.000000
   303  O2    s     0.564582    0.416234    0.914718    0.000000
   304  O2    s     0.406245    0.833963    0.743450    0.000000
   305  O2    s     0.129598    0.563378    0.076507    0.000000
   306  O2    s     0.405009    0.559014    0.411073    0.000000
   307  F     s     0.430617    0.887880    0.247031    0.000000
   308  F     s     0.087349    0.532248    0.580415    0.000000
   309  F     s     0.432320    0.542241    0.911069    0.000000
   310  F     s     0.498024    0.083731    0.732352    0.000000
   311  F     s     0.835394    0.426480    0.066931    0.000000
   312  F     s     0.532075    0.433542    0.412374    0.000000
--------------------------------------------------------------------------------

  Final Cartesian lattice vectors (Angstroms) :

       11.949223    0.006331   -0.019304
       -6.008143   10.410389    0.018673
       -0.361393   -0.083857   29.388324


  Final cell parameters and derivatives :

--------------------------------------------------------------------------------
       a           11.949240 Angstrom     dE/de1(xx)     0.000312 eV/strain
       b           12.019747 Angstrom     dE/de2(yy)     0.000533 eV/strain
       c           29.390665 Angstrom     dE/de3(zz)     0.000491 eV/strain
       alpha       89.700426 Degrees      dE/de4(yz)     0.000044 eV/strain
       beta        90.797184 Degrees      dE/de5(xz)     0.000035 eV/strain
       gamma      119.960243 Degrees      dE/de6(xy)     0.000038 eV/strain
--------------------------------------------------------------------------------

  Primitive cell volume =          3656.845681 Angs**3

  Density of cell =      1.749621 g/cm**3

  Non-primitive cell volume =          3656.845681 Angs**3


  Final internal derivatives :

--------------------------------------------------------------------------------
   No.  Atomic          a             b             c           Radius
        Label          (eV)          (eV)          (eV)        (eV/Angs)
--------------------------------------------------------------------------------
      1 Ge    c       0.000000      0.000000      0.000000      0.000000
      2 Si    c       0.000002      0.000025      0.000025      0.000000
      3 Si    c      -0.000066     -0.000070     -0.000025      0.000000
      4 Si    c      -0.000066     -0.000065     -0.000060      0.000000
      5 Si    c       0.000066     -0.000108     -0.000077      0.000000
      6 Si    c       0.000017      0.000033     -0.000154      0.000000
      7 Si    c       0.000005      0.000072     -0.000013      0.000000
      8 Si    c      -0.000134      0.000054      0.000102      0.000000
      9 Si    c      -0.000022     -0.000136     -0.000151      0.000000
     10 Si    c      -0.000024      0.000017      0.000083      0.000000
     11 Si    c      -0.000038      0.000061     -0.000063      0.000000
     12 Si    c      -0.000155      0.000064     -0.001131      0.000000
     13 Si    c       0.000366     -0.000348      0.000927      0.000000
     14 Si    c      -0.000002     -0.000014      0.000069      0.000000
     15 Si    c       0.000022      0.000012      0.000093      0.000000
     16 Si    c       0.000002     -0.000030      0.000026      0.000000
     17 Si    c       0.000012      0.000059      0.000098      0.000000
     18 Si    c       0.000206     -0.000056      0.000312      0.000000
     19 Si    c       0.000012     -0.000032      0.000022      0.000000
     20 Si    c       0.000173     -0.000110     -0.000445      0.000000
     21 Si    c       0.000030      0.000005      0.000003      0.000000
     22 Si    c      -0.000063      0.000042     -0.000249      0.000000
     23 Si    c       0.000047     -0.000009     -0.000346      0.000000
     24 Si    c      -0.000047     -0.000026     -0.000239      0.000000
     25 Si    c      -0.000009      0.000071      0.000077      0.000000
     26 Si    c      -0.000071      0.000028      0.000041      0.000000
     27 Si    c      -0.000052     -0.000014     -0.000135      0.000000
     28 Si    c       0.000024     -0.000017      0.000033      0.000000
     29 Ge    c       0.000051      0.000008      0.000000      0.000000
     30 Si    c      -0.000355      0.000106      0.000230      0.000000
     31 Si    c      -0.000041      0.000039      0.000017      0.000000
     32 Si    c      -0.000155      0.000081     -0.000148      0.000000
     33 Si    c       0.000023     -0.000021      0.000044      0.000000
     34 Si    c       0.000017      0.000118      0.000070      0.000000
     35 Si    c       0.000023      0.000017     -0.000003      0.000000
     36 Si    c       0.000001     -0.000002      0.000108      0.000000
     37 Si    c      -0.000084      0.000007     -0.000252      0.000000
     38 Si    c       0.000005     -0.000021      0.000044      0.000000
     39 Si    c      -0.000014      0.000058      0.000125      0.000000
     40 Si    c       0.000049     -0.000028      0.000047      0.000000
     41 Si    c      -0.000015     -0.000003      0.000145      0.000000
     42 Si    c      -0.000139      0.000035     -0.000080      0.000000
     43 Si    c      -0.000030      0.000014     -0.000013      0.000000
     44 Si    c       0.000218      0.000046     -0.000714      0.000000
     45 Si    c       0.000046     -0.000016     -0.000027      0.000000
     46 Si    c       0.000024     -0.000051     -0.000247      0.000000
     47 Si    c       0.000005      0.000040     -0.000126      0.000000
     48 Si    c      -0.000004      0.000029     -0.000036      0.000000
     49 Si    c       0.000005     -0.000029      0.000005      0.000000
     50 Si    c       0.000011      0.000080      0.000098      0.000000
     51 Si    c      -0.000073     -0.000000     -0.000093      0.000000
     52 Si    c       0.000020     -0.000025      0.000072      0.000000
     53 Si    c      -0.000005      0.000012     -0.000009      0.000000
     54 Si    c      -0.000005      0.000017     -0.000041      0.000000
     55 Ge    c       0.000022     -0.000035      0.000038      0.000000
     56 Si    c       0.000162     -0.000224      0.000076      0.000000
     57 Si    c       0.000005     -0.000045      0.000065      0.000000
     58 Si    c       0.000035     -0.000023     -0.000110      0.000000
     59 Si    c       0.000030      0.000006      0.000008      0.000000
     60 Si    c       0.000066     -0.000063     -0.000049      0.000000
     61 O2    c      -0.000014      0.000127     -0.000257      0.000000
     62 O3    c      -0.000102     -0.000052     -0.000244      0.000000
     63 O2    c      -0.000000     -0.000011     -0.000001      0.000000
     64 O2    c      -0.000030     -0.000018     -0.000035      0.000000
     65 O2    c      -0.000005      0.000005      0.000036      0.000000
     66 O2    c      -0.000049      0.000062     -0.000100      0.000000
     67 O2    c       0.000025     -0.000118      0.000041      0.000000
     68 O2    c       0.000177      0.000084      0.000180      0.000000
     69 O2    c      -0.000009     -0.000038      0.000035      0.000000
     70 O2    c       0.000058     -0.000042     -0.000073      0.000000
     71 O2    c      -0.000038      0.000090     -0.000090      0.000000
     72 O2    c       0.000006     -0.000042      0.000088      0.000000
     73 O3    c      -0.000634      0.000820     -0.000920      0.000000
     74 O2    c       0.000076      0.000100     -0.000031      0.000000
     75 O2    c       0.000036     -0.000034     -0.000028      0.000000
     76 O2    c      -0.000012      0.000024      0.000002      0.000000
     77 O2    c       0.000027      0.000025      0.000105      0.000000
     78 O2    c      -0.000044     -0.000074      0.000029      0.000000
     79 O2    c      -0.000011     -0.000029      0.000007      0.000000
     80 O2    c       0.000046     -0.000037     -0.000052      0.000000
     81 O2    c       0.000016     -0.000050      0.000010      0.000000
     82 O2    c      -0.000008      0.000003      0.000007      0.000000
     83 O2    c      -0.000043      0.000020      0.000005      0.000000
     84 O2    c      -0.000003      0.000004     -0.000020      0.000000
     85 O3    c       0.000007      0.000043     -0.000000      0.000000
     86 O2    c      -0.000291      0.000402      0.000032      0.000000
     87 O2    c      -0.000039      0.000008     -0.000006      0.000000
     88 O2    c       0.000040      0.000009     -0.000014      0.000000
     89 O2    c       0.000010     -0.000032     -0.000018      0.000000
     90 O2    c       0.000007     -0.000001      0.000064      0.000000
     91 O2    c      -0.000054      0.000041      0.000200      0.000000
     92 O2    c      -0.000001     -0.000026      0.000013      0.000000
     93 O2    c       0.000036      0.000053      0.000248      0.000000
     94 O2    c       0.000003      0.000008      0.000070      0.000000
     95 O2    c      -0.000032      0.000010     -0.000223      0.000000
     96 O3    c      -0.000016      0.000040     -0.000077      0.000000
     97 O2    c       0.000021     -0.000024      0.000072      0.000000
     98 O2    c       0.000004     -0.000049      0.000016      0.000000
     99 O3    c       0.000109      0.000070     -0.000115      0.000000
    100 O2    c      -0.000004     -0.000002      0.000005      0.000000
    101 O2    c      -0.000008     -0.000013     -0.000025      0.000000
    102 O2    c       0.000060     -0.000022     -0.000095      0.000000
    103 O3    c      -0.000019      0.000017      0.000012      0.000000
    104 O2    c       0.000133      0.000016      0.000058      0.000000
    105 O2    c       0.000039      0.000057      0.000020      0.000000
    106 O2    c      -0.000002      0.000010     -0.000019      0.000000
    107 O2    c      -0.000006     -0.000003      0.000042      0.000000
    108 O2    c      -0.000006      0.000017      0.000008      0.000000
    109 O2    c       0.000012     -0.000047      0.000092      0.000000
    110 O2    c       0.000096     -0.000003     -0.000071      0.000000
    111 O2    c      -0.000045      0.000027      0.000072      0.000000
    112 O2    c       0.000003      0.000040      0.000031      0.000000
    113 O3    c       0.000231      0.000099     -0.000641      0.000000
    114 O2    c       0.000025     -0.000025     -0.000016      0.000000
    115 O2    c       0.000155     -0.000100      0.000140      0.000000
    116 O2    c       0.000025     -0.000023     -0.000020      0.000000
    117 O2    c      -0.000012      0.000012      0.000007      0.000000
    118 O2    c      -0.000035      0.000025      0.000039      0.000000
    119 O2    c       0.000009     -0.000033      0.000030      0.000000
    120 O2    c       0.000029     -0.000082      0.000007      0.000000
    121 O2    c       0.000000      0.000008      0.000005      0.000000
    122 O2    c      -0.000226      0.000268      0.000017      0.000000
    123 O2    c       0.000013     -0.000021     -0.000003      0.000000
    124 O2    c       0.000011     -0.000013     -0.000054      0.000000
    125 O2    c      -0.000055      0.000037     -0.000011      0.000000
    126 O2    c       0.000001      0.000001      0.000016      0.000000
    127 O3    c      -0.000161      0.000396      0.000621      0.000000
    128 O2    c       0.000012     -0.000012      0.000030      0.000000
    129 O3    c       0.000005      0.000042     -0.000062      0.000000
    130 O2    c       0.000059     -0.000035     -0.000071      0.000000
    131 O2    c       0.000005     -0.000021     -0.000000      0.000000
    132 O2    c      -0.000004      0.000008      0.000016      0.000000
    133 O2    c      -0.000003     -0.000018      0.000026      0.000000
    134 O2    c       0.000034      0.000044      0.000109      0.000000
    135 O2    c       0.000025     -0.000018     -0.000014      0.000000
    136 O2    c       0.000004      0.000019      0.000041      0.000000
    137 O2    c       0.000032     -0.000019      0.000057      0.000000
    138 O2    c      -0.000102     -0.000037     -0.000035      0.000000
    139 O3    c      -0.000075     -0.000374     -0.000154      0.000000
    140 O2    c       0.000021     -0.000031     -0.000046      0.000000
    141 O2    c      -0.000026      0.000052     -0.000014      0.000000
    142 O2    c       0.000005      0.000040     -0.000004      0.000000
    143 O2    c      -0.000037      0.000028     -0.000055      0.000000
    144 O2    c       0.000014     -0.000007     -0.000009      0.000000
    145 O2    c       0.000008     -0.000000     -0.000017      0.000000
    146 O2    c      -0.000058      0.000082      0.000076      0.000000
    147 O2    c      -0.000013      0.000055      0.000013      0.000000
    148 O2    c      -0.000007      0.000015      0.000049      0.000000
    149 O2    c       0.000013     -0.000022     -0.000015      0.000000
    150 O2    c       0.000146     -0.000125     -0.000077      0.000000
    151 O2    c      -0.000015     -0.000008     -0.000078      0.000000
    152 O2    c       0.000042     -0.000028      0.000000      0.000000
    153 O2    c      -0.000024      0.000056      0.000000      0.000000
    154 O2    c       0.000015      0.000020     -0.000029      0.000000
    155 O3    c      -0.000090      0.000008     -0.000049      0.000000
    156 O2    c      -0.000060      0.000012     -0.000178      0.000000
    157 O2    c      -0.000007     -0.000010      0.000021      0.000000
    158 O2    c      -0.000094      0.000019      0.001950      0.000000
    159 O2    c       0.000027     -0.000012      0.000043      0.000000
    160 O2    c       0.000015      0.000039      0.000310      0.000000
    161 O2    c       0.000018     -0.000043      0.000029      0.000000
    162 O2    c      -0.000043      0.000030     -0.000062      0.000000
    163 O2    c       0.000005      0.000026      0.000119      0.000000
    164 O2    c       0.000006      0.000007      0.000029      0.000000
    165 O2    c      -0.000047      0.000021      0.000079      0.000000
    166 O2    c      -0.000000      0.000002      0.000006      0.000000
    167 O2    c      -0.000011     -0.000025     -0.000009      0.000000
    168 O2    c       0.000096     -0.000037      0.000182      0.000000
    169 O2    c      -0.000042      0.000026     -0.000019      0.000000
    170 O2    c       0.000099      0.000062      0.000035      0.000000
    171 O3    c      -0.000054     -0.000010     -0.000447      0.000000
    172 O2    c       0.000015      0.000002     -0.000032      0.000000
    173 O2    c      -0.000010     -0.000023      0.000019      0.000000
    174 O2    c      -0.000008      0.000027     -0.000029      0.000000
    175 O2    c       0.000015      0.000057      0.000185      0.000000
    176 O2    c      -0.000059      0.000017      0.000255      0.000000
    177 O2    c       0.000019     -0.000035      0.000366      0.000000
    178 O2    c       0.000018     -0.000044     -0.000177      0.000000
    179 O2    c       0.000077      0.000024      0.000201      0.000000
    180 O2    c      -0.000003      0.000006      0.000016      0.000000
    181 F     c       0.000006      0.000026     -0.000063      0.000000
    182 F     c      -0.000023     -0.000024     -0.000052      0.000000
    183 F     c       0.000008     -0.000028     -0.000074      0.000000
    184 F     c       0.000001     -0.000000     -0.000027      0.000000
    185 F     c      -0.000156     -0.000084      0.000083      0.000000
    186 F     c       0.000006      0.000008      0.000014      0.000000
    187 O2    s      -0.000038     -0.000071      0.000049      0.000000
    188 O3    s       0.000037      0.000023      0.000065      0.000000
    189 O2    s      -0.000013     -0.000008     -0.000002      0.000000
    190 O2    s      -0.000023      0.000023      0.000001      0.000000
    191 O2    s       0.000016      0.000007     -0.000026      0.000000
    192 O2    s       0.000037     -0.000024     -0.000018      0.000000
    193 O2    s      -0.000015      0.000022      0.000054      0.000000
    194 O2    s      -0.000085     -0.000023      0.000066      0.000000
    195 O2    s       0.000012      0.000042      0.000015      0.000000
    196 O2    s       0.000001     -0.000009     -0.000003      0.000000
    197 O2    s      -0.000012     -0.000049      0.000261      0.000000
    198 O2    s      -0.000003     -0.000013     -0.000019      0.000000
    199 O3    s       0.000246     -0.000628     -0.000288      0.000000
    200 O2    s      -0.000022     -0.000018     -0.000007      0.000000
    201 O2    s      -0.000011      0.000012     -0.000008      0.000000
    202 O2    s       0.000030      0.000001     -0.000041      0.000000
    203 O2    s      -0.000023     -0.000027     -0.000064      0.000000
    204 O2    s       0.000000      0.000025      0.000023      0.000000
    205 O2    s      -0.000041     -0.000020      0.000013      0.000000
    206 O2    s       0.000023     -0.000003      0.000081      0.000000
    207 O2    s       0.000002     -0.000016      0.000118      0.000000
    208 O2    s      -0.000005      0.000026      0.000037      0.000000
    209 O2    s      -0.000018      0.000010      0.000081      0.000000
    210 O2    s       0.000039     -0.000019      0.000097      0.000000
    211 O3    s      -0.000004     -0.000023     -0.000084      0.000000
    212 O2    s      -0.000074     -0.000005      0.000094      0.000000
    213 O2    s      -0.000012      0.000004     -0.000086      0.000000
    214 O2    s      -0.000044      0.000052      0.000027      0.000000
    215 O2    s      -0.000015     -0.000028     -0.000056      0.000000
    216 O2    s       0.000006      0.000011     -0.000084      0.000000
    217 O2    s       0.000022     -0.000007     -0.000002      0.000000
    218 O2    s      -0.000039      0.000026     -0.000034      0.000000
    219 O2    s      -0.000039     -0.000006      0.000014      0.000000
    220 O2    s       0.000017     -0.000028      0.000054      0.000000
    221 O2    s       0.000036     -0.000122     -0.000231      0.000000
    222 O3    s       0.000003     -0.000028      0.000005      0.000000
    223 O2    s       0.000054     -0.000090     -0.000082      0.000000
    224 O2    s       0.000009      0.000033     -0.000089      0.000000
    225 O3    s      -0.000035      0.000020      0.000146      0.000000
    226 O2    s       0.000002      0.000021     -0.000060      0.000000
    227 O2    s       0.000011     -0.000028     -0.000033      0.000000
    228 O2    s       0.000013     -0.000009     -0.000112      0.000000
    229 O3    s      -0.000009     -0.000005      0.000017      0.000000
    230 O2    s       0.000060      0.000027      0.000144      0.000000
    231 O2    s       0.000014     -0.000003      0.000004      0.000000
    232 O2    s       0.000008     -0.000017      0.000074      0.000000
    233 O2    s       0.000023     -0.000018     -0.000008      0.000000
    234 O2    s       0.000029     -0.000035      0.000068      0.000000
    235 O2    s      -0.000030      0.000041     -0.000121      0.000000
    236 O2    s      -0.000075      0.000013     -0.000003      0.000000
    237 O2    s       0.000074     -0.000020      0.000104      0.000000
    238 O2    s      -0.000012      0.000001      0.000029      0.000000
    239 O3    s      -0.000387     -0.000040     -0.000295      0.000000
    240 O2    s      -0.000004     -0.000017     -0.000013      0.000000
    241 O2    s       0.000089      0.000008      0.000202      0.000000
    242 O2    s       0.000000      0.000010      0.000036      0.000000
    243 O2    s      -0.000004     -0.000025      0.000029      0.000000
    244 O2    s       0.000012      0.000005     -0.000012      0.000000
    245 O2    s      -0.000011      0.000013     -0.000006      0.000000
    246 O2    s      -0.000045      0.000132     -0.000106      0.000000
    247 O2    s      -0.000002      0.000012     -0.000019      0.000000
    248 O2    s       0.000266     -0.000265     -0.000237      0.000000
    249 O2    s      -0.000021     -0.000009     -0.000066      0.000000
    250 O2    s       0.000048      0.000023     -0.000052      0.000000
    251 O2    s      -0.000037     -0.000016      0.000043      0.000000
    252 O2    s       0.000007     -0.000002      0.000018      0.000000
    253 O3    s      -0.000345     -0.000139     -0.000716      0.000000
    254 O2    s       0.000010      0.000002     -0.000101      0.000000
    255 O3    s      -0.000046      0.000002     -0.000039      0.000000
    256 O2    s       0.000007      0.000051     -0.000058      0.000000
    257 O2    s      -0.000069      0.000047     -0.000219      0.000000
    258 O2    s       0.000006     -0.000069     -0.000143      0.000000
    259 O2    s      -0.000023      0.000013      0.000030      0.000000
    260 O2    s      -0.000027     -0.000035     -0.000167      0.000000
    261 O2    s      -0.000003     -0.000005      0.000156      0.000000
    262 O2    s      -0.000004     -0.000004      0.000057      0.000000
    263 O2    s      -0.000018     -0.000005     -0.000023      0.000000
    264 O2    s       0.000067      0.000122      0.000445      0.000000
    265 O3    s      -0.000261     -0.000009      0.000135      0.000000
    266 O2    s      -0.000012      0.000029      0.000032      0.000000
    267 O2    s       0.000018     -0.000018     -0.000037      0.000000
    268 O2    s       0.000089     -0.000074     -0.000222      0.000000
    269 O2    s      -0.000021      0.000046     -0.000013      0.000000
    270 O2    s      -0.000040     -0.000015     -0.000044      0.000000
    271 O2    s       0.000022      0.000012      0.000065      0.000000
    272 O2    s      -0.000009      0.000047      0.000102      0.000000
    273 O2    s       0.000013     -0.000076      0.000033      0.000000
    274 O2    s       0.000010     -0.000001     -0.000022      0.000000
    275 O2    s      -0.000013      0.000023      0.000062      0.000000
    276 O2    s       0.000040     -0.000086      0.000637      0.000000
    277 O2    s      -0.000005     -0.000106     -0.000076      0.000000
    278 O2    s      -0.000003      0.000004      0.000137      0.000000
    279 O2    s       0.000007     -0.000010      0.000061      0.000000
    280 O2    s      -0.000012      0.000004      0.000001      0.000000
    281 O3    s       0.000080      0.000018     -0.000116      0.000000
    282 O2    s       0.000265     -0.000142      0.000068      0.000000
    283 O2    s       0.000004      0.000002     -0.000007      0.000000
    284 O2    s       0.000076      0.000282     -0.000686      0.000000
    285 O2    s       0.000002     -0.000003     -0.000004      0.000000
    286 O2    s      -0.000005     -0.000009     -0.000068      0.000000
    287 O2    s       0.000000      0.000004      0.000134      0.000000
    288 O2    s       0.000043     -0.000019      0.000024      0.000000
    289 O2    s      -0.000119     -0.000005     -0.000229      0.000000
    290 O2    s      -0.000001      0.000010      0.000013      0.000000
    291 O2    s      -0.000016      0.000029     -0.000001      0.000000
    292 O2    s      -0.000004      0.000001      0.000011      0.000000
    293 O2    s      -0.000002      0.000016      0.000068      0.000000
    294 O2    s      -0.000014     -0.000098     -0.000446      0.000000
    295 O2    s      -0.000002     -0.000003     -0.000034      0.000000
    296 O2    s       0.000058      0.000066      0.000004      0.000000
    297 O3    s       0.000060      0.000014      0.000373      0.000000
    298 O2    s       0.000017     -0.000078     -0.000006      0.000000
    299 O2    s      -0.000039      0.000012      0.000013      0.000000
    300 O2    s       0.000004      0.000034      0.000060      0.000000
    301 O2    s      -0.000005     -0.000045     -0.000053      0.000000
    302 O2    s       0.000037     -0.000002     -0.000029      0.000000
    303 O2    s      -0.000014     -0.000003      0.000202      0.000000
    304 O2    s      -0.000006      0.000003     -0.000063      0.000000
    305 O2    s      -0.000151     -0.000003     -0.000020      0.000000
    306 O2    s      -0.000007      0.000011     -0.000074      0.000000
    307 F     s      -0.000016     -0.000040      0.000110      0.000000
    308 F     s       0.000017      0.000065      0.000112      0.000000
    309 F     s       0.000005      0.000074      0.000225      0.000000
    310 F     s      -0.000021     -0.000005      0.000055      0.000000
    311 F     s      -0.000049      0.000173     -0.000583      0.000000
    312 F     s      -0.000016     -0.000015     -0.000027      0.000000
--------------------------------------------------------------------------------
  Maximum abs         0.000634      0.000820      0.001950      0.000000
--------------------------------------------------------------------------------


  Time to end of optimisation =       8.8206 seconds


  Peak dynamic memory used =      19.13 MB 


  Timing analysis for GULP :

--------------------------------------------------------------------------------
  Task / Subroutine                                          Time (Seconds)
--------------------------------------------------------------------------------
  Calculation of reciprocal space energy and derivatives          0.3159
  Calculation of real space energy and derivatives                7.4466
  Calculation of three-body energy and derivatives                0.8294
  Calculation of matrix inversion                                 0.1920
--------------------------------------------------------------------------------
  Total CPU time                                                  8.8206
--------------------------------------------------------------------------------


  Dump file written as out.res                                                 
  CIF file written as out.cif                                                 


  Job Finished at 17:29.14  1st December   2016                               

