********************************************************************************
*                       GENERAL UTILITY LATTICE PROGRAM                        *
*                                 Julian Gale                                  *
*                      Nanochemistry Research Institute                        *
*                           Department of Chemistry                            *
*                    Curtin University, Western Australia                      *
********************************************************************************
* Version = 4.2.0 * Last modified =  20th January 2014                         *
********************************************************************************
*  optimise     - perform optimisation run                                     *
*  conp         - constant pressure calculation                                *
*  qok          - running with non charge neutral cell is OK                   *
********************************************************************************

  Job Started  at 17:14.05  1st December   2016                               

  Number of CPUs =     1


  Total number of configurations input =   1

********************************************************************************
*  Input for Configuration =   1                                               *
********************************************************************************

  Formula = Ge3Si57O120F6                                               

  Number of irreducible atoms/shells =     312


  Total number atoms/shells =     312

  Dimensionality = 3               :  Bulk   


  Charge on solid   =  -6.000000 =>neutralising background added


  Cartesian lattice vectors (Angstroms) :

       11.939932    0.000000    0.000000
       -6.026056   10.409390    0.000000
       -0.372586   -0.120697   29.427729

  Cell parameters (Angstroms/Degrees):

  a =      11.9399    alpha =  89.8399
  b =      12.0278    beta  =  90.7254
  c =      29.4303    gamma = 120.0668

  Initial cell volume =        3657.496067 Angs**3

  Temperature of configuration =  0.000     K 

  Pressure of configuration =         0.000 GPa 

  Fractional coordinates of asymmetric unit :

--------------------------------------------------------------------------------
   No.  Atomic       x           y          z         Charge      Occupancy
        Label      (Frac)      (Frac)     (Frac)        (e)         (Frac)  
--------------------------------------------------------------------------------
      1 Ge    c    0.699600    0.375700    0.033890     4.00000    1.000000    
      2 Si    c    0.620580 *  0.321898 *  0.365279 *   4.00000    1.000000    
      3 Si    c    0.682225 *  0.307451 *  0.696449 *   4.00000    1.000000    
      4 Si    c    0.300026 *  0.620852 *  0.529525 *   4.00000    1.000000    
      5 Si    c    0.376270 *  0.677536 *  0.862946 *   4.00000    1.000000    
      6 Si    c    0.321417 *  0.704590 *  0.196528 *   4.00000    1.000000    
      7 Si    c    0.377076 *  0.698157 *  0.297306 *   4.00000    1.000000    
      8 Si    c    0.319687 *  0.622599 *  0.963147 *   4.00000    1.000000    
      9 Si    c    0.304289 *  0.667625 *  0.630898 *   4.00000    1.000000    
     10 Si    c    0.618011 *  0.300370 *  0.798582 *   4.00000    1.000000    
     11 Si    c    0.677889 *  0.381473 *  0.465569 *   4.00000    1.000000    
     12 Si    c    0.687259 *  0.318272 *  0.132942 *   4.00000    1.000000    
     13 Si    c    0.528595 *  0.418681 *  0.966268 *   4.00000    1.000000    
     14 Si    c    0.583887 *  0.109312 *  0.302024 *   4.00000    1.000000    
     15 Si    c    0.898842 *  0.474128 *  0.633530 *   4.00000    1.000000    
     16 Si    c    0.469018 *  0.583093 *  0.463724 *   4.00000    1.000000    
     17 Si    c    0.409325 *  0.884299 *  0.796788 *   4.00000    1.000000    
     18 Si    c    0.109113 *  0.532472 *  0.129673 *   4.00000    1.000000    
     19 Si    c    0.415188 *  0.525121 *  0.362117 *   4.00000    1.000000    
     20 Si    c    0.104215 *  0.582007 *  0.026179 *   4.00000    1.000000    
     21 Si    c    0.467981 *  0.879457 *  0.694049 *   4.00000    1.000000    
     22 Si    c    0.580179 *  0.471339 *  0.864125 *   4.00000    1.000000    
     23 Si    c    0.888386 *  0.422560 *  0.532043 *   4.00000    1.000000    
     24 Si    c    0.528869 *  0.111589 *  0.200518 *   4.00000    1.000000    
     25 Si    c    0.298889 *  0.401091 *  0.848717 *   4.00000    1.000000    
     26 Si    c    0.600544 *  0.905843 *  0.183401 *   4.00000    1.000000    
     27 Si    c    0.099501 *  0.701559 *  0.517983 *   4.00000    1.000000    
     28 Si    c    0.696113 *  0.597552 *  0.348159 *   4.00000    1.000000    
     29 Ge    c    0.411909 *  0.095513 *  0.688499 *   4.00000    1.000000    
     30 Si    c    0.890674 *  0.295673 *  0.011851 *   4.00000    1.000000    
     31 Si    c    0.399231 *  0.304446 *  0.480778 *   4.00000    1.000000    
     32 Si    c    0.893550 *  0.602456 *  0.142881 *   4.00000    1.000000    
     33 Si    c    0.695595 *  0.097109 *  0.813294 *   4.00000    1.000000    
     34 Si    c    0.598576 *  0.699249 *  0.979207 *   4.00000    1.000000    
     35 Si    c    0.101596 *  0.391904 *  0.645163 *   4.00000    1.000000    
     36 Si    c    0.301847 *  0.899397 *  0.313778 *   4.00000    1.000000    
     37 Si    c    0.248633 *  0.343072 *  0.949073 *   4.00000    1.000000    
     38 Si    c    0.659563 *  0.908543 *  0.284292 *   4.00000    1.000000    
     39 Si    c    0.101763 *  0.751587 *  0.619449 *   4.00000    1.000000    
     40 Si    c    0.747571 *  0.659178 *  0.448768 *   4.00000    1.000000    
     41 Si    c    0.328972 *  0.086956 *  0.783903 *   4.00000    1.000000    
     42 Si    c    0.904016 *  0.251044 *  0.114867 *   4.00000    1.000000    
     43 Si    c    0.338441 *  0.248616 *  0.379850 *   4.00000    1.000000    
     44 Si    c    0.898586 *  0.659850 *  0.040117 *   4.00000    1.000000    
     45 Si    c    0.749466 *  0.089919 *  0.711692 *   4.00000    1.000000    
     46 Si    c    0.657025 *  0.748778 *  0.878605 *   4.00000    1.000000    
     47 Si    c    0.088358 *  0.342211 *  0.543753 *   4.00000    1.000000    
     48 Si    c    0.249144 *  0.910880 *  0.213107 *   4.00000    1.000000    
     49 Si    c    0.971609 *  0.122606 *  0.964577 *   4.00000    1.000000    
     50 Si    c    0.876991 *  0.844427 *  0.297917 *   4.00000    1.000000    
     51 Si    c    0.158746 *  0.028766 *  0.635749 *   4.00000    1.000000    
     52 Si    c    0.027802 *  0.876171 *  0.464675 *   4.00000    1.000000    
     53 Si    c    0.117860 *  0.151860 *  0.799865 *   4.00000    1.000000    
     54 Si    c    0.847075 *  0.974275 *  0.131710 *   4.00000    1.000000    
     55 Si    c    0.122379 *  0.967122 *  0.363764 *   4.00000    1.000000    
     56 Si    c    0.847986 *  0.883032 *  0.030369 *   4.00000    1.000000    
     57 Si    c    0.029426 *  0.145701 *  0.697431 *   4.00000    1.000000    
     58 Si    c    0.874463 *  0.026736 *  0.864225 *   4.00000    1.000000    
     59 Ge    c    0.149579 *  0.121331 *  0.532497 *   4.00000    1.000000    
     60 Si    c    0.968639 *  0.850517 *  0.196289 *   4.00000    1.000000    
     61 O2    c    0.928861 *  0.006868 *  0.999500 *   0.87073    1.000000    
     62 O2    c    0.001971 *  0.925320 *  0.329581 *   0.87073    1.000000    
     63 O2    c    0.066502 *  0.060190 *  0.666863 *   0.87073    1.000000    
     64 O3    c    0.064049 *  0.997407 *  0.494856 *   1.33043    1.000000    
     65 O2    c    0.994168 *  0.073206 *  0.831189 *   0.87073    1.000000    
     66 O2    c    0.929966 *  0.935534 *  0.164748 *   0.87073    1.000000    
     67 O2    c    0.338373 *  0.573524 *  0.328750 *   0.87073    1.000000    
     68 O2    c    0.428475 *  0.750222 *  0.664509 *   0.87073    1.000000    
     69 O2    c    0.231545 *  0.658246 *  0.995124 *   0.87073    1.000000    
     70 O2    c    0.656110 *  0.421299 *  0.831942 *   0.87073    1.000000    
     71 O2    c    0.579162 *  0.240856 *  0.170935 *   0.87073    1.000000    
     72 O2    c    0.761894 *  0.345084 *  0.499543 *   0.87073    1.000000    
     73 O3    c    0.566629 *  0.337255 *  0.998345 *   1.33043    1.000000    
     74 O2    c    0.780110 *  0.433376 *  0.668129 *   0.87073    1.000000    
     75 O2    c    0.659475 *  0.234683 *  0.334393 *   0.87073    1.000000    
     76 O2    c    0.420602 *  0.660208 *  0.495675 *   0.87073    1.000000    
     77 O2    c    0.235144 *  0.583714 *  0.162390 *   0.87073    1.000000    
     78 O2    c    0.337067 *  0.761239 *  0.829772 *   0.87073    1.000000    
     79 O2    c    0.125747 *  0.215295 *  0.969581 *   0.87073    1.000000    
     80 O2    c    0.786373 *  0.907617 *  0.304101 *   0.87073    1.000000    
     81 O2    c    0.104500 *  0.874948 *  0.641792 *   0.87073    1.000000    
     82 O2    c    0.873342 *  0.784408 *  0.469058 *   0.87073    1.000000    
     83 O2    c    0.209653 *  0.090669 *  0.808817 *   0.87073    1.000000    
     84 O2    c    0.908334 *  0.128314 *  0.135764 *   0.87073    1.000000    
     85 O2    c    0.212504 *  0.121166 *  0.359547 *   0.87073    1.000000    
     86 O2    c    0.916000 *  0.797649 *  0.024403 *   0.87073    1.000000    
     87 O2    c    0.874830 *  0.089389 *  0.692147 *   0.87073    1.000000    
     88 O2    c    0.783814 *  0.873465 *  0.858262 *   0.87073    1.000000    
     89 O3    c    0.083744 *  0.218325 *  0.522367 *   1.33043    1.000000    
     90 O2    c    0.123276 *  0.912776 *  0.192618 *   0.87073    1.000000    
     91 O2    c    0.925479 *  0.856374 *  0.246812 *   0.87073    1.000000    
     92 O3    c    0.127198 *  0.056616 *  0.584961 *   1.33043    1.000000    
     93 O2    c    0.930008 *  0.062998 *  0.914741 *   0.87073    1.000000    
     94 O2    c    0.065261 *  0.135390 *  0.749020 *   0.87073    1.000000    
     95 O2    c    0.857767 *  0.932193 *  0.081489 *   0.87073    1.000000    
     96 O2    c    0.067928 *  0.923388 *  0.413482 *   0.87073    1.000000    
     97 O2    c    0.901997 *  0.204352 *  0.974217 *   0.87073    1.000000    
     98 O2    c    0.794779 *  0.693344 *  0.309788 *   0.87073    1.000000    
     99 O3    c    0.306857 *  0.104735 *  0.646185 *   1.33043    1.000000    
    100 O2    c    0.100589 *  0.798874 *  0.479546 *   0.87073    1.000000    
    101 O2    c    0.199302 *  0.304073 *  0.810332 *   0.87073    1.000000    
    102 O2    c    0.696131 *  0.905057 *  0.144730 *   0.87073    1.000000    
    103 O2    c    0.205254 *  0.898433 *  0.352113 *   0.87073    1.000000    
    104 O2    c    0.695814 *  0.799122 *  0.017632 *   0.87073    1.000000    
    105 O2    c    0.103236 *  0.295321 *  0.683375 *   0.87073    1.000000    
    106 O2    c    0.789522 *  0.094733 *  0.852866 *   0.87073    1.000000    
    107 O3    c    0.312429 *  0.211566 *  0.520557 *   1.33043    1.000000    
    108 O2    c    0.898609 *  0.701361 *  0.181239 *   0.87073    1.000000    
    109 O2    c    0.320911 *  0.644077 *  0.246195 *   0.87073    1.000000    
    110 O2    c    0.360456 *  0.672842 *  0.580211 *   0.87073    1.000000    
    111 O2    c    0.317591 *  0.678594 *  0.912719 *   0.87073    1.000000    
    112 O2    c    0.674057 *  0.353544 *  0.748370 *   0.87073    1.000000    
    113 O3    c    0.615058 *  0.304424 *  0.085548 *   1.33043    1.000000    
    114 O2    c    0.680392 *  0.324969 *  0.415514 *   0.87073    1.000000    
    115 O2    c    0.371192 *  0.333530 *  0.966610 *   0.87073    1.000000    
    116 O2    c    0.670923 *  0.039849 *  0.303941 *   0.87073    1.000000    
    117 O2    c    0.968891 *  0.628930 *  0.636753 *   0.87073    1.000000    
    118 O2    c    0.625648 *  0.670871 *  0.466268 *   0.87073    1.000000    
    119 O2    c    0.323203 *  0.953834 *  0.799797 *   0.87073    1.000000    
    120 O2    c    0.036974 *  0.377091 *  0.131543 *   0.87073    1.000000    
    121 O2    c    0.327721 *  0.369115 *  0.359714 *   0.87073    1.000000    
    122 O2    c    0.032234 *  0.665433 *  0.024236 *   0.87073    1.000000    
    123 O2    c    0.626019 *  0.956979 *  0.694678 *   0.87073    1.000000    
    124 O2    c    0.666179 *  0.626929 *  0.859935 *   0.87073    1.000000    
    125 O2    c    0.955060 *  0.334673 *  0.527187 *   0.87073    1.000000    
    126 O2    c    0.372191 *  0.042963 *  0.195634 *   0.87073    1.000000    
    127 O3    c    0.755476 *  0.285438 *  0.002349 *   1.33043    1.000000    
    128 O2    c    0.694105 *  0.462694 *  0.341297 *   0.87073    1.000000    
    129 O3    c    0.545250 *  0.245999 *  0.671880 *   1.33043    1.000000    
    130 O2    c    0.231029 *  0.697516 *  0.509098 *   0.87073    1.000000    
    131 O2    c    0.301950 *  0.535618 *  0.839692 *   0.87073    1.000000    
    132 O2    c    0.464604 *  0.773682 *  0.174291 *   0.87073    1.000000    
    133 O2    c    0.301621 *  0.765316 *  0.319668 *   0.87073    1.000000    
    134 O2    c    0.463837 *  0.699808 *  0.985834 *   0.87073    1.000000    
    135 O2    c    0.237493 *  0.524469 *  0.652486 *   0.87073    1.000000    
    136 O2    c    0.692263 *  0.228701 *  0.819093 *   0.87073    1.000000    
    137 O2    c    0.534823 *  0.306284 *  0.486937 *   0.87073    1.000000    
    138 O2    c    0.761982 *  0.467664 *  0.150967 *   0.87073    1.000000    
    139 O3    c    0.771972 *  0.546354 *  0.018874 *   1.33043    1.000000    
    140 O2    c    0.463619 *  0.245898 *  0.360942 *   0.87073    1.000000    
    141 O2    c    0.745089 *  0.213904 *  0.693872 *   0.87073    1.000000    
    142 O2    c    0.215820 *  0.466142 *  0.524118 *   0.87073    1.000000    
    143 O2    c    0.533176 *  0.754463 *  0.858744 *   0.87073    1.000000    
    144 O2    c    0.244835 *  0.784126 *  0.192540 *   0.87073    1.000000    
    145 O2    c    0.533507 *  0.781764 *  0.302638 *   0.87073    1.000000    
    146 O2    c    0.246263 *  0.467489 *  0.968610 *   0.87073    1.000000    
    147 O2    c    0.224960 *  0.743068 *  0.637657 *   0.87073    1.000000    
    148 O2    c    0.462770 *  0.211517 *  0.801680 *   0.87073    1.000000    
    149 O2    c    0.750181 *  0.536500 *  0.469418 *   0.87073    1.000000    
    150 O2    c    0.781297 *  0.255495 *  0.134404 *   0.87073    1.000000    
    151 O2    c    0.226040 *  0.327635 *  0.894690 *   0.87073    1.000000    
    152 O2    c    0.675882 *  0.908529 *  0.229821 *   0.87073    1.000000    
    153 O2    c    0.102540 *  0.772766 *  0.564952 *   0.87073    1.000000    
    154 O2    c    0.767053 *  0.674247 *  0.394357 *   0.87073    1.000000    
    155 O3    c    0.302582 *  0.089244 *  0.731275 *   1.33043    1.000000    
    156 O2    c    0.899367 *  0.234466 *  0.060551 *   0.87073    1.000000    
    157 O2    c    0.320524 *  0.232387 *  0.434341 *   0.87073    1.000000    
    158 O2    c    0.894528 *  0.668855 *  0.095474 *   0.87073    1.000000    
    159 O2    c    0.761879 *  0.093550 *  0.766462 *   0.87073    1.000000    
    160 O2    c    0.675125 *  0.767905 *  0.933050 *   0.87073    1.000000    
    161 O2    c    0.095049 *  0.319369 *  0.598065 *   0.87073    1.000000    
    162 O2    c    0.231152 *  0.906919 *  0.267428 *   0.87073    1.000000    
    163 O2    c    0.580830 *  0.559948 *  0.988890 *   0.87073    1.000000    
    164 O2    c    0.442383 *  0.022297 *  0.324003 *   0.87073    1.000000    
    165 O2    c    0.978098 *  0.408775 *  0.654950 *   0.87073    1.000000    
    166 O2    c    0.413870 *  0.444241 *  0.487667 *   0.87073    1.000000    
    167 O2    c    0.552512 *  0.976505 *  0.817864 *   0.87073    1.000000    
    168 O2    c    0.016935 *  0.582906 *  0.149150 *   0.87073    1.000000    
    169 O2    c    0.555935 *  0.583017 *  0.338600 *   0.87073    1.000000    
    170 O2    c    0.013909 *  0.439755 *  0.005502 *   0.87073    1.000000    
    171 O3    c    0.408921 *  0.955241 *  0.668241 *   1.33043    1.000000    
    172 O2    c    0.437610 *  0.411801 *  0.840827 *   0.87073    1.000000    
    173 O2    c    0.970468 *  0.564411 *  0.509827 *   0.87073    1.000000    
    174 O2    c    0.588520 *  0.032410 *  0.175600 *   0.87073    1.000000    
    175 O2    c    0.582323 *  0.162634 *  0.251489 *   0.87073    1.000000    
    176 O2    c    0.837039 *  0.420386 *  0.583211 *   0.87073    1.000000    
    177 O2    c    0.583341 *  0.422978 *  0.915213 *   0.87073    1.000000    
    178 O2    c    0.412947 *  0.835686 *  0.745825 *   0.87073    1.000000    
    179 O2    c    0.152113 *  0.579479 *  0.078045 *   0.87073    1.000000    
    180 O2    c    0.414620 *  0.580398 *  0.412456 *   0.87073    1.000000    
    181 F     c    0.450461 *  0.902750 *  0.247222 *   0.56000    1.000000    
    182 F     c    0.098798 *  0.543770 *  0.581517 *   0.56000    1.000000    
    183 F     c    0.447885 *  0.553385 *  0.912505 *   0.56000    1.000000    
    184 F     c    0.516785 *  0.093865 *  0.737042 *   0.56000    1.000000    
    185 F     c    0.852918 *  0.435264 *  0.069961 *   0.56000    1.000000    
    186 F     c    0.546572 *  0.451752 *  0.412938 *   0.56000    1.000000    
    187 O2    s    0.924553 *  0.006002 *  0.999030 *  -2.87073    1.000000    
    188 O2    s    0.001226 *  0.920826 *  0.329802 *  -2.87073    1.000000    
    189 O2    s    0.071739 *  0.066692 *  0.667169 *  -2.87073    1.000000    
    190 O3    s    0.067339 *  0.994509 *  0.494713 *  -3.33043    1.000000    
    191 O2    s    0.994267 *  0.076705 *  0.831471 *  -2.87073    1.000000    
    192 O2    s    0.925086 *  0.930444 *  0.164579 *  -2.87073    1.000000    
    193 O2    s    0.350100 *  0.581522 *  0.328845 *  -2.87073    1.000000    
    194 O2    s    0.420075 *  0.754907 *  0.664107 *  -2.87073    1.000000    
    195 O2    s    0.227112 *  0.646693 *  0.995133 *  -2.87073    1.000000    
    196 O2    s    0.644465 *  0.413716 *  0.831701 *  -2.87073    1.000000    
    197 O2    s    0.585212 *  0.235345 *  0.170059 *  -2.87073    1.000000    
    198 O2    s    0.766185 *  0.356984 *  0.499329 *  -2.87073    1.000000    
    199 O3    s    0.572676 *  0.348767 *  0.997644 *  -3.33043    1.000000    
    200 O2    s    0.782002 *  0.424181 *  0.667581 *  -2.87073    1.000000    
    201 O2    s    0.647636 *  0.230422 *  0.334153 *  -2.87073    1.000000    
    202 O2    s    0.413256 *  0.648273 *  0.495857 *  -2.87073    1.000000    
    203 O2    s    0.230426 *  0.590351 *  0.162348 *  -2.87073    1.000000    
    204 O2    s    0.348659 *  0.765632 *  0.829690 *  -2.87073    1.000000    
    205 O2    s    0.121726 *  0.218444 *  0.966945 *  -2.87073    1.000000    
    206 O2    s    0.782726 *  0.901003 *  0.301412 *  -2.87073    1.000000    
    207 O2    s    0.109585 *  0.876943 *  0.638832 *  -2.87073    1.000000    
    208 O2    s    0.876299 *  0.780733 *  0.466428 *  -2.87073    1.000000    
    209 O2    s    0.212023 *  0.096718 *  0.805424 *  -2.87073    1.000000    
    210 O2    s    0.901486 *  0.124954 *  0.133200 *  -2.87073    1.000000    
    211 O2    s    0.215890 *  0.117945 *  0.362056 *  -2.87073    1.000000    
    212 O2    s    0.906880 *  0.792982 *  0.026595 *  -2.87073    1.000000    
    213 O2    s    0.877507 *  0.095323 *  0.694760 *  -2.87073    1.000000    
    214 O2    s    0.780499 *  0.877087 *  0.860965 *  -2.87073    1.000000    
    215 O3    s    0.089516 *  0.222990 *  0.525323 *  -3.33043    1.000000    
    216 O2    s    0.119740 *  0.905904 *  0.195102 *  -2.87073    1.000000    
    217 O2    s    0.924944 *  0.854347 *  0.246782 *  -2.87073    1.000000    
    218 O3    s    0.132323 *  0.059784 *  0.585138 *  -3.33043    1.000000    
    219 O2    s    0.928333 *  0.065576 *  0.914578 *  -2.87073    1.000000    
    220 O2    s    0.067203 *  0.138433 *  0.749024 *  -2.87073    1.000000    
    221 O2    s    0.855443 *  0.931549 *  0.081538 *  -2.87073    1.000000    
    222 O2    s    0.069794 *  0.923209 *  0.413380 *  -2.87073    1.000000    
    223 O2    s    0.908514 *  0.204929 *  0.977101 *  -2.87073    1.000000    
    224 O2    s    0.793538 *  0.699667 *  0.312395 *  -2.87073    1.000000    
    225 O3    s    0.297121 *  0.095645 *  0.647748 *  -3.33043    1.000000    
    226 O2    s    0.092822 *  0.796994 *  0.481955 *  -2.87073    1.000000    
    227 O2    s    0.200888 *  0.297898 *  0.813173 *  -2.87073    1.000000    
    228 O2    s    0.702435 *  0.912513 *  0.147295 *  -2.87073    1.000000    
    229 O2    s    0.206564 *  0.905768 *  0.349342 *  -2.87073    1.000000    
    230 O2    s    0.702007 *  0.797861 *  0.015069 *  -2.87073    1.000000    
    231 O2    s    0.095232 *  0.289398 *  0.680921 *  -2.87073    1.000000    
    232 O2    s    0.788408 *  0.087948 *  0.849883 *  -2.87073    1.000000    
    233 O3    s    0.307925 *  0.213509 *  0.517572 *  -3.33043    1.000000    
    234 O2    s    0.905494 *  0.706898 *  0.178843 *  -2.87073    1.000000    
    235 O2    s    0.326579 *  0.655686 *  0.246210 *  -2.87073    1.000000    
    236 O2    s    0.348614 *  0.667021 *  0.580213 *  -2.87073    1.000000    
    237 O2    s    0.323705 *  0.672782 *  0.912817 *  -2.87073    1.000000    
    238 O2    s    0.668977 *  0.343541 *  0.748604 *  -2.87073    1.000000    
    239 O3    s    0.628063 *  0.310616 *  0.086852 *  -3.33043    1.000000    
    240 O2    s    0.673968 *  0.330440 *  0.415423 *  -2.87073    1.000000    
    241 O2    s    0.373601 *  0.343311 *  0.964599 *  -2.87073    1.000000    
    242 O2    s    0.660834 *  0.033318 *  0.301697 *  -2.87073    1.000000    
    243 O2    s    0.975481 *  0.625430 *  0.634564 *  -2.87073    1.000000    
    244 O2    s    0.622148 *  0.660544 *  0.464154 *  -2.87073    1.000000    
    245 O2    s    0.332735 *  0.959905 *  0.797876 *  -2.87073    1.000000    
    246 O2    s    0.030722 *  0.380203 *  0.129622 *  -2.87073    1.000000    
    247 O2    s    0.337753 *  0.372655 *  0.362038 *  -2.87073    1.000000    
    248 O2    s    0.026575 *  0.656022 *  0.026011 *  -2.87073    1.000000    
    249 O2    s    0.623326 *  0.963410 *  0.696447 *  -2.87073    1.000000    
    250 O2    s    0.656381 *  0.623726 *  0.862324 *  -2.87073    1.000000    
    251 O2    s    0.962201 *  0.344789 *  0.529473 *  -2.87073    1.000000    
    252 O2    s    0.375268 *  0.036032 *  0.197986 *  -2.87073    1.000000    
    253 O3    s    0.766081 *  0.292507 *  0.005505 *  -3.33043    1.000000    
    254 O2    s    0.686817 *  0.462397 *  0.344474 *  -2.87073    1.000000    
    255 O3    s    0.550263 *  0.241918 *  0.675628 *  -3.33043    1.000000    
    256 O2    s    0.224366 *  0.689997 *  0.512181 *  -2.87073    1.000000    
    257 O2    s    0.309302 *  0.536137 *  0.843075 *  -2.87073    1.000000    
    258 O2    s    0.463930 *  0.780264 *  0.177556 *  -2.87073    1.000000    
    259 O2    s    0.309376 *  0.772484 *  0.316706 *  -2.87073    1.000000    
    260 O2    s    0.462854 *  0.691830 *  0.982790 *  -2.87073    1.000000    
    261 O2    s    0.230119 *  0.525343 *  0.649430 *  -2.87073    1.000000    
    262 O2    s    0.685038 *  0.221973 *  0.816377 *  -2.87073    1.000000    
    263 O2    s    0.535650 *  0.314100 *  0.483954 *  -2.87073    1.000000    
    264 O2    s    0.768641 *  0.467390 *  0.148312 *  -2.87073    1.000000    
    265 O3    s    0.781649 *  0.548533 *  0.022056 *  -3.33043    1.000000    
    266 O2    s    0.466574 *  0.254175 *  0.363386 *  -2.87073    1.000000    
    267 O2    s    0.739181 *  0.209401 *  0.696076 *  -2.87073    1.000000    
    268 O2    s    0.211087 *  0.469345 *  0.526753 *  -2.87073    1.000000    
    269 O2    s    0.530226 *  0.745849 *  0.861285 *  -2.87073    1.000000    
    270 O2    s    0.253309 *  0.789348 *  0.195120 *  -2.87073    1.000000    
    271 O2    s    0.530810 *  0.786878 *  0.300109 *  -2.87073    1.000000    
    272 O2    s    0.254179 *  0.470408 *  0.965997 *  -2.87073    1.000000    
    273 O2    s    0.219784 *  0.735898 *  0.634996 *  -2.87073    1.000000    
    274 O2    s    0.465743 *  0.208190 *  0.799525 *  -2.87073    1.000000    
    275 O2    s    0.742103 *  0.533476 *  0.466759 *  -2.87073    1.000000    
    276 O2    s    0.785472 *  0.261374 *  0.132108 *  -2.87073    1.000000    
    277 O2    s    0.236008 *  0.336954 *  0.895635 *  -2.87073    1.000000    
    278 O2    s    0.666195 *  0.908241 *  0.230670 *  -2.87073    1.000000    
    279 O2    s    0.102182 *  0.763171 *  0.565660 *  -2.87073    1.000000    
    280 O2    s    0.757469 *  0.664529 *  0.395188 *  -2.87073    1.000000    
    281 O3    s    0.312575 *  0.089371 *  0.733961 *  -3.33043    1.000000    
    282 O2    s    0.898963 *  0.242311 *  0.061582 *  -2.87073    1.000000    
    283 O2    s    0.330253 *  0.241319 *  0.433329 *  -2.87073    1.000000    
    284 O2    s    0.894715 *  0.660556 *  0.095215 *  -2.87073    1.000000    
    285 O2    s    0.753487 *  0.093550 *  0.765741 *  -2.87073    1.000000    
    286 O2    s    0.665258 *  0.758759 *  0.932058 *  -2.87073    1.000000    
    287 O2    s    0.095124 *  0.329220 *  0.597483 *  -2.87073    1.000000    
    288 O2    s    0.240438 *  0.906557 *  0.266444 *  -2.87073    1.000000    
    289 O2    s    0.577181 *  0.560867 *  0.985508 *  -2.87073    1.000000    
    290 O2    s    0.442140 *  0.018011 *  0.320559 *  -2.87073    1.000000    
    291 O2    s    0.983221 *  0.413895 *  0.651660 *  -2.87073    1.000000    
    292 O2    s    0.418251 *  0.443898 *  0.484404 *  -2.87073    1.000000    
    293 O2    s    0.553297 *  0.980294 *  0.815130 *  -2.87073    1.000000    
    294 O2    s    0.013521 *  0.579457 *  0.146382 *  -2.87073    1.000000    
    295 O2    s    0.556377 *  0.578390 *  0.342058 *  -2.87073    1.000000    
    296 O2    s    0.010820 *  0.440315 *  0.008376 *  -2.87073    1.000000    
    297 O3    s    0.415412 *  0.957804 *  0.672321 *  -3.33043    1.000000    
    298 O2    s    0.437686 *  0.417011 *  0.844100 *  -2.87073    1.000000    
    299 O2    s    0.975984 *  0.564408 *  0.513039 *  -2.87073    1.000000    
    300 O2    s    0.583513 *  0.026851 *  0.178984 *  -2.87073    1.000000    
    301 O2    s    0.576782 *  0.151549 *  0.251406 *  -2.87073    1.000000    
    302 O2    s    0.848654 *  0.426108 *  0.583099 *  -2.87073    1.000000    
    303 O2    s    0.577587 *  0.427742 *  0.914896 *  -2.87073    1.000000    
    304 O2    s    0.417919 *  0.845114 *  0.746125 *  -2.87073    1.000000    
    305 O2    s    0.142690 *  0.574751 *  0.078224 *  -2.87073    1.000000    
    306 O2    s    0.420252 *  0.574943 *  0.412522 *  -2.87073    1.000000    
    307 F     s    0.450210 *  0.902419 *  0.247041 *  -1.56000    1.000000    
    308 F     s    0.098972 *  0.543546 *  0.581525 *  -1.56000    1.000000    
    309 F     s    0.447462 *  0.553992 *  0.912330 *  -1.56000    1.000000    
    310 F     s    0.509897 *  0.094052 *  0.733956 *  -1.56000    1.000000    
    311 F     s    0.843039 *  0.431366 *  0.067756 *  -1.56000    1.000000    
    312 F     s    0.546747 *  0.451651 *  0.412802 *  -1.56000    1.000000    
--------------------------------------------------------------------------------



********************************************************************************
*  General input information                                                   *
********************************************************************************

  Species output for all configurations : 

--------------------------------------------------------------------------------
  Species    Type    Atomic    Atomic    Charge       Radii (Angs)     Library
                     Number     Mass       (e)     Cova   Ionic  VDW   Symbol
--------------------------------------------------------------------------------
    Si       Core       14      28.09   4.000000   1.200  0.000  2.100          
    O1       Core        8      16.00   1.733957   0.730  0.000  1.360          
    O1       Shell       8       0.00  -3.733957   0.730  0.000  1.360          
    O2       Core        8      16.00   0.870733   0.730  0.000  1.360          
    O2       Shell       8       0.00  -2.870733   0.730  0.000  1.360          
    O3       Core        8      16.00   1.330431   0.730  0.000  1.360          
    O3       Shell       8       0.00  -3.330431   0.730  0.000  1.360          
    F        Core        9      19.00   0.560000   0.710  0.000  1.300          
    F        Shell       9       0.00  -1.560000   0.710  0.000  1.300          
    Ge       Core       32      72.61   4.000000   1.170  0.000  1.750          
--------------------------------------------------------------------------------


  Lattice summation method               =    Ewald          (3-D)
                                         =    Parry          (2-D)
                                         =    Saunders et al (1-D)
  Accuracy factor for lattice sums       =   12.000


  Time limit = Infinity

  Maximum range for interatomic potentials =        16.000000 Angstroms

  Taper potentials to zero over   1.0000 Angstroms using polynomial

  General interatomic potentials :

--------------------------------------------------------------------------------
Atom  Types   Potential         A         B         C         D     Cutoffs(Ang)
  1     2                                                            Min    Max 
--------------------------------------------------------------------------------
Si   c O1   s Buckingham    0.132E+04 0.318      10.1      0.00     0.000 16.000
Si   c O2   s Buckingham    0.132E+04 0.318      10.1      0.00     0.000 16.000
Si   c O3   s Buckingham    0.132E+04 0.318      10.1      0.00     0.000 16.000
Ge   c O1   s Buckingham    0.150E+04 0.326      16.8      0.00     0.000 16.000
Ge   c O2   s Buckingham    0.150E+04 0.326      16.8      0.00     0.000 16.000
Ge   c O3   s Buckingham    0.150E+04 0.326      16.8      0.00     0.000 16.000
O1   s O1   s Buckingham    0.228E+05 0.149      10.9      0.00     0.000 16.000
O1   s O2   s Buckingham    0.228E+05 0.149      10.9      0.00     0.000 16.000
O1   s O3   s Buckingham    0.228E+05 0.149      10.9      0.00     0.000 16.000
O2   s O2   s Buckingham    0.228E+05 0.149      10.9      0.00     0.000 16.000
O2   s O3   s Buckingham    0.228E+05 0.149      10.9      0.00     0.000 16.000
O3   s O3   s Buckingham    0.228E+05 0.149      10.9      0.00     0.000 16.000
Si   c F    s Buckingham     977.     0.282      0.00      0.00     0.000 16.000
Ge   c F    s Buckingham     681.     0.320      0.00      0.00     0.000 16.000
F    s F    s Buckingham     540.     0.262      0.00      0.00     0.000 16.000
O1   s F    s Buckingham    0.168E+04 0.268      0.00      0.00     0.000 16.000
O2   s F    s Buckingham    0.168E+04 0.268      0.00      0.00     0.000 16.000
O3   s F    s Buckingham    0.168E+04 0.268      0.00      0.00     0.000 16.000
O2   c O2   s Spring (c-s)   76.0      0.00      0.00      0.00     0.000  0.800
O3   c O3   s Spring (c-s)   128.      0.00      0.00      0.00     0.000  0.800
O1   c O1   s Spring (c-s)   180.      0.00      0.00      0.00     0.000  0.800
F    c F    s Spring (c-s)   33.5      0.00      0.00      0.00     0.000  0.800
--------------------------------------------------------------------------------

  General Three-body potentials :

  Harmonic form:

--------------------------------------------------------------------------------
Atom    Atom    Atom           Force Constants            Theta     Cutoffs  
  1       2       3     (eVrad**-2/eVrad**-3/eVrad**-4)   (deg)  1-2  1-3  2-3
--------------------------------------------------------------------------------
Si    c O1    s O1    s  1.261        0.0000    0.0000   109.470 0.00 0.00 0.00
                                                                 1.90 1.90 3.50
Si    c O1    s O2    s  1.261        0.0000    0.0000   109.470 0.00 0.00 0.00
                                                                 1.90 1.90 3.50
Si    c O2    s O2    s  1.261        0.0000    0.0000   109.470 0.00 0.00 0.00
                                                                 1.90 1.90 3.50
--------------------------------------------------------------------------------

********************************************************************************
*  Output for configuration   1                                                *
********************************************************************************


  Components of energy : 

--------------------------------------------------------------------------------
  Interatomic potentials     =        2063.44365446 eV
  Three-body potentials      =           0.46750083 eV
  Monopole - monopole (real) =       -6612.92356703 eV
  Monopole - monopole (recip)=       -3171.15087547 eV
  Monopole - monopole (total)=       -9784.07444250 eV
  Neutralising energy        =          -6.45962523 eV
--------------------------------------------------------------------------------
  Total lattice energy       =       -7726.62291244 eV
--------------------------------------------------------------------------------
  Total lattice energy       =         -745500.9988 kJ/(mole unit cells)
--------------------------------------------------------------------------------


  Number of variables =      939

  Maximum number of calculations  =          1000
  Maximum Hessian update interval =            10
  Maximum step size               =   1.000000000
  Maximum parameter tolerance     =   0.000010000
  Maximum function  tolerance     =   0.000010000
  Maximum gradient  tolerance     =   0.001000000
  Maximum gradient  component     =   0.010000000

  Symmetry not applied to optimisation

  Cell parameters to be optimised using strains

  Newton-Raphson optimiser to be used

  BFGS hessian update to be used

  Dumpfile to be written after every cycle

  Start of bulk optimisation :

  Cycle:      0 Energy:     -7726.622912  Gnorm:      0.011768  CPU:    1.059
  ** Hessian calculated **
  Cycle:      1 Energy:     -7726.623204  Gnorm:      0.002754  CPU:    2.642
  Cycle:      2 Energy:     -7726.623306  Gnorm:      0.003699  CPU:    4.031
  Cycle:      3 Energy:     -7726.623731  Gnorm:      0.009478  CPU:    6.086
  Cycle:      4 Energy:     -7726.624917  Gnorm:      0.008472  CPU:    8.142
  Cycle:      5 Energy:     -7726.626779  Gnorm:      0.007211  CPU:   10.197
  Cycle:      6 Energy:     -7726.629204  Gnorm:      0.007523  CPU:   12.252
  Cycle:      7 Energy:     -7726.632020  Gnorm:      0.009402  CPU:   14.308
  Cycle:      8 Energy:     -7726.634608  Gnorm:      0.010269  CPU:   16.030
  Cycle:      9 Energy:     -7726.637016  Gnorm:      0.013670  CPU:   17.752
  Cycle:     10 Energy:     -7726.639489  Gnorm:      0.012593  CPU:   19.141
  ** Hessian calculated **
  Cycle:     11 Energy:     -7726.640609  Gnorm:      0.008145  CPU:   21.381
  Cycle:     12 Energy:     -7726.642283  Gnorm:      0.012715  CPU:   23.103
  Cycle:     13 Energy:     -7726.644125  Gnorm:      0.012046  CPU:   24.651
  Cycle:     14 Energy:     -7726.645425  Gnorm:      0.009094  CPU:   26.039
  Cycle:     15 Energy:     -7726.646157  Gnorm:      0.006513  CPU:   27.428
  Cycle:     16 Energy:     -7726.646730  Gnorm:      0.007903  CPU:   28.816
  Cycle:     17 Energy:     -7726.647491  Gnorm:      0.008421  CPU:   30.205
  Cycle:     18 Energy:     -7726.648288  Gnorm:      0.007716  CPU:   31.594
  Cycle:     19 Energy:     -7726.648981  Gnorm:      0.008033  CPU:   32.983
  Cycle:     20 Energy:     -7726.649487  Gnorm:      0.005781  CPU:   34.372
  ** Hessian calculated **
  Cycle:     21 Energy:     -7726.652316  Gnorm:      0.005685  CPU:   37.944
  Cycle:     22 Energy:     -7726.656719  Gnorm:      0.005531  CPU:   40.333
  Cycle:     23 Energy:     -7726.662142  Gnorm:      0.005335  CPU:   42.389
  Cycle:     24 Energy:     -7726.670977  Gnorm:      0.004999  CPU:   44.778
  Cycle:     25 Energy:     -7726.681572  Gnorm:      0.004563  CPU:   46.833
  Cycle:     26 Energy:     -7726.697578  Gnorm:      0.003811  CPU:   49.222
  Cycle:     27 Energy:     -7726.713963  Gnorm:      0.002854  CPU:   51.278
  Cycle:     28 Energy:     -7726.728565  Gnorm:      0.001621  CPU:   53.334
  Cycle:     29 Energy:     -7726.732805  Gnorm:      0.000625  CPU:   54.724
  Cycle:     30 Energy:     -7726.732842  Gnorm:      0.000035  CPU:   56.114
  ** Hessian calculated **


  **** Optimisation achieved ****


  Final energy =   -7726.73284175 eV
  Final Gnorm  =       0.00002589

  Components of energy : 

--------------------------------------------------------------------------------
  Interatomic potentials     =        2064.01095859 eV
  Three-body potentials      =           0.48050061 eV
  Monopole - monopole (real) =       -6613.60050920 eV
  Monopole - monopole (recip)=       -3171.16413515 eV
  Monopole - monopole (total)=       -9784.76464435 eV
  Neutralising energy        =          -6.45965660 eV
--------------------------------------------------------------------------------
  Total lattice energy       =       -7726.73284175 eV
--------------------------------------------------------------------------------
  Total lattice energy       =         -745511.6053 kJ/(mole unit cells)
--------------------------------------------------------------------------------

  Final fractional coordinates of atoms :

--------------------------------------------------------------------------------
   No.  Atomic        x           y          z          Radius
        Label       (Frac)      (Frac)     (Frac)       (Angs) 
--------------------------------------------------------------------------------
     1  Ge    c     0.699600    0.375700    0.033890    0.000000
     2  Si    c     0.600491    0.302634    0.364880    0.000000
     3  Si    c     0.667844    0.295904    0.695668    0.000000
     4  Si    c     0.282513    0.605351    0.528107    0.000000
     5  Si    c     0.359579    0.661928    0.861133    0.000000
     6  Si    c     0.303216    0.690291    0.195602    0.000000
     7  Si    c     0.356168    0.679412    0.296394    0.000000
     8  Si    c     0.305344    0.609519    0.961627    0.000000
     9  Si    c     0.291501    0.654528    0.629368    0.000000
    10  Si    c     0.601383    0.285529    0.797797    0.000000
    11  Si    c     0.659007    0.364257    0.465091    0.000000
    12  Si    c     0.670937    0.305349    0.132292    0.000000
    13  Si    c     0.518187    0.407936    0.966393    0.000000
    14  Si    c     0.563213    0.090557    0.301594    0.000000
    15  Si    c     0.886236    0.462592    0.633460    0.000000
    16  Si    c     0.448749    0.564364    0.462162    0.000000
    17  Si    c     0.393630    0.869281    0.794761    0.000000
    18  Si    c     0.092796    0.518514    0.128773    0.000000
    19  Si    c     0.393938    0.504591    0.360571    0.000000
    20  Si    c     0.092306    0.572137    0.025333    0.000000
    21  Si    c     0.454196    0.867860    0.691842    0.000000
    22  Si    c     0.564951    0.457250    0.863404    0.000000
    23  Si    c     0.871631    0.408854    0.531772    0.000000
    24  Si    c     0.510186    0.096894    0.199765    0.000000
    25  Si    c     0.283340    0.385977    0.847699    0.000000
    26  Si    c     0.581794    0.891089    0.182720    0.000000
    27  Si    c     0.082908    0.687353    0.517442    0.000000
    28  Si    c     0.675018    0.577313    0.346808    0.000000
    29  Ge    c     0.398101    0.084164    0.686890    0.000000
    30  Si    c     0.879957    0.285633    0.010208    0.000000
    31  Si    c     0.379848    0.286321    0.479626    0.000000
    32  Si    c     0.877901    0.589245    0.142441    0.000000
    33  Si    c     0.679315    0.082040    0.811975    0.000000
    34  Si    c     0.584702    0.687993    0.977762    0.000000
    35  Si    c     0.089229    0.379797    0.644486    0.000000
    36  Si    c     0.281333    0.880565    0.313029    0.000000
    37  Si    c     0.237236    0.331172    0.948489    0.000000
    38  Si    c     0.638505    0.889694    0.283791    0.000000
    39  Si    c     0.089371    0.739448    0.618934    0.000000
    40  Si    c     0.727795    0.641273    0.447380    0.000000
    41  Si    c     0.313067    0.072181    0.782299    0.000000
    42  Si    c     0.888008    0.237982    0.113724    0.000000
    43  Si    c     0.318002    0.228749    0.378725    0.000000
    44  Si    c     0.891552    0.656467    0.039821    0.000000
    45  Si    c     0.735121    0.078159    0.710305    0.000000
    46  Si    c     0.640650    0.734328    0.876857    0.000000
    47  Si    c     0.071702    0.327548    0.543013    0.000000
    48  Si    c     0.230473    0.895747    0.212218    0.000000
    49  Si    c     0.959384    0.111983    0.963098    0.000000
    50  Si    c     0.855547    0.824814    0.297154    0.000000
    51  Si    c     0.143890    0.015626    0.634778    0.000000
    52  Si    c     0.007420    0.859608    0.463929    0.000000
    53  Si    c     0.101859    0.136462    0.798917    0.000000
    54  Si    c     0.828895    0.960983    0.131101    0.000000
    55  Si    c     0.101792    0.947956    0.362802    0.000000
    56  Si    c     0.833652    0.874050    0.029505    0.000000
    57  Si    c     0.014845    0.132614    0.696333    0.000000
    58  Si    c     0.858543    0.011902    0.863210    0.000000
    59  Ge    c     0.129745    0.104361    0.531330    0.000000
    60  Si    c     0.949873    0.835618    0.195670    0.000000
    61  O2    c     0.914731    0.998667    0.999200    0.000000
    62  O2    c     0.980470    0.904769    0.328898    0.000000
    63  O2    c     0.051218    0.046600    0.665825    0.000000
    64  O3    c     0.041585    0.980598    0.493887    0.000000
    65  O2    c     0.978540    0.058062    0.830385    0.000000
    66  O2    c     0.911040    0.920655    0.164020    0.000000
    67  O2    c     0.317019    0.553467    0.327244    0.000000
    68  O2    c     0.416775    0.739271    0.662349    0.000000
    69  O2    c     0.218668    0.646457    0.993881    0.000000
    70  O2    c     0.639734    0.405635    0.831410    0.000000
    71  O2    c     0.562041    0.226525    0.170034    0.000000
    72  O2    c     0.744275    0.330489    0.499684    0.000000
    73  O3    c     0.562385    0.332854    0.998620    0.000000
    74  O2    c     0.767829    0.422649    0.668121    0.000000
    75  O2    c     0.639044    0.214829    0.334270    0.000000
    76  O2    c     0.401428    0.642861    0.493670    0.000000
    77  O2    c     0.218383    0.569335    0.161595    0.000000
    78  O2    c     0.320619    0.745300    0.827402    0.000000
    79  O2    c     0.113554    0.202630    0.968452    0.000000
    80  O2    c     0.764495    0.887306    0.303834    0.000000
    81  O2    c     0.092977    0.862724    0.641498    0.000000
    82  O2    c     0.853062    0.766602    0.467661    0.000000
    83  O2    c     0.193364    0.074653    0.807402    0.000000
    84  O2    c     0.891032    0.114876    0.135002    0.000000
    85  O2    c     0.192369    0.101686    0.358226    0.000000
    86  O2    c     0.907050    0.793154    0.024411    0.000000
    87  O2    c     0.860770    0.078566    0.690606    0.000000
    88  O2    c     0.767927    0.859095    0.856840    0.000000
    89  O3    c     0.065067    0.202770    0.521764    0.000000
    90  O2    c     0.104581    0.898648    0.192054    0.000000
    91  O2    c     0.904684    0.839690    0.246022    0.000000
    92  O3    c     0.108478    0.039336    0.583845    0.000000
    93  O2    c     0.914769    0.048904    0.913807    0.000000
    94  O2    c     0.048383    0.120249    0.748118    0.000000
    95  O2    c     0.839016    0.919959    0.080722    0.000000
    96  O2    c     0.048178    0.906489    0.412726    0.000000
    97  O2    c     0.892045    0.196320    0.972175    0.000000
    98  O2    c     0.773463    0.673291    0.308338    0.000000
    99  O3    c     0.292262    0.093729    0.644694    0.000000
   100  O2    c     0.082034    0.784317    0.479145    0.000000
   101  O2    c     0.183350    0.288193    0.809614    0.000000
   102  O2    c     0.678101    0.892093    0.144054    0.000000
   103  O2    c     0.184296    0.878780    0.351340    0.000000
   104  O2    c     0.682739    0.788872    0.015780    0.000000
   105  O2    c     0.090781    0.282523    0.682605    0.000000
   106  O2    c     0.773181    0.079503    0.851730    0.000000
   107  O3    c     0.292494    0.193295    0.519309    0.000000
   108  O2    c     0.881396    0.686780    0.180852    0.000000
   109  O2    c     0.301407    0.627641    0.245038    0.000000
   110  O2    c     0.346000    0.658549    0.578441    0.000000
   111  O2    c     0.300807    0.663732    0.910904    0.000000
   112  O2    c     0.658217    0.340071    0.747700    0.000000
   113  O3    c     0.606205    0.298689    0.084273    0.000000
   114  O2    c     0.661253    0.306677    0.415205    0.000000
   115  O2    c     0.360217    0.322843    0.966630    0.000000
   116  O2    c     0.650120    0.020911    0.303337    0.000000
   117  O2    c     0.956760    0.617128    0.636441    0.000000
   118  O2    c     0.605266    0.652139    0.464529    0.000000
   119  O2    c     0.307719    0.939043    0.797894    0.000000
   120  O2    c     0.020393    0.363430    0.130834    0.000000
   121  O2    c     0.306791    0.348838    0.358277    0.000000
   122  O2    c     0.024127    0.659593    0.024307    0.000000
   123  O2    c     0.612209    0.945846    0.692928    0.000000
   124  O2    c     0.650074    0.612590    0.858473    0.000000
   125  O2    c     0.938483    0.321226    0.526942    0.000000
   126  O2    c     0.353476    0.028017    0.194739    0.000000
   127  O3    c     0.746739    0.279562    0.001553    0.000000
   128  O2    c     0.673708    0.442792    0.340386    0.000000
   129  O3    c     0.531378    0.235382    0.670670    0.000000
   130  O2    c     0.213672    0.682523    0.507680    0.000000
   131  O2    c     0.285209    0.519822    0.838212    0.000000
   132  O2    c     0.446093    0.759679    0.173156    0.000000
   133  O2    c     0.280305    0.746057    0.318745    0.000000
   134  O2    c     0.449688    0.688236    0.984128    0.000000
   135  O2    c     0.225814    0.511776    0.651389    0.000000
   136  O2    c     0.674937    0.212787    0.818176    0.000000
   137  O2    c     0.515790    0.288773    0.486325    0.000000
   138  O2    c     0.746912    0.454536    0.150613    0.000000
   139  O3    c     0.766567    0.542879    0.017630    0.000000
   140  O2    c     0.443523    0.225965    0.360262    0.000000
   141  O2    c     0.730745    0.202459    0.692783    0.000000
   142  O2    c     0.198443    0.450770    0.522821    0.000000
   143  O2    c     0.516500    0.739288    0.856692    0.000000
   144  O2    c     0.225948    0.769395    0.191347    0.000000
   145  O2    c     0.512404    0.763091    0.302094    0.000000
   146  O2    c     0.232716    0.454645    0.967787    0.000000
   147  O2    c     0.212798    0.730439    0.636722    0.000000
   148  O2    c     0.446188    0.196584    0.800451    0.000000
   149  O2    c     0.730763    0.519032    0.468337    0.000000
   150  O2    c     0.764910    0.242227    0.132858    0.000000
   151  O2    c     0.212779    0.313853    0.894141    0.000000
   152  O2    c     0.655691    0.891085    0.229284    0.000000
   153  O2    c     0.088502    0.759829    0.564334    0.000000
   154  O2    c     0.746134    0.654883    0.392857    0.000000
   155  O3    c     0.287543    0.076148    0.729591    0.000000
   156  O2    c     0.886412    0.223711    0.059260    0.000000
   157  O2    c     0.300589    0.213403    0.433326    0.000000
   158  O2    c     0.880139    0.657947    0.095154    0.000000
   159  O2    c     0.746769    0.080382    0.765178    0.000000
   160  O2    c     0.659666    0.755172    0.931246    0.000000
   161  O2    c     0.080599    0.306449    0.597417    0.000000
   162  O2    c     0.211787    0.890226    0.266581    0.000000
   163  O2    c     0.568101    0.549834    0.988054    0.000000
   164  O2    c     0.421870    0.002723    0.323503    0.000000
   165  O2    c     0.966757    0.398092    0.654655    0.000000
   166  O2    c     0.394083    0.425840    0.486358    0.000000
   167  O2    c     0.536646    0.960807    0.816096    0.000000
   168  O2    c     0.001356    0.569695    0.148305    0.000000
   169  O2    c     0.534444    0.561850    0.336981    0.000000
   170  O2    c     0.000871    0.431124    0.004279    0.000000
   171  O3    c     0.396081    0.944897    0.666092    0.000000
   172  O2    c     0.422303    0.397220    0.840018    0.000000
   173  O2    c     0.953325    0.550676    0.509610    0.000000
   174  O2    c     0.570252    0.018013    0.175190    0.000000
   175  O2    c     0.561707    0.145388    0.251121    0.000000
   176  O2    c     0.823336    0.408330    0.583267    0.000000
   177  O2    c     0.569867    0.411555    0.914754    0.000000
   178  O2    c     0.398077    0.822924    0.743527    0.000000
   179  O2    c     0.137903    0.566167    0.077284    0.000000
   180  O2    c     0.393563    0.560043    0.410826    0.000000
   181  F     c     0.429968    0.885021    0.246332    0.000000
   182  F     c     0.086859    0.532310    0.580682    0.000000
   183  F     c     0.431906    0.540704    0.911228    0.000000
   184  F     c     0.502000    0.081416    0.735470    0.000000
   185  F     c     0.846300    0.429690    0.069877    0.000000
   186  F     c     0.526199    0.431545    0.411688    0.000000
   187  O2    s     0.910517    0.997319    0.998550    0.000000
   188  O2    s     0.979864    0.900555    0.329079    0.000000
   189  O2    s     0.056581    0.053205    0.666130    0.000000
   190  O3    s     0.045282    0.977718    0.493756    0.000000
   191  O2    s     0.978581    0.061591    0.830630    0.000000
   192  O2    s     0.906243    0.915754    0.163870    0.000000
   193  O2    s     0.328803    0.561569    0.327393    0.000000
   194  O2    s     0.408056    0.743631    0.662003    0.000000
   195  O2    s     0.214059    0.634944    0.993952    0.000000
   196  O2    s     0.628193    0.398291    0.831116    0.000000
   197  O2    s     0.567973    0.221184    0.169198    0.000000
   198  O2    s     0.748510    0.342175    0.499366    0.000000
   199  O3    s     0.567223    0.344172    0.997574    0.000000
   200  O2    s     0.769459    0.413295    0.667477    0.000000
   201  O2    s     0.627226    0.210727    0.333960    0.000000
   202  O2    s     0.394166    0.630938    0.493944    0.000000
   203  O2    s     0.213505    0.576056    0.161517    0.000000
   204  O2    s     0.332229    0.749836    0.827410    0.000000
   205  O2    s     0.109432    0.205894    0.965863    0.000000
   206  O2    s     0.760977    0.880935    0.301060    0.000000
   207  O2    s     0.097612    0.864588    0.638448    0.000000
   208  O2    s     0.856059    0.763047    0.465104    0.000000
   209  O2    s     0.195768    0.080910    0.804044    0.000000
   210  O2    s     0.884226    0.111547    0.132410    0.000000
   211  O2    s     0.195678    0.098474    0.360785    0.000000
   212  O2    s     0.897640    0.787725    0.026526    0.000000
   213  O2    s     0.863390    0.084170    0.693280    0.000000
   214  O2    s     0.764612    0.862716    0.859544    0.000000
   215  O3    s     0.070946    0.207409    0.524666    0.000000
   216  O2    s     0.101047    0.891608    0.194499    0.000000
   217  O2    s     0.904344    0.837562    0.246006    0.000000
   218  O3    s     0.113883    0.042949    0.584032    0.000000
   219  O2    s     0.913431    0.051833    0.913629    0.000000
   220  O2    s     0.050712    0.123529    0.748082    0.000000
   221  O2    s     0.837252    0.919532    0.080758    0.000000
   222  O2    s     0.049889    0.906092    0.412601    0.000000
   223  O2    s     0.898175    0.196592    0.975215    0.000000
   224  O2    s     0.772249    0.679624    0.311009    0.000000
   225  O3    s     0.282564    0.084424    0.646282    0.000000
   226  O2    s     0.074243    0.782272    0.481510    0.000000
   227  O2    s     0.184978    0.282137    0.812395    0.000000
   228  O2    s     0.684351    0.899358    0.146636    0.000000
   229  O2    s     0.185685    0.886251    0.348558    0.000000
   230  O2    s     0.688947    0.787763    0.013393    0.000000
   231  O2    s     0.082606    0.276711    0.680125    0.000000
   232  O2    s     0.772165    0.072770    0.848754    0.000000
   233  O3    s     0.288042    0.195351    0.516347    0.000000
   234  O2    s     0.888328    0.692436    0.178407    0.000000
   235  O2    s     0.307135    0.639331    0.245143    0.000000
   236  O2    s     0.334032    0.652740    0.578516    0.000000
   237  O2    s     0.307155    0.658068    0.911031    0.000000
   238  O2    s     0.653202    0.330103    0.747884    0.000000
   239  O3    s     0.619001    0.304327    0.086092    0.000000
   240  O2    s     0.654791    0.312131    0.415093    0.000000
   241  O2    s     0.362335    0.332267    0.964578    0.000000
   242  O2    s     0.640016    0.014404    0.301117    0.000000
   243  O2    s     0.963234    0.613564    0.634257    0.000000
   244  O2    s     0.601891    0.641886    0.462462    0.000000
   245  O2    s     0.317192    0.945117    0.795992    0.000000
   246  O2    s     0.014231    0.366595    0.128845    0.000000
   247  O2    s     0.316857    0.352442    0.360617    0.000000
   248  O2    s     0.018028    0.650178    0.025971    0.000000
   249  O2    s     0.609510    0.952199    0.694697    0.000000
   250  O2    s     0.640388    0.609465    0.860902    0.000000
   251  O2    s     0.945586    0.331201    0.529180    0.000000
   252  O2    s     0.356642    0.021205    0.197088    0.000000
   253  O3    s     0.758049    0.286556    0.004683    0.000000
   254  O2    s     0.666409    0.442567    0.343561    0.000000
   255  O3    s     0.536381    0.231227    0.674432    0.000000
   256  O2    s     0.207068    0.675063    0.510849    0.000000
   257  O2    s     0.292682    0.520455    0.841597    0.000000
   258  O2    s     0.445513    0.766231    0.176494    0.000000
   259  O2    s     0.288188    0.753317    0.315815    0.000000
   260  O2    s     0.448758    0.680155    0.981134    0.000000
   261  O2    s     0.218282    0.512654    0.648356    0.000000
   262  O2    s     0.667895    0.206243    0.815418    0.000000
   263  O2    s     0.516619    0.296534    0.483308    0.000000
   264  O2    s     0.753564    0.454524    0.147945    0.000000
   265  O3    s     0.776080    0.544651    0.021027    0.000000
   266  O2    s     0.446398    0.234303    0.362684    0.000000
   267  O2    s     0.724837    0.197904    0.694988    0.000000
   268  O2    s     0.193708    0.453941    0.525511    0.000000
   269  O2    s     0.513681    0.730754    0.859288    0.000000
   270  O2    s     0.234482    0.774669    0.193976    0.000000
   271  O2    s     0.509724    0.768173    0.299536    0.000000
   272  O2    s     0.240736    0.457624    0.965149    0.000000
   273  O2    s     0.207498    0.723315    0.634057    0.000000
   274  O2    s     0.449275    0.193324    0.798306    0.000000
   275  O2    s     0.722692    0.515977    0.465701    0.000000
   276  O2    s     0.769226    0.248127    0.130690    0.000000
   277  O2    s     0.222750    0.323279    0.895007    0.000000
   278  O2    s     0.646064    0.890939    0.230116    0.000000
   279  O2    s     0.088039    0.750174    0.565063    0.000000
   280  O2    s     0.736683    0.645265    0.393741    0.000000
   281  O3    s     0.297458    0.076205    0.732343    0.000000
   282  O2    s     0.885946    0.231340    0.060276    0.000000
   283  O2    s     0.310290    0.222304    0.432264    0.000000
   284  O2    s     0.880973    0.650253    0.094794    0.000000
   285  O2    s     0.738343    0.080324    0.764438    0.000000
   286  O2    s     0.649817    0.745950    0.930325    0.000000
   287  O2    s     0.080653    0.316201    0.596802    0.000000
   288  O2    s     0.221041    0.889816    0.265607    0.000000
   289  O2    s     0.564655    0.550916    0.984711    0.000000
   290  O2    s     0.421612    0.998610    0.320045    0.000000
   291  O2    s     0.971589    0.402969    0.651352    0.000000
   292  O2    s     0.398454    0.425490    0.483089    0.000000
   293  O2    s     0.537427    0.964751    0.813386    0.000000
   294  O2    s     0.997791    0.566189    0.145570    0.000000
   295  O2    s     0.534955    0.557406    0.340469    0.000000
   296  O2    s     0.998270    0.431565    0.007167    0.000000
   297  O3    s     0.402392    0.947188    0.670209    0.000000
   298  O2    s     0.422294    0.402413    0.843269    0.000000
   299  O2    s     0.958856    0.550528    0.512784    0.000000
   300  O2    s     0.565126    0.012455    0.178532    0.000000
   301  O2    s     0.556374    0.134478    0.250954    0.000000
   302  O2    s     0.834738    0.413909    0.583085    0.000000
   303  O2    s     0.564254    0.416148    0.914342    0.000000
   304  O2    s     0.403046    0.832212    0.743888    0.000000
   305  O2    s     0.128481    0.561748    0.077401    0.000000
   306  O2    s     0.399284    0.554728    0.410901    0.000000
   307  F     s     0.429635    0.884557    0.246131    0.000000
   308  F     s     0.087306    0.532276    0.580679    0.000000
   309  F     s     0.431347    0.541393    0.911037    0.000000
   310  F     s     0.495057    0.081714    0.732319    0.000000
   311  F     s     0.835259    0.425737    0.067235    0.000000
   312  F     s     0.526370    0.431337    0.411537    0.000000
--------------------------------------------------------------------------------

  Final Cartesian lattice vectors (Angstroms) :

       11.935429    0.004348   -0.014177
       -6.019992   10.423166    0.020520
       -0.407429   -0.083233   29.393687


  Final cell parameters and derivatives :

--------------------------------------------------------------------------------
       a           11.935438 Angstrom     dE/de1(xx)    -0.000238 eV/strain
       b           12.036740 Angstrom     dE/de2(yy)    -0.000414 eV/strain
       c           29.396629 Angstrom     dE/de3(zz)    -0.000731 eV/strain
       alpha       89.645649 Degrees      dE/de4(yz)    -0.000163 eV/strain
       beta        90.862243 Degrees      dE/de5(xz)     0.000376 eV/strain
       gamma      119.988151 Degrees      dE/de6(xy)     0.000155 eV/strain
--------------------------------------------------------------------------------

  Primitive cell volume =          3657.442783 Angs**3

  Density of cell =      1.749335 g/cm**3

  Non-primitive cell volume =          3657.442783 Angs**3


  Final internal derivatives :

--------------------------------------------------------------------------------
   No.  Atomic          a             b             c           Radius
        Label          (eV)          (eV)          (eV)        (eV/Angs)
--------------------------------------------------------------------------------
      1 Ge    c       0.000000      0.000000      0.000000      0.000000
      2 Si    c       0.000094     -0.000142     -0.000069      0.000000
      3 Si    c      -0.000251     -0.000075      0.000551      0.000000
      4 Si    c      -0.000025     -0.000118      0.000221      0.000000
      5 Si    c      -0.000102     -0.000044     -0.000061      0.000000
      6 Si    c      -0.000036      0.000044      0.000081      0.000000
      7 Si    c       0.000040     -0.000136      0.000034      0.000000
      8 Si    c       0.000310     -0.000101     -0.000949      0.000000
      9 Si    c       0.000142      0.000009      0.000390      0.000000
     10 Si    c       0.000010     -0.000539     -0.000054      0.000000
     11 Si    c       0.000292     -0.000167      0.000558      0.000000
     12 Si    c       0.001317      0.003124     -0.000088      0.000000
     13 Si    c       0.001620      0.001251      0.001449      0.000000
     14 Si    c      -0.000366      0.000298      0.000148      0.000000
     15 Si    c      -0.000101      0.000145     -0.000039      0.000000
     16 Si    c      -0.000201      0.000103      0.000005      0.000000
     17 Si    c      -0.000358      0.000364     -0.000504      0.000000
     18 Si    c      -0.000123      0.000886      0.000574      0.000000
     19 Si    c      -0.000196      0.000218     -0.000584      0.000000
     20 Si    c      -0.000060      0.000385      0.001236      0.000000
     21 Si    c      -0.000236      0.000413      0.000116      0.000000
     22 Si    c      -0.000197      0.000212      0.000527      0.000000
     23 Si    c      -0.000275      0.000042     -0.000363      0.000000
     24 Si    c      -0.000410      0.000663     -0.000136      0.000000
     25 Si    c      -0.000046      0.000001      0.000492      0.000000
     26 Si    c       0.000092     -0.000157      0.000583      0.000000
     27 Si    c      -0.000269      0.000495     -0.000754      0.000000
     28 Si    c       0.000119     -0.000044     -0.000017      0.000000
     29 Ge    c       0.000419     -0.000166      0.000602      0.000000
     30 Si    c       0.002122      0.000115      0.001157      0.000000
     31 Si    c      -0.000080     -0.000024      0.000150      0.000000
     32 Si    c      -0.000591      0.000401     -0.001880      0.000000
     33 Si    c      -0.000317      0.000337     -0.000038      0.000000
     34 Si    c       0.000778     -0.000345      0.000426      0.000000
     35 Si    c      -0.000137     -0.000057      0.000024      0.000000
     36 Si    c      -0.000191      0.000107      0.000072      0.000000
     37 Si    c       0.000588     -0.000063     -0.000258      0.000000
     38 Si    c       0.000068     -0.000106     -0.000148      0.000000
     39 Si    c      -0.000168      0.000221      0.000009      0.000000
     40 Si    c       0.000346     -0.000284     -0.000143      0.000000
     41 Si    c       0.000337     -0.000413     -0.000948      0.000000
     42 Si    c       0.000896     -0.001239      0.000748      0.000000
     43 Si    c      -0.000035     -0.000047     -0.000079      0.000000
     44 Si    c      -0.001257      0.000985      0.001928      0.000000
     45 Si    c      -0.000433      0.000241      0.000075      0.000000
     46 Si    c       0.000246     -0.000233      0.000722      0.000000
     47 Si    c       0.000031      0.000089      0.000483      0.000000
     48 Si    c      -0.000330      0.000212      0.000193      0.000000
     49 Si    c      -0.000207      0.000121     -0.000335      0.000000
     50 Si    c       0.000208     -0.000013     -0.000203      0.000000
     51 Si    c       0.000159     -0.000163     -0.000789      0.000000
     52 Si    c       0.000067     -0.000184      0.000234      0.000000
     53 Si    c       0.000053     -0.000070     -0.000058      0.000000
     54 Si    c       0.000177     -0.000022      0.000953      0.000000
     55 Si    c       0.000078     -0.000199      0.000132      0.000000
     56 Si    c       0.000675     -0.001183      0.002516      0.000000
     57 Si    c       0.000002      0.000141      0.000126      0.000000
     58 Si    c       0.000512     -0.000262      0.000506      0.000000
     59 Ge    c      -0.000094     -0.000284     -0.000150      0.000000
     60 Si    c      -0.000041      0.000359     -0.000267      0.000000
     61 O2    c       0.000755      0.000110     -0.001935      0.000000
     62 O2    c       0.000100     -0.000090     -0.000143      0.000000
     63 O2    c      -0.000270      0.000208      0.000210      0.000000
     64 O3    c       0.000761      0.000076      0.000406      0.000000
     65 O2    c       0.000027     -0.000199      0.000039      0.000000
     66 O2    c      -0.000229      0.000079     -0.000012      0.000000
     67 O2    c       0.000128     -0.000046     -0.000037      0.000000
     68 O2    c      -0.000111     -0.000105     -0.000312      0.000000
     69 O2    c       0.000790     -0.000125     -0.001796      0.000000
     70 O2    c       0.000189     -0.000193      0.000225      0.000000
     71 O2    c      -0.000548      0.000196     -0.000858      0.000000
     72 O2    c      -0.000137      0.000327     -0.000021      0.000000
     73 O3    c      -0.000301     -0.002121      0.001189      0.000000
     74 O2    c      -0.000142      0.000068      0.000414      0.000000
     75 O2    c      -0.000274      0.000140      0.000301      0.000000
     76 O2    c       0.000348     -0.000259     -0.000208      0.000000
     77 O2    c      -0.000063      0.000352      0.000503      0.000000
     78 O2    c       0.000010     -0.000097     -0.000107      0.000000
     79 O2    c       0.000426      0.000150      0.000248      0.000000
     80 O2    c      -0.000291      0.000024     -0.000436      0.000000
     81 O2    c      -0.000033      0.000042     -0.000497      0.000000
     82 O2    c       0.000292     -0.000349     -0.000253      0.000000
     83 O2    c       0.000010     -0.000081      0.000090      0.000000
     84 O2    c       0.000215     -0.000318     -0.000236      0.000000
     85 O2    c       0.000040     -0.000121      0.000114      0.000000
     86 O2    c      -0.001483     -0.000176      0.000581      0.000000
     87 O2    c      -0.000050     -0.000062     -0.000095      0.000000
     88 O2    c       0.000099     -0.000048      0.000194      0.000000
     89 O3    c       0.000117     -0.000038      0.000587      0.000000
     90 O2    c      -0.000066     -0.000119      0.000513      0.000000
     91 O2    c       0.000195     -0.000276     -0.000176      0.000000
     92 O3    c       0.001201     -0.000611      0.000389      0.000000
     93 O2    c       0.000403     -0.000497     -0.001929      0.000000
     94 O2    c       0.000027     -0.000015     -0.000405      0.000000
     95 O2    c       0.000895     -0.000249      0.001668      0.000000
     96 O2    c       0.000160     -0.000263      0.000337      0.000000
     97 O2    c      -0.001218      0.001000      0.000684      0.000000
     98 O2    c       0.000000      0.000054     -0.000253      0.000000
     99 O3    c      -0.000111      0.000053     -0.000692      0.000000
    100 O2    c      -0.000507      0.000337     -0.000229      0.000000
    101 O2    c       0.000031      0.000059      0.000186      0.000000
    102 O2    c       0.000012     -0.000096      0.000051      0.000000
    103 O2    c      -0.000123      0.000108      0.000147      0.000000
    104 O2    c      -0.000345     -0.000208      0.000329      0.000000
    105 O2    c      -0.000038      0.000096     -0.000447      0.000000
    106 O2    c      -0.000282      0.000327     -0.000607      0.000000
    107 O3    c      -0.000318      0.000136      0.000995      0.000000
    108 O2    c       0.000008      0.000071     -0.000161      0.000000
    109 O2    c       0.000052      0.000027      0.000069      0.000000
    110 O2    c      -0.000131     -0.000153     -0.000038      0.000000
    111 O2    c       0.000070     -0.000225     -0.000445      0.000000
    112 O2    c      -0.000008     -0.000049     -0.000130      0.000000
    113 O3    c      -0.000841     -0.001387      0.003467      0.000000
    114 O2    c      -0.000096      0.000059      0.000018      0.000000
    115 O2    c      -0.000102      0.000456     -0.000345      0.000000
    116 O2    c      -0.000062     -0.000153      0.000161      0.000000
    117 O2    c       0.000040     -0.000035      0.000284      0.000000
    118 O2    c      -0.000129      0.000093      0.000265      0.000000
    119 O2    c       0.000157      0.000185     -0.000683      0.000000
    120 O2    c       0.000176     -0.000086     -0.000560      0.000000
    121 O2    c       0.000017      0.000016     -0.000000      0.000000
    122 O2    c       0.001492     -0.001057     -0.000412      0.000000
    123 O2    c      -0.000105      0.000308      0.000122      0.000000
    124 O2    c       0.000108     -0.000060      0.000794      0.000000
    125 O2    c       0.000091      0.000010      0.000227      0.000000
    126 O2    c      -0.000168      0.000050      0.000463      0.000000
    127 O3    c      -0.002168      0.002807     -0.000078      0.000000
    128 O2    c       0.000097     -0.000241      0.000127      0.000000
    129 O3    c       0.000446     -0.000271      0.001811      0.000000
    130 O2    c       0.000042      0.000051      0.000099      0.000000
    131 O2    c      -0.000017     -0.000025      0.000339      0.000000
    132 O2    c       0.000016      0.000034      0.000025      0.000000
    133 O2    c       0.000065      0.000025     -0.000013      0.000000
    134 O2    c      -0.000245      0.000021      0.000055      0.000000
    135 O2    c      -0.000033      0.000004     -0.000504      0.000000
    136 O2    c      -0.000074      0.000018     -0.000309      0.000000
    137 O2    c       0.000142     -0.000195      0.000005      0.000000
    138 O2    c      -0.001282      0.001901     -0.000992      0.000000
    139 O3    c      -0.002238      0.000603      0.003375      0.000000
    140 O2    c       0.000107     -0.000147     -0.000252      0.000000
    141 O2    c       0.000109     -0.000116      0.000781      0.000000
    142 O2    c      -0.000015      0.000298      0.000539      0.000000
    143 O2    c      -0.000142     -0.000145     -0.000280      0.000000
    144 O2    c       0.000392     -0.000365     -0.000266      0.000000
    145 O2    c      -0.000209      0.000057     -0.000069      0.000000
    146 O2    c       0.000351     -0.000606     -0.000749      0.000000
    147 O2    c      -0.000024     -0.000005     -0.000150      0.000000
    148 O2    c       0.000295     -0.000272     -0.000319      0.000000
    149 O2    c       0.000137     -0.000165     -0.000119      0.000000
    150 O2    c       0.001458     -0.002342      0.001785      0.000000
    151 O2    c      -0.000019      0.000043      0.000510      0.000000
    152 O2    c      -0.000133     -0.000023     -0.000397      0.000000
    153 O2    c      -0.000070      0.000016      0.000278      0.000000
    154 O2    c       0.000121     -0.000153     -0.000102      0.000000
    155 O3    c       0.000399     -0.000567      0.001126      0.000000
    156 O2    c       0.000866     -0.001033      0.000015      0.000000
    157 O2    c       0.000027      0.000045     -0.000036      0.000000
    158 O2    c       0.000269      0.000539     -0.000909      0.000000
    159 O2    c      -0.000278      0.000299     -0.000667      0.000000
    160 O2    c       0.000305     -0.000399     -0.000293      0.000000
    161 O2    c       0.000035      0.000228     -0.000092      0.000000
    162 O2    c       0.000074      0.000049     -0.000021      0.000000
    163 O2    c       0.000909     -0.000370     -0.000099      0.000000
    164 O2    c      -0.000308      0.000178      0.000263      0.000000
    165 O2    c       0.000149     -0.000045      0.000217      0.000000
    166 O2    c       0.000033     -0.000096     -0.000222      0.000000
    167 O2    c      -0.000272      0.000366     -0.000544      0.000000
    168 O2    c       0.000098     -0.000160     -0.002586      0.000000
    169 O2    c      -0.000111      0.000052     -0.000172      0.000000
    170 O2    c       0.001222     -0.001505     -0.001750      0.000000
    171 O3    c      -0.000126      0.000103      0.001066      0.000000
    172 O2    c      -0.000226      0.000030      0.000138      0.000000
    173 O2    c      -0.000170      0.000182     -0.000003      0.000000
    174 O2    c      -0.000039     -0.000225      0.000380      0.000000
    175 O2    c      -0.000335      0.000109     -0.000288      0.000000
    176 O2    c      -0.000024      0.000012     -0.000054      0.000000
    177 O2    c      -0.000306      0.000398      0.001141      0.000000
    178 O2    c      -0.000323      0.000468     -0.000103      0.000000
    179 O2    c      -0.000580      0.000754      0.001892      0.000000
    180 O2    c       0.000035     -0.000120     -0.000223      0.000000
    181 F     c       0.000105     -0.000073      0.000013      0.000000
    182 F     c       0.000112     -0.000072      0.000184      0.000000
    183 F     c       0.000120     -0.000149     -0.000000      0.000000
    184 F     c      -0.000139      0.000154     -0.000194      0.000000
    185 F     c       0.000090      0.001352      0.002306      0.000000
    186 F     c       0.000020     -0.000045     -0.000078      0.000000
    187 O2    s       0.001485     -0.001313      0.000711      0.000000
    188 O2    s      -0.000261      0.000105      0.000038      0.000000
    189 O2    s       0.000044     -0.000073      0.000249      0.000000
    190 O3    s       0.000383     -0.000348     -0.000381      0.000000
    191 O2    s      -0.000581      0.000446     -0.000084      0.000000
    192 O2    s       0.000031     -0.000062      0.000307      0.000000
    193 O2    s      -0.000206      0.000028     -0.000437      0.000000
    194 O2    s      -0.000179      0.000162     -0.000305      0.000000
    195 O2    s      -0.000399      0.000330      0.000197      0.000000
    196 O2    s      -0.000396      0.000245     -0.000157      0.000000
    197 O2    s       0.001130     -0.001501      0.001452      0.000000
    198 O2    s       0.000294     -0.000131      0.000463      0.000000
    199 O3    s       0.000070      0.001768      0.000421      0.000000
    200 O2    s       0.000335     -0.000121     -0.000184      0.000000
    201 O2    s       0.000102     -0.000161     -0.000040      0.000000
    202 O2    s      -0.000143      0.000146      0.000034      0.000000
    203 O2    s       0.000332     -0.000665     -0.000272      0.000000
    204 O2    s       0.000003     -0.000196     -0.000180      0.000000
    205 O2    s       0.000187      0.000484     -0.000902      0.000000
    206 O2    s      -0.000043     -0.000081     -0.000116      0.000000
    207 O2    s      -0.000000     -0.000157      0.000738      0.000000
    208 O2    s      -0.000149      0.000245      0.000063      0.000000
    209 O2    s      -0.000136      0.000134     -0.000100      0.000000
    210 O2    s      -0.000640     -0.000066      0.000684      0.000000
    211 O2    s      -0.000226     -0.000019      0.000123      0.000000
    212 O2    s       0.002006     -0.001771     -0.006036      0.000000
    213 O2    s      -0.000087      0.000078      0.000299      0.000000
    214 O2    s      -0.000543      0.000358     -0.000512      0.000000
    215 O3    s      -0.000007     -0.000366     -0.001070      0.000000
    216 O2    s      -0.000154     -0.000161     -0.000083      0.000000
    217 O2    s      -0.000395      0.000210      0.000591      0.000000
    218 O3    s      -0.001268      0.001016     -0.001580      0.000000
    219 O2    s      -0.000630      0.000726     -0.000693      0.000000
    220 O2    s      -0.000046     -0.000046     -0.000076      0.000000
    221 O2    s      -0.000775      0.001474      0.000790      0.000000
    222 O2    s      -0.000214      0.000136     -0.000108      0.000000
    223 O2    s      -0.001837      0.001039      0.000014      0.000000
    224 O2    s      -0.000254      0.000066      0.000387      0.000000
    225 O3    s       0.000015      0.000086      0.001017      0.000000
    226 O2    s      -0.000059      0.000075      0.000105      0.000000
    227 O2    s      -0.000209     -0.000048      0.000062      0.000000
    228 O2    s      -0.000373      0.000342     -0.000128      0.000000
    229 O2    s      -0.000206      0.000015     -0.000065      0.000000
    230 O2    s      -0.002543      0.002090      0.000479      0.000000
    231 O2    s      -0.000005      0.000084     -0.000071      0.000000
    232 O2    s       0.000276     -0.000288      0.000028      0.000000
    233 O3    s       0.000019     -0.000175     -0.001690      0.000000
    234 O2    s      -0.000010     -0.000312      0.000196      0.000000
    235 O2    s      -0.000058      0.000020     -0.000100      0.000000
    236 O2    s      -0.000261      0.000102     -0.000165      0.000000
    237 O2    s      -0.000233      0.000249     -0.000656      0.000000
    238 O2    s       0.000130     -0.000033      0.000287      0.000000
    239 O3    s       0.000546     -0.001153      0.000686      0.000000
    240 O2    s      -0.000161      0.000120      0.000305      0.000000
    241 O2    s       0.000036     -0.000108      0.001363      0.000000
    242 O2    s      -0.000243      0.000034     -0.000336      0.000000
    243 O2    s       0.000338     -0.000233     -0.000110      0.000000
    244 O2    s       0.000364     -0.000456     -0.000598      0.000000
    245 O2    s      -0.000105     -0.000015      0.000088      0.000000
    246 O2    s      -0.000300      0.000467      0.000299      0.000000
    247 O2    s       0.000200     -0.000180      0.000490      0.000000
    248 O2    s      -0.001656      0.001543     -0.004220      0.000000
    249 O2    s       0.000292     -0.000055      0.000023      0.000000
    250 O2    s      -0.000455      0.000126     -0.001130      0.000000
    251 O2    s      -0.000063      0.000005     -0.000321      0.000000
    252 O2    s       0.000226     -0.000510      0.000288      0.000000
    253 O3    s       0.003724     -0.003246      0.001656      0.000000
    254 O2    s      -0.000526      0.000184      0.000616      0.000000
    255 O3    s      -0.000068      0.000054     -0.001040      0.000000
    256 O2    s      -0.000000      0.000026      0.000675      0.000000
    257 O2    s      -0.000018     -0.000088     -0.000596      0.000000
    258 O2    s      -0.000336      0.000112      0.000462      0.000000
    259 O2    s      -0.000035     -0.000010     -0.000827      0.000000
    260 O2    s       0.000184     -0.000030     -0.000308      0.000000
    261 O2    s      -0.000071      0.000194     -0.000401      0.000000
    262 O2    s       0.000008      0.000115      0.000079      0.000000
    263 O2    s      -0.000299      0.000373     -0.000296      0.000000
    264 O2    s       0.002163     -0.000955      0.003154      0.000000
    265 O3    s       0.001502     -0.001075     -0.008047      0.000000
    266 O2    s      -0.000366      0.000404      0.000586      0.000000
    267 O2    s      -0.000062      0.000062     -0.000168      0.000000
    268 O2    s       0.000017      0.000059      0.000258      0.000000
    269 O2    s      -0.000128      0.000071     -0.000687      0.000000
    270 O2    s      -0.000221     -0.000020      0.000556      0.000000
    271 O2    s      -0.000152     -0.000038     -0.000415      0.000000
    272 O2    s      -0.000358      0.000250      0.000306      0.000000
    273 O2    s       0.000180     -0.000131     -0.000432      0.000000
    274 O2    s      -0.000153      0.000606      0.000473      0.000000
    275 O2    s      -0.000400      0.000129     -0.000005      0.000000
    276 O2    s      -0.000994      0.000669      0.002324      0.000000
    277 O2    s      -0.000303      0.000032     -0.000394      0.000000
    278 O2    s      -0.000302      0.000124      0.000305      0.000000
    279 O2    s       0.000405     -0.000418      0.000375      0.000000
    280 O2    s      -0.000240     -0.000024     -0.000347      0.000000
    281 O3    s      -0.000651      0.000751     -0.001176      0.000000
    282 O2    s      -0.001950      0.001642     -0.002821      0.000000
    283 O2    s      -0.000011      0.000096      0.000212      0.000000
    284 O2    s       0.000326     -0.000005      0.007731      0.000000
    285 O2    s       0.000192     -0.000275      0.000337      0.000000
    286 O2    s      -0.000715      0.000415     -0.000197      0.000000
    287 O2    s       0.000154     -0.000013      0.000058      0.000000
    288 O2    s       0.000192     -0.000361      0.000171      0.000000
    289 O2    s      -0.001172      0.000717      0.000517      0.000000
    290 O2    s       0.000295     -0.000618     -0.000714      0.000000
    291 O2    s      -0.000158      0.000182      0.000384      0.000000
    292 O2    s       0.000271     -0.000282     -0.000952      0.000000
    293 O2    s       0.000439     -0.000386     -0.000055      0.000000
    294 O2    s      -0.000647     -0.000302      0.001606      0.000000
    295 O2    s       0.000026     -0.000314      0.000445      0.000000
    296 O2    s      -0.001031     -0.000321      0.000500      0.000000
    297 O3    s       0.000388     -0.000383     -0.001422      0.000000
    298 O2    s       0.000045     -0.000163     -0.000841      0.000000
    299 O2    s       0.000259     -0.000297      0.000392      0.000000
    300 O2    s       0.000008     -0.000231     -0.000198      0.000000
    301 O2    s       0.000368     -0.000515     -0.000042      0.000000
    302 O2    s       0.000009     -0.000067     -0.000104      0.000000
    303 O2    s       0.000893     -0.000243     -0.001324      0.000000
    304 O2    s       0.000264     -0.000258      0.000041      0.000000
    305 O2    s       0.001078     -0.001428     -0.000445      0.000000
    306 O2    s       0.000134     -0.000389     -0.000526      0.000000
    307 F     s      -0.000078      0.000026      0.000140      0.000000
    308 F     s      -0.000122      0.000115      0.000083      0.000000
    309 F     s      -0.000009      0.000204     -0.000115      0.000000
    310 F     s       0.000176     -0.000124     -0.000139      0.000000
    311 F     s       0.003385     -0.002509      0.002639      0.000000
    312 F     s      -0.000106      0.000097     -0.000078      0.000000
--------------------------------------------------------------------------------
  Maximum abs         0.003724      0.003246      0.008047      0.000000
--------------------------------------------------------------------------------


  Time to end of optimisation =      58.4259 seconds


  Peak dynamic memory used =      19.13 MB 


  Timing analysis for GULP :

--------------------------------------------------------------------------------
  Task / Subroutine                                          Time (Seconds)
--------------------------------------------------------------------------------
  Calculation of reciprocal space energy and derivatives          1.7419
  Calculation of real space energy and derivatives               50.0298
  Calculation of three-body energy and derivatives                5.6336
  Calculation of matrix inversion                                 0.7679
--------------------------------------------------------------------------------
  Total CPU time                                                 58.4260
--------------------------------------------------------------------------------


  Dump file written as out.res                                                 
  CIF file written as out.cif                                                 


  Job Finished at 17:15.04  1st December   2016                               

