********************************************************************************
*                       GENERAL UTILITY LATTICE PROGRAM                        *
*                                 Julian Gale                                  *
*                      Nanochemistry Research Institute                        *
*                           Department of Chemistry                            *
*                    Curtin University, Western Australia                      *
********************************************************************************
* Version = 4.2.0 * Last modified =  20th January 2014                         *
********************************************************************************
*  optimise     - perform optimisation run                                     *
*  conp         - constant pressure calculation                                *
*  qok          - running with non charge neutral cell is OK                   *
********************************************************************************

  Job Started  at 12:32.31  1st December   2016                               

  Number of CPUs =     1


  Total number of configurations input =   1

********************************************************************************
*  Input for Configuration =   1                                               *
********************************************************************************

  Formula = Ge3Si57O120F6                                               

  Number of irreducible atoms/shells =     312


  Total number atoms/shells =     312

  Dimensionality = 3               :  Bulk   


  Charge on solid   =  -6.000000 =>neutralising background added


  Cartesian lattice vectors (Angstroms) :

       12.001022    0.000000    0.000000
       -6.052984   10.345303    0.000000
       -0.019997    0.230886   29.433891

  Cell parameters (Angstroms/Degrees):

  a =      12.0010    alpha =  89.5924
  b =      11.9860    beta  =  90.0389
  c =      29.4348    gamma = 120.3317

  Initial cell volume =        3654.341353 Angs**3

  Temperature of configuration =  0.000     K 

  Pressure of configuration =         0.000 GPa 

  Fractional coordinates of asymmetric unit :

--------------------------------------------------------------------------------
   No.  Atomic       x           y          z         Charge      Occupancy
        Label      (Frac)      (Frac)     (Frac)        (e)         (Frac)  
--------------------------------------------------------------------------------
      1 Ge    c    0.699600    0.375700    0.033890     4.00000    1.000000    
      2 Si    c    0.617208 *  0.318085 *  0.368443 *   4.00000    1.000000    
      3 Si    c    0.676134 *  0.296031 *  0.698757 *   4.00000    1.000000    
      4 Si    c    0.301742 *  0.632776 *  0.533888 *   4.00000    1.000000    
      5 Si    c    0.381521 *  0.675875 *  0.865936 *   4.00000    1.000000    
      6 Si    c    0.320727 *  0.702593 *  0.201129 *   4.00000    1.000000    
      7 Si    c    0.374968 *  0.699254 *  0.301794 *   4.00000    1.000000    
      8 Si    c    0.329039 *  0.616581 *  0.966231 *   4.00000    1.000000    
      9 Si    c    0.297447 *  0.680174 *  0.634705 *   4.00000    1.000000    
     10 Si    c    0.622395 *  0.296976 *  0.799373 *   4.00000    1.000000    
     11 Si    c    0.681257 *  0.374609 *  0.470552 *   4.00000    1.000000    
     12 Si    c    0.694677 *  0.320650 *  0.135367 *   4.00000    1.000000    
     13 Si    c    0.527349 *  0.407148 *  0.965771 *   4.00000    1.000000    
     14 Si    c    0.579826 *  0.108646 *  0.303926 *   4.00000    1.000000    
     15 Si    c    0.888276 *  0.468742 *  0.633695 *   4.00000    1.000000    
     16 Si    c    0.468102 *  0.588992 *  0.471153 *   4.00000    1.000000    
     17 Si    c    0.417405 *  0.887612 *  0.801455 *   4.00000    1.000000    
     18 Si    c    0.112475 *  0.531110 *  0.134464 *   4.00000    1.000000    
     19 Si    c    0.409998 *  0.526355 *  0.368286 *   4.00000    1.000000    
     20 Si    c    0.118292 *  0.585384 *  0.030385 *   4.00000    1.000000    
     21 Si    c    0.469413 *  0.888268 *  0.699825 *   4.00000    1.000000    
     22 Si    c    0.583033 *  0.467697 *  0.863936 *   4.00000    1.000000    
     23 Si    c    0.898378 *  0.421403 *  0.532635 *   4.00000    1.000000    
     24 Si    c    0.528893 *  0.110419 *  0.202506 *   4.00000    1.000000    
     25 Si    c    0.302783 *  0.398321 *  0.849626 *   4.00000    1.000000    
     26 Si    c    0.600971 *  0.903679 *  0.186695 *   4.00000    1.000000    
     27 Si    c    0.099038 *  0.704990 *  0.518575 *   4.00000    1.000000    
     28 Si    c    0.694961 *  0.599298 *  0.352767 *   4.00000    1.000000    
     29 Si    c    0.396670 *  0.095782 *  0.684517 *   4.00000    1.000000    
     30 Si    c    0.902136 *  0.300174 *  0.015670 *   4.00000    1.000000    
     31 Ge    c    0.411133 *  0.315446 *  0.477599 *   4.00000    1.000000    
     32 Si    c    0.899043 *  0.603339 *  0.148898 *   4.00000    1.000000    
     33 Si    c    0.699015 *  0.096473 *  0.814796 *   4.00000    1.000000    
     34 Si    c    0.605320 *  0.690103 *  0.981349 *   4.00000    1.000000    
     35 Si    c    0.098286 *  0.399139 *  0.648187 *   4.00000    1.000000    
     36 Si    c    0.297844 *  0.899291 *  0.317317 *   4.00000    1.000000    
     37 Si    c    0.250773 *  0.335876 *  0.950045 *   4.00000    1.000000    
     38 Si    c    0.656932 *  0.908757 *  0.287546 *   4.00000    1.000000    
     39 Si    c    0.087652 *  0.750102 *  0.619381 *   4.00000    1.000000    
     40 Si    c    0.748805 *  0.660299 *  0.454562 *   4.00000    1.000000    
     41 Si    c    0.340121 *  0.088254 *  0.785568 *   4.00000    1.000000    
     42 Si    c    0.909358 *  0.250200 *  0.118499 *   4.00000    1.000000    
     43 Si    c    0.329614 *  0.242635 *  0.381743 *   4.00000    1.000000    
     44 Ge    c    0.908698 *  0.654064 *  0.046480 *   4.00000    1.000000    
     45 Si    c    0.749222 *  0.088473 *  0.714061 *   4.00000    1.000000    
     46 Si    c    0.661836 *  0.746319 *  0.880368 *   4.00000    1.000000    
     47 Si    c    0.099831 *  0.346206 *  0.547280 *   4.00000    1.000000    
     48 Si    c    0.248176 *  0.910281 *  0.216438 *   4.00000    1.000000    
     49 Si    c    0.971185 *  0.120681 *  0.965894 *   4.00000    1.000000    
     50 Si    c    0.873653 *  0.846773 *  0.300775 *   4.00000    1.000000    
     51 Si    c    0.149641 *  0.029625 *  0.633096 *   4.00000    1.000000    
     52 Si    c    0.029272 *  0.883334 *  0.467930 *   4.00000    1.000000    
     53 Si    c    0.122841 *  0.150308 *  0.799643 *   4.00000    1.000000    
     54 Si    c    0.846511 *  0.969181 *  0.134007 *   4.00000    1.000000    
     55 Si    c    0.117088 *  0.966601 *  0.365707 *   4.00000    1.000000    
     56 Si    c    0.852212 *  0.877963 *  0.032792 *   4.00000    1.000000    
     57 Si    c    0.028643 *  0.149485 *  0.698723 *   4.00000    1.000000    
     58 Si    c    0.878769 *  0.027735 *  0.865044 *   4.00000    1.000000    
     59 Si    c    0.161026 *  0.127551 *  0.531523 *   4.00000    1.000000    
     60 Si    c    0.969043 *  0.849330 *  0.200005 *   4.00000    1.000000    
     61 O2    c    0.922334 *  0.003531 *  0.000833 *   0.87073    1.000000    
     62 O2    c    0.995430 *  0.921862 *  0.333039 *   0.87073    1.000000    
     63 O2    c    0.069567 *  0.070801 *  0.665694 *   0.87073    1.000000    
     64 O2    c    0.069631 *  0.004665 *  0.499707 *   0.87073    1.000000    
     65 O2    c    0.001377 *  0.071389 *  0.832741 *   0.87073    1.000000    
     66 O2    c    0.928736 *  0.928484 *  0.166150 *   0.87073    1.000000    
     67 O2    c    0.336533 *  0.575881 *  0.334711 *   0.87073    1.000000    
     68 O2    c    0.419542 *  0.762598 *  0.667771 *   0.87073    1.000000    
     69 O2    c    0.248053 *  0.656234 *  0.000128 *   0.87073    1.000000    
     70 O2    c    0.660507 *  0.420685 *  0.831476 *   0.87073    1.000000    
     71 O2    c    0.580133 *  0.238675 *  0.171536 *   0.87073    1.000000    
     72 O2    c    0.777208 *  0.343034 *  0.498655 *   0.87073    1.000000    
     73 O3    c    0.567030 *  0.325789 *  0.997710 *   1.33043    1.000000    
     74 O2    c    0.761466 *  0.418804 *  0.665530 *   0.87073    1.000000    
     75 O2    c    0.656304 *  0.234280 *  0.336119 *   0.87073    1.000000    
     76 O2    c    0.425904 *  0.676161 *  0.500624 *   0.87073    1.000000    
     77 O2    c    0.236039 *  0.581082 *  0.167655 *   0.87073    1.000000    
     78 O2    c    0.342051 *  0.761677 *  0.834206 *   0.87073    1.000000    
     79 O2    c    0.125611 *  0.208141 *  0.970595 *   0.87073    1.000000    
     80 O2    c    0.783305 *  0.909477 *  0.307562 *   0.87073    1.000000    
     81 O2    c    0.085952 *  0.874881 *  0.639441 *   0.87073    1.000000    
     82 O2    c    0.874698 *  0.787427 *  0.473465 *   0.87073    1.000000    
     83 O2    c    0.213932 *  0.087835 *  0.805705 *   0.87073    1.000000    
     84 O2    c    0.908287 *  0.124171 *  0.139090 *   0.87073    1.000000    
     85 O2    c    0.209996 *  0.119610 *  0.356488 *   0.87073    1.000000    
     86 O3    c    0.928329 *  0.803992 *  0.028342 *   1.33043    1.000000    
     87 O2    c    0.874289 *  0.086984 *  0.693896 *   0.87073    1.000000    
     88 O2    c    0.788194 *  0.873240 *  0.859896 *   0.87073    1.000000    
     89 O2    c    0.103015 *  0.224194 *  0.526207 *   0.87073    1.000000    
     90 O2    c    0.124131 *  0.913797 *  0.196233 *   0.87073    1.000000    
     91 O2    c    0.924748 *  0.862557 *  0.249883 *   0.87073    1.000000    
     92 O2    c    0.137540 *  0.069653 *  0.582538 *   0.87073    1.000000    
     93 O2    c    0.929480 *  0.064785 *  0.915906 *   0.87073    1.000000    
     94 O2    c    0.068860 *  0.134593 *  0.749139 *   0.87073    1.000000    
     95 O2    c    0.854267 *  0.929707 *  0.083396 *   0.87073    1.000000    
     96 O2    c    0.063255 *  0.931937 *  0.416299 *   0.87073    1.000000    
     97 O2    c    0.908428 *  0.208412 *  0.977155 *   0.87073    1.000000    
     98 O2    c    0.789111 *  0.694153 *  0.313121 *   0.87073    1.000000    
     99 O2    c    0.300931 *  0.098220 *  0.646109 *   0.87073    1.000000    
    100 O2    c    0.100021 *  0.802734 *  0.479832 *   0.87073    1.000000    
    101 O2    c    0.205548 *  0.302702 *  0.810815 *   0.87073    1.000000    
    102 O2    c    0.696068 *  0.900534 *  0.148306 *   0.87073    1.000000    
    103 O2    c    0.198037 *  0.894872 *  0.355404 *   0.87073    1.000000    
    104 O2    c    0.700926 *  0.783839 *  0.020578 *   0.87073    1.000000    
    105 O2    c    0.098533 *  0.301749 *  0.686792 *   0.87073    1.000000    
    106 O2    c    0.797237 *  0.097533 *  0.853094 *   0.87073    1.000000    
    107 O3    c    0.307574 *  0.201482 *  0.519684 *   1.33043    1.000000    
    108 O2    c    0.902611 *  0.697146 *  0.189602 *   0.87073    1.000000    
    109 O2    c    0.318881 *  0.642797 *  0.251311 *   0.87073    1.000000    
    110 O2    c    0.357314 *  0.685945 *  0.584437 *   0.87073    1.000000    
    111 O2    c    0.324599 *  0.674732 *  0.916420 *   0.87073    1.000000    
    112 O2    c    0.678770 *  0.354561 *  0.748885 *   0.87073    1.000000    
    113 O3    c    0.628572 *  0.312106 *  0.087386 *   1.33043    1.000000    
    114 O2    c    0.673003 *  0.320823 *  0.418627 *   0.87073    1.000000    
    115 O2    c    0.370467 *  0.321855 *  0.967176 *   0.87073    1.000000    
    116 O2    c    0.666937 *  0.039999 *  0.306681 *   0.87073    1.000000    
    117 O2    c    0.955649 *  0.625043 *  0.637276 *   0.87073    1.000000    
    118 O2    c    0.625783 *  0.670164 *  0.471095 *   0.87073    1.000000    
    119 O2    c    0.329830 *  0.955781 *  0.804440 *   0.87073    1.000000    
    120 O2    c    0.039732 *  0.374591 *  0.137102 *   0.87073    1.000000    
    121 O2    c    0.324099 *  0.370315 *  0.365302 *   0.87073    1.000000    
    122 O3    c    0.056046 *  0.675133 *  0.027435 *   1.33043    1.000000    
    123 O2    c    0.625517 *  0.955914 *  0.696396 *   0.87073    1.000000    
    124 O2    c    0.670049 *  0.624475 *  0.860978 *   0.87073    1.000000    
    125 O2    c    0.966471 *  0.334599 *  0.529403 *   0.87073    1.000000    
    126 O2    c    0.372922 *  0.042109 *  0.198316 *   0.87073    1.000000    
    127 O3    c    0.766571 *  0.290205 *  0.008707 *   1.33043    1.000000    
    128 O2    c    0.690764 *  0.463549 *  0.347279 *   0.87073    1.000000    
    129 O2    c    0.532495 *  0.229062 *  0.676833 *   0.87073    1.000000    
    130 O2    c    0.234326 *  0.708277 *  0.511503 *   0.87073    1.000000    
    131 O2    c    0.306458 *  0.534195 *  0.842273 *   0.87073    1.000000    
    132 O2    c    0.464385 *  0.771493 *  0.178925 *   0.87073    1.000000    
    133 O2    c    0.299302 *  0.765854 *  0.324144 *   0.87073    1.000000    
    134 O2    c    0.472060 *  0.691725 *  0.988565 *   0.87073    1.000000    
    135 O2    c    0.229637 *  0.535476 *  0.656412 *   0.87073    1.000000    
    136 O2    c    0.698460 *  0.230151 *  0.822062 *   0.87073    1.000000    
    137 O3    c    0.544513 *  0.299213 *  0.494554 *   1.33043    1.000000    
    138 O2    c    0.766574 *  0.466412 *  0.156025 *   0.87073    1.000000    
    139 O1    c    0.770807 *  0.541123 *  0.021035 *   1.73396    1.000000    
    140 O2    c    0.462326 *  0.250840 *  0.364114 *   0.87073    1.000000    
    141 O2    c    0.750035 *  0.214413 *  0.694031 *   0.87073    1.000000    
    142 O2    c    0.222689 *  0.477001 *  0.528127 *   0.87073    1.000000    
    143 O2    c    0.537878 *  0.750943 *  0.861569 *   0.87073    1.000000    
    144 O2    c    0.245784 *  0.783360 *  0.196872 *   0.87073    1.000000    
    145 O2    c    0.531234 *  0.780339 *  0.306640 *   0.87073    1.000000    
    146 O2    c    0.250308 *  0.459896 *  0.971222 *   0.87073    1.000000    
    147 O2    c    0.214033 *  0.752080 *  0.639200 *   0.87073    1.000000    
    148 O2    c    0.466208 *  0.214722 *  0.804765 *   0.87073    1.000000    
    149 O2    c    0.744451 *  0.531809 *  0.472957 *   0.87073    1.000000    
    150 O2    c    0.785664 *  0.256005 *  0.136011 *   0.87073    1.000000    
    151 O2    c    0.229060 *  0.322125 *  0.895703 *   0.87073    1.000000    
    152 O2    c    0.674821 *  0.907626 *  0.233209 *   0.87073    1.000000    
    153 O2    c    0.090696 *  0.771809 *  0.564990 *   0.87073    1.000000    
    154 O2    c    0.760749 *  0.668846 *  0.399750 *   0.87073    1.000000    
    155 O2    c    0.322884 *  0.090600 *  0.731211 *   0.87073    1.000000    
    156 O2    c    0.911527 *  0.239883 *  0.064254 *   0.87073    1.000000    
    157 O3    c    0.302971 *  0.213005 *  0.434192 *   1.33043    1.000000    
    158 O3    c    0.903417 *  0.682006 *  0.104850 *   1.33043    1.000000    
    159 O2    c    0.768951 *  0.091574 *  0.768450 *   0.87073    1.000000    
    160 O2    c    0.680941 *  0.761395 *  0.934823 *   0.87073    1.000000    
    161 O2    c    0.099693 *  0.328281 *  0.601808 *   0.87073    1.000000    
    162 O2    c    0.229347 *  0.906337 *  0.270800 *   0.87073    1.000000    
    163 O2    c    0.583872 *  0.547804 *  0.989614 *   0.87073    1.000000    
    164 O2    c    0.437976 *  0.023984 *  0.326850 *   0.87073    1.000000    
    165 O2    c    0.971445 *  0.410382 *  0.656465 *   0.87073    1.000000    
    166 O3    c    0.408513 *  0.453620 *  0.496873 *   1.33043    1.000000    
    167 O2    c    0.559020 *  0.971488 *  0.824279 *   0.87073    1.000000    
    168 O2    c    0.022114 *  0.583410 *  0.154041 *   0.87073    1.000000    
    169 O2    c    0.552663 *  0.578178 *  0.347347 *   0.87073    1.000000    
    170 O2    c    0.023480 *  0.444646 *  0.008562 *   0.87073    1.000000    
    171 O2    c    0.411455 *  0.970999 *  0.676297 *   0.87073    1.000000    
    172 O2    c    0.441543 *  0.411042 *  0.841242 *   0.87073    1.000000    
    173 O2    c    0.976311 *  0.563775 *  0.509003 *   0.87073    1.000000    
    174 O2    c    0.589060 *  0.030568 *  0.178498 *   0.87073    1.000000    
    175 O2    c    0.581107 *  0.163187 *  0.253252 *   0.87073    1.000000    
    176 O2    c    0.837860 *  0.417215 *  0.582532 *   0.87073    1.000000    
    177 O2    c    0.583083 *  0.413950 *  0.914668 *   0.87073    1.000000    
    178 O2    c    0.416208 *  0.834300 *  0.750731 *   0.87073    1.000000    
    179 O2    c    0.159161 *  0.578427 *  0.082954 *   0.87073    1.000000    
    180 O2    c    0.414237 *  0.579490 *  0.419015 *   0.87073    1.000000    
    181 F     c    0.450450 *  0.902798 *  0.251917 *   0.56000    1.000000    
    182 F     c    0.096903 *  0.551961 *  0.582906 *   0.56000    1.000000    
    183 F     c    0.449981 *  0.545258 *  0.915319 *   0.56000    1.000000    
    184 F     c    0.548535 *  0.095674 *  0.750037 *   0.56000    1.000000    
    185 F     c    0.875781 *  0.462757 *  0.074504 *   0.56000    1.000000    
    186 F     c    0.516439 *  0.423074 *  0.428722 *   0.56000    1.000000    
    187 O2    s    0.920128 *  0.003116 *  0.000346 *  -2.87073    1.000000    
    188 O2    s    0.994988 *  0.918161 *  0.332978 *  -2.87073    1.000000    
    189 O2    s    0.073816 *  0.075096 *  0.665809 *  -2.87073    1.000000    
    190 O2    s    0.074433 *  0.003440 *  0.499349 *  -2.87073    1.000000    
    191 O2    s    0.001183 *  0.075305 *  0.832668 *  -2.87073    1.000000    
    192 O2    s    0.924194 *  0.924224 *  0.166375 *  -2.87073    1.000000    
    193 O2    s    0.348113 *  0.583481 *  0.334784 *  -2.87073    1.000000    
    194 O2    s    0.411990 *  0.767035 *  0.667635 *  -2.87073    1.000000    
    195 O2    s    0.242435 *  0.644612 *  0.999899 *  -2.87073    1.000000    
    196 O2    s    0.648635 *  0.412824 *  0.831511 *  -2.87073    1.000000    
    197 O2    s    0.586689 *  0.233615 *  0.171025 *  -2.87073    1.000000    
    198 O2    s    0.779383 *  0.354527 *  0.499115 *  -2.87073    1.000000    
    199 O3    s    0.572790 *  0.337727 *  0.997158 *  -3.33043    1.000000    
    200 O2    s    0.765791 *  0.411294 *  0.665672 *  -2.87073    1.000000    
    201 O2    s    0.644347 *  0.230016 *  0.336159 *  -2.87073    1.000000    
    202 O2    s    0.417873 *  0.663098 *  0.500951 *  -2.87073    1.000000    
    203 O2    s    0.231722 *  0.588172 *  0.167601 *  -2.87073    1.000000    
    204 O2    s    0.353903 *  0.765880 *  0.834095 *  -2.87073    1.000000    
    205 O2    s    0.121916 *  0.211928 *  0.967985 *  -2.87073    1.000000    
    206 O2    s    0.779803 *  0.902710 *  0.304793 *  -2.87073    1.000000    
    207 O2    s    0.092780 *  0.878088 *  0.636724 *  -2.87073    1.000000    
    208 O2    s    0.877226 *  0.783725 *  0.470884 *  -2.87073    1.000000    
    209 O2    s    0.217304 *  0.094475 *  0.803017 *  -2.87073    1.000000    
    210 O2    s    0.902020 *  0.121428 *  0.136429 *  -2.87073    1.000000    
    211 O2    s    0.212190 *  0.115800 *  0.359930 *  -2.87073    1.000000    
    212 O3    s    0.918667 *  0.801376 *  0.030091 *  -3.33043    1.000000    
    213 O2    s    0.877664 *  0.093747 *  0.696470 *  -2.87073    1.000000    
    214 O2    s    0.784789 *  0.876582 *  0.862535 *  -2.87073    1.000000    
    215 O2    s    0.108477 *  0.227587 *  0.528971 *  -2.87073    1.000000    
    216 O2    s    0.120691 *  0.906666 *  0.198696 *  -2.87073    1.000000    
    217 O2    s    0.923880 *  0.859258 *  0.250097 *  -2.87073    1.000000    
    218 O2    s    0.141409 *  0.071198 *  0.582931 *  -2.87073    1.000000    
    219 O2    s    0.928493 *  0.066952 *  0.915838 *  -2.87073    1.000000    
    220 O2    s    0.070431 *  0.138045 *  0.749177 *  -2.87073    1.000000    
    221 O2    s    0.853139 *  0.928821 *  0.083944 *  -2.87073    1.000000    
    222 O2    s    0.065632 *  0.930491 *  0.416211 *  -2.87073    1.000000    
    223 O2    s    0.914564 *  0.208713 *  0.980021 *  -2.87073    1.000000    
    224 O2    s    0.788012 *  0.700066 *  0.315989 *  -2.87073    1.000000    
    225 O2    s    0.294941 *  0.090772 *  0.648715 *  -2.87073    1.000000    
    226 O2    s    0.092403 *  0.801336 *  0.482521 *  -2.87073    1.000000    
    227 O2    s    0.206687 *  0.296312 *  0.813576 *  -2.87073    1.000000    
    228 O2    s    0.702076 *  0.908104 *  0.150792 *  -2.87073    1.000000    
    229 O2    s    0.199886 *  0.902771 *  0.352544 *  -2.87073    1.000000    
    230 O2    s    0.706562 *  0.783797 *  0.017790 *  -2.87073    1.000000    
    231 O2    s    0.091091 *  0.295564 *  0.684105 *  -2.87073    1.000000    
    232 O2    s    0.795884 *  0.090029 *  0.850459 *  -2.87073    1.000000    
    233 O3    s    0.297963 *  0.200765 *  0.518217 *  -3.33043    1.000000    
    234 O2    s    0.909331 *  0.704028 *  0.186705 *  -2.87073    1.000000    
    235 O2    s    0.324708 *  0.654542 *  0.251304 *  -2.87073    1.000000    
    236 O2    s    0.345478 *  0.679877 *  0.584340 *  -2.87073    1.000000    
    237 O2    s    0.330808 *  0.668884 *  0.916380 *  -2.87073    1.000000    
    238 O2    s    0.672735 *  0.342700 *  0.748947 *  -2.87073    1.000000    
    239 O3    s    0.640414 *  0.317677 *  0.088271 *  -3.33043    1.000000    
    240 O2    s    0.667811 *  0.325739 *  0.418297 *  -2.87073    1.000000    
    241 O2    s    0.373467 *  0.332131 *  0.965142 *  -2.87073    1.000000    
    242 O2    s    0.656896 *  0.033295 *  0.304381 *  -2.87073    1.000000    
    243 O2    s    0.962631 *  0.622159 *  0.635015 *  -2.87073    1.000000    
    244 O2    s    0.623028 *  0.660948 *  0.469325 *  -2.87073    1.000000    
    245 O2    s    0.339871 *  0.962586 *  0.802162 *  -2.87073    1.000000    
    246 O2    s    0.033676 *  0.377795 *  0.134899 *  -2.87073    1.000000    
    247 O2    s    0.333632 *  0.373858 *  0.367276 *  -2.87073    1.000000    
    248 O3    s    0.051083 *  0.664333 *  0.029198 *  -3.33043    1.000000    
    249 O2    s    0.622405 *  0.962857 *  0.698616 *  -2.87073    1.000000    
    250 O2    s    0.660243 *  0.621154 *  0.863325 *  -2.87073    1.000000    
    251 O2    s    0.973231 *  0.344993 *  0.531628 *  -2.87073    1.000000    
    252 O2    s    0.375835 *  0.035212 *  0.200669 *  -2.87073    1.000000    
    253 O3    s    0.775801 *  0.297632 *  0.011363 *  -3.33043    1.000000    
    254 O2    s    0.683660 *  0.463154 *  0.350048 *  -2.87073    1.000000    
    255 O2    s    0.533047 *  0.221972 *  0.679938 *  -2.87073    1.000000    
    256 O2    s    0.226973 *  0.700143 *  0.514599 *  -2.87073    1.000000    
    257 O2    s    0.313748 *  0.534348 *  0.845498 *  -2.87073    1.000000    
    258 O2    s    0.463761 *  0.778166 *  0.182073 *  -2.87073    1.000000    
    259 O2    s    0.306992 *  0.773002 *  0.321064 *  -2.87073    1.000000    
    260 O2    s    0.471082 *  0.683770 *  0.985464 *  -2.87073    1.000000    
    261 O2    s    0.222734 *  0.536004 *  0.653264 *  -2.87073    1.000000    
    262 O2    s    0.690757 *  0.222982 *  0.818954 *  -2.87073    1.000000    
    263 O3    s    0.549422 *  0.308290 *  0.490791 *  -3.33043    1.000000    
    264 O2    s    0.773171 *  0.466036 *  0.153151 *  -2.87073    1.000000    
    265 O1    s    0.777218 *  0.538831 *  0.023946 *  -3.73396    1.000000    
    266 O2    s    0.465334 *  0.257283 *  0.366369 *  -2.87073    1.000000    
    267 O2    s    0.742159 *  0.209136 *  0.696673 *  -2.87073    1.000000    
    268 O2    s    0.217632 *  0.479316 *  0.530760 *  -2.87073    1.000000    
    269 O2    s    0.534953 *  0.742513 *  0.864038 *  -2.87073    1.000000    
    270 O2    s    0.253883 *  0.788546 *  0.199378 *  -2.87073    1.000000    
    271 O2    s    0.528565 *  0.785827 *  0.304100 *  -2.87073    1.000000    
    272 O2    s    0.258538 *  0.462924 *  0.968489 *  -2.87073    1.000000    
    273 O2    s    0.209019 *  0.744240 *  0.636612 *  -2.87073    1.000000    
    274 O2    s    0.468793 *  0.209479 *  0.802157 *  -2.87073    1.000000    
    275 O2    s    0.738525 *  0.530420 *  0.470701 *  -2.87073    1.000000    
    276 O2    s    0.789951 *  0.262088 *  0.134022 *  -2.87073    1.000000    
    277 O2    s    0.239016 *  0.331532 *  0.896631 *  -2.87073    1.000000    
    278 O2    s    0.665131 *  0.907317 *  0.234099 *  -2.87073    1.000000    
    279 O2    s    0.091252 *  0.762474 *  0.565814 *  -2.87073    1.000000    
    280 O2    s    0.752391 *  0.660436 *  0.400377 *  -2.87073    1.000000    
    281 O2    s    0.332449 *  0.090896 *  0.732095 *  -2.87073    1.000000    
    282 O2    s    0.910350 *  0.247146 *  0.065260 *  -2.87073    1.000000    
    283 O3    s    0.312973 *  0.222973 *  0.431498 *  -3.33043    1.000000    
    284 O3    s    0.903254 *  0.671602 *  0.105159 *  -3.33043    1.000000    
    285 O2    s    0.759542 *  0.091760 *  0.767551 *  -2.87073    1.000000    
    286 O2    s    0.671094 *  0.752406 *  0.933917 *  -2.87073    1.000000    
    287 O2    s    0.099571 *  0.337643 *  0.600951 *  -2.87073    1.000000    
    288 O2    s    0.238499 *  0.906012 *  0.269848 *  -2.87073    1.000000    
    289 O2    s    0.580195 *  0.548978 *  0.986289 *  -2.87073    1.000000    
    290 O2    s    0.437831 *  0.019345 *  0.323435 *  -2.87073    1.000000    
    291 O2    s    0.976557 *  0.415446 *  0.653188 *  -2.87073    1.000000    
    292 O3    s    0.415062 *  0.457464 *  0.492812 *  -3.33043    1.000000    
    293 O2    s    0.559363 *  0.976422 *  0.820865 *  -2.87073    1.000000    
    294 O2    s    0.018759 *  0.579750 *  0.151382 *  -2.87073    1.000000    
    295 O2    s    0.553365 *  0.574945 *  0.350147 *  -2.87073    1.000000    
    296 O2    s    0.020307 *  0.444032 *  0.011602 *  -2.87073    1.000000    
    297 O2    s    0.416084 *  0.975984 *  0.679642 *  -2.87073    1.000000    
    298 O2    s    0.441398 *  0.415766 *  0.844525 *  -2.87073    1.000000    
    299 O2    s    0.981620 *  0.564291 *  0.512480 *  -2.87073    1.000000    
    300 O2    s    0.583992 *  0.025061 *  0.181849 *  -2.87073    1.000000    
    301 O2    s    0.575479 *  0.151866 *  0.253290 *  -2.87073    1.000000    
    302 O2    s    0.849308 *  0.422992 *  0.582662 *  -2.87073    1.000000    
    303 O2    s    0.577449 *  0.418898 *  0.914558 *  -2.87073    1.000000    
    304 O2    s    0.421873 *  0.845474 *  0.750711 *  -2.87073    1.000000    
    305 O2    s    0.150103 *  0.574028 *  0.083255 *  -2.87073    1.000000    
    306 O2    s    0.418984 *  0.574730 *  0.418691 *  -2.87073    1.000000    
    307 F     s    0.450361 *  0.902503 *  0.251895 *  -1.56000    1.000000    
    308 F     s    0.097017 *  0.552161 *  0.582811 *  -1.56000    1.000000    
    309 F     s    0.449336 *  0.545594 *  0.915320 *  -1.56000    1.000000    
    310 F     s    0.548806 *  0.096083 *  0.750063 *  -1.56000    1.000000    
    311 F     s    0.871573 *  0.464044 *  0.073099 *  -1.56000    1.000000    
    312 F     s    0.509849 *  0.416287 *  0.431610 *  -1.56000    1.000000    
--------------------------------------------------------------------------------



********************************************************************************
*  General input information                                                   *
********************************************************************************

  Species output for all configurations : 

--------------------------------------------------------------------------------
  Species    Type    Atomic    Atomic    Charge       Radii (Angs)     Library
                     Number     Mass       (e)     Cova   Ionic  VDW   Symbol
--------------------------------------------------------------------------------
    Si       Core       14      28.09   4.000000   1.200  0.000  2.100          
    O1       Core        8      16.00   1.733957   0.730  0.000  1.360          
    O1       Shell       8       0.00  -3.733957   0.730  0.000  1.360          
    O2       Core        8      16.00   0.870733   0.730  0.000  1.360          
    O2       Shell       8       0.00  -2.870733   0.730  0.000  1.360          
    O3       Core        8      16.00   1.330431   0.730  0.000  1.360          
    O3       Shell       8       0.00  -3.330431   0.730  0.000  1.360          
    F        Core        9      19.00   0.560000   0.710  0.000  1.300          
    F        Shell       9       0.00  -1.560000   0.710  0.000  1.300          
    Ge       Core       32      72.61   4.000000   1.170  0.000  1.750          
--------------------------------------------------------------------------------


  Lattice summation method               =    Ewald          (3-D)
                                         =    Parry          (2-D)
                                         =    Saunders et al (1-D)
  Accuracy factor for lattice sums       =   12.000


  Time limit = Infinity

  Maximum range for interatomic potentials =        16.000000 Angstroms

  Taper potentials to zero over   1.0000 Angstroms using polynomial

  General interatomic potentials :

--------------------------------------------------------------------------------
Atom  Types   Potential         A         B         C         D     Cutoffs(Ang)
  1     2                                                            Min    Max 
--------------------------------------------------------------------------------
Si   c O1   s Buckingham    0.132E+04 0.318      10.1      0.00     0.000 16.000
Si   c O2   s Buckingham    0.132E+04 0.318      10.1      0.00     0.000 16.000
Si   c O3   s Buckingham    0.132E+04 0.318      10.1      0.00     0.000 16.000
Ge   c O1   s Buckingham    0.150E+04 0.326      16.8      0.00     0.000 16.000
Ge   c O2   s Buckingham    0.150E+04 0.326      16.8      0.00     0.000 16.000
Ge   c O3   s Buckingham    0.150E+04 0.326      16.8      0.00     0.000 16.000
O1   s O1   s Buckingham    0.228E+05 0.149      10.9      0.00     0.000 16.000
O1   s O2   s Buckingham    0.228E+05 0.149      10.9      0.00     0.000 16.000
O1   s O3   s Buckingham    0.228E+05 0.149      10.9      0.00     0.000 16.000
O2   s O2   s Buckingham    0.228E+05 0.149      10.9      0.00     0.000 16.000
O2   s O3   s Buckingham    0.228E+05 0.149      10.9      0.00     0.000 16.000
O3   s O3   s Buckingham    0.228E+05 0.149      10.9      0.00     0.000 16.000
Si   c F    s Buckingham     977.     0.282      0.00      0.00     0.000 16.000
Ge   c F    s Buckingham     681.     0.320      0.00      0.00     0.000 16.000
F    s F    s Buckingham     540.     0.262      0.00      0.00     0.000 16.000
O1   s F    s Buckingham    0.168E+04 0.268      0.00      0.00     0.000 16.000
O2   s F    s Buckingham    0.168E+04 0.268      0.00      0.00     0.000 16.000
O3   s F    s Buckingham    0.168E+04 0.268      0.00      0.00     0.000 16.000
O2   c O2   s Spring (c-s)   76.0      0.00      0.00      0.00     0.000  0.800
O3   c O3   s Spring (c-s)   128.      0.00      0.00      0.00     0.000  0.800
O1   c O1   s Spring (c-s)   180.      0.00      0.00      0.00     0.000  0.800
F    c F    s Spring (c-s)   33.5      0.00      0.00      0.00     0.000  0.800
--------------------------------------------------------------------------------

  General Three-body potentials :

  Harmonic form:

--------------------------------------------------------------------------------
Atom    Atom    Atom           Force Constants            Theta     Cutoffs  
  1       2       3     (eVrad**-2/eVrad**-3/eVrad**-4)   (deg)  1-2  1-3  2-3
--------------------------------------------------------------------------------
Si    c O1    s O1    s  1.261        0.0000    0.0000   109.470 0.00 0.00 0.00
                                                                 1.90 1.90 3.50
Si    c O1    s O2    s  1.261        0.0000    0.0000   109.470 0.00 0.00 0.00
                                                                 1.90 1.90 3.50
Si    c O2    s O2    s  1.261        0.0000    0.0000   109.470 0.00 0.00 0.00
                                                                 1.90 1.90 3.50
--------------------------------------------------------------------------------

********************************************************************************
*  Output for configuration   1                                                *
********************************************************************************


  Components of energy : 

--------------------------------------------------------------------------------
  Interatomic potentials     =        2063.85980089 eV
  Three-body potentials      =           0.47334958 eV
  Monopole - monopole (real) =       -6611.97364551 eV
  Monopole - monopole (recip)=       -3172.39200169 eV
  Monopole - monopole (total)=       -9784.36564720 eV
  Neutralising energy        =          -6.46148352 eV
--------------------------------------------------------------------------------
  Total lattice energy       =       -7726.49398025 eV
--------------------------------------------------------------------------------
  Total lattice energy       =         -745488.5588 kJ/(mole unit cells)
--------------------------------------------------------------------------------


  Number of variables =      939

  Maximum number of calculations  =          1000
  Maximum Hessian update interval =            10
  Maximum step size               =   1.000000000
  Maximum parameter tolerance     =   0.000010000
  Maximum function  tolerance     =   0.000010000
  Maximum gradient  tolerance     =   0.001000000
  Maximum gradient  component     =   0.010000000

  Symmetry not applied to optimisation

  Cell parameters to be optimised using strains

  Newton-Raphson optimiser to be used

  BFGS hessian update to be used

  Dumpfile to be written after every cycle

  Start of bulk optimisation :

  Cycle:      0 Energy:     -7726.493980  Gnorm:      0.000833  CPU:    1.054
  ** Hessian calculated **
  Cycle:      1 Energy:     -7726.523145  Gnorm:      0.019155  CPU:    2.973
  ** Hessian calculated **
  Cycle:      2 Energy:     -7726.525034  Gnorm:      0.006818  CPU:    5.219
  Cycle:      3 Energy:     -7726.525453  Gnorm:      0.005971  CPU:    6.611
  Cycle:      4 Energy:     -7726.525718  Gnorm:      0.004412  CPU:    8.003
  Cycle:      5 Energy:     -7726.525950  Gnorm:      0.004816  CPU:    9.569
  Cycle:      6 Energy:     -7726.526152  Gnorm:      0.003589  CPU:   10.961
  Cycle:      7 Energy:     -7726.526278  Gnorm:      0.003210  CPU:   12.354
  Cycle:      8 Energy:     -7726.526387  Gnorm:      0.002959  CPU:   13.746
  Cycle:      9 Energy:     -7726.526482  Gnorm:      0.002797  CPU:   15.138
  Cycle:     10 Energy:     -7726.526564  Gnorm:      0.002457  CPU:   16.530
  Cycle:     11 Energy:     -7726.526628  Gnorm:      0.002000  CPU:   17.922
  ** Hessian calculated **
  Cycle:     12 Energy:     -7726.526657  Gnorm:      0.001317  CPU:   20.167
  Cycle:     13 Energy:     -7726.526686  Gnorm:      0.001625  CPU:   21.559
  Cycle:     14 Energy:     -7726.526715  Gnorm:      0.001393  CPU:   22.951
  Cycle:     15 Energy:     -7726.526746  Gnorm:      0.001549  CPU:   24.343
  Cycle:     16 Energy:     -7726.526775  Gnorm:      0.001352  CPU:   25.735
  Cycle:     17 Energy:     -7726.526811  Gnorm:      0.001759  CPU:   27.127
  Cycle:     18 Energy:     -7726.526844  Gnorm:      0.001382  CPU:   28.519
  Cycle:     19 Energy:     -7726.526875  Gnorm:      0.001490  CPU:   29.911
  Cycle:     20 Energy:     -7726.526909  Gnorm:      0.001647  CPU:   31.303
  Cycle:     21 Energy:     -7726.526957  Gnorm:      0.001945  CPU:   32.833
  ** Hessian calculated **
  Cycle:     22 Energy:     -7726.526982  Gnorm:      0.001136  CPU:   35.081
  Cycle:     23 Energy:     -7726.526997  Gnorm:      0.001013  CPU:   36.473
  Cycle:     24 Energy:     -7726.527012  Gnorm:      0.000930  CPU:   38.025
  Cycle:     25 Energy:     -7726.527024  Gnorm:      0.001010  CPU:   39.417
  Cycle:     26 Energy:     -7726.527037  Gnorm:      0.000881  CPU:   40.810
  Cycle:     27 Energy:     -7726.527049  Gnorm:      0.000962  CPU:   42.202
  Cycle:     28 Energy:     -7726.527061  Gnorm:      0.000892  CPU:   43.594
  Cycle:     29 Energy:     -7726.527072  Gnorm:      0.001030  CPU:   44.986
  Cycle:     30 Energy:     -7726.527083  Gnorm:      0.000927  CPU:   46.378
  Cycle:     31 Energy:     -7726.527094  Gnorm:      0.001103  CPU:   47.770
  ** Hessian calculated **
  Cycle:     32 Energy:     -7726.527102  Gnorm:      0.000778  CPU:   50.169
  Cycle:     33 Energy:     -7726.527110  Gnorm:      0.000950  CPU:   51.561
  Cycle:     34 Energy:     -7726.527119  Gnorm:      0.000759  CPU:   52.952
  Cycle:     35 Energy:     -7726.527127  Gnorm:      0.000829  CPU:   54.506
  Cycle:     36 Energy:     -7726.527135  Gnorm:      0.000663  CPU:   55.898
  Cycle:     37 Energy:     -7726.527144  Gnorm:      0.000837  CPU:   57.290
  Cycle:     38 Energy:     -7726.527152  Gnorm:      0.000691  CPU:   58.682
  Cycle:     39 Energy:     -7726.527161  Gnorm:      0.000769  CPU:   60.225
  Cycle:     40 Energy:     -7726.527170  Gnorm:      0.000846  CPU:   61.616
  Cycle:     41 Energy:     -7726.527183  Gnorm:      0.001235  CPU:   63.008
  ** Hessian calculated **
  Cycle:     42 Energy:     -7726.527194  Gnorm:      0.000754  CPU:   65.254
  Cycle:     43 Energy:     -7726.527202  Gnorm:      0.000701  CPU:   66.646
  Cycle:     44 Energy:     -7726.527209  Gnorm:      0.000635  CPU:   68.038
  Cycle:     45 Energy:     -7726.527215  Gnorm:      0.000713  CPU:   69.430
  Cycle:     46 Energy:     -7726.527222  Gnorm:      0.000599  CPU:   70.822
  Cycle:     47 Energy:     -7726.527228  Gnorm:      0.000696  CPU:   72.214
  Cycle:     48 Energy:     -7726.527234  Gnorm:      0.000618  CPU:   73.606
  Cycle:     49 Energy:     -7726.527240  Gnorm:      0.000765  CPU:   74.998
  Cycle:     50 Energy:     -7726.527246  Gnorm:      0.000638  CPU:   76.390
  Cycle:     51 Energy:     -7726.527251  Gnorm:      0.000812  CPU:   77.937
  ** Hessian calculated **
  Cycle:     52 Energy:     -7726.527256  Gnorm:      0.000599  CPU:   80.182
  Cycle:     53 Energy:     -7726.527261  Gnorm:      0.000739  CPU:   81.575
  Cycle:     54 Energy:     -7726.527266  Gnorm:      0.000589  CPU:   83.136
  Cycle:     55 Energy:     -7726.527271  Gnorm:      0.000651  CPU:   84.528
  Cycle:     56 Energy:     -7726.527276  Gnorm:      0.000533  CPU:   85.920
  Cycle:     57 Energy:     -7726.527282  Gnorm:      0.000651  CPU:   87.312
  Cycle:     58 Energy:     -7726.527287  Gnorm:      0.000544  CPU:   88.704
  Cycle:     59 Energy:     -7726.527293  Gnorm:      0.000613  CPU:   90.096
  Cycle:     60 Energy:     -7726.527298  Gnorm:      0.000647  CPU:   91.488
  Cycle:     61 Energy:     -7726.527306  Gnorm:      0.000981  CPU:   92.880
  ** Hessian calculated **
  Cycle:     62 Energy:     -7726.527314  Gnorm:      0.000610  CPU:   95.126
  Cycle:     63 Energy:     -7726.527319  Gnorm:      0.000586  CPU:   96.518
  Cycle:     64 Energy:     -7726.527324  Gnorm:      0.000516  CPU:   97.910
  Cycle:     65 Energy:     -7726.527328  Gnorm:      0.000600  CPU:   99.392
  Cycle:     66 Energy:     -7726.527333  Gnorm:      0.000489  CPU:  100.784
  Cycle:     67 Energy:     -7726.527337  Gnorm:      0.000590  CPU:  102.176
  Cycle:     68 Energy:     -7726.527341  Gnorm:      0.000521  CPU:  103.676
  Cycle:     69 Energy:     -7726.527345  Gnorm:      0.000649  CPU:  105.157
  Cycle:     70 Energy:     -7726.527350  Gnorm:      0.000530  CPU:  106.549
  Cycle:     71 Energy:     -7726.527353  Gnorm:      0.000689  CPU:  107.941
  ** Hessian calculated **
  Cycle:     72 Energy:     -7726.527357  Gnorm:      0.000511  CPU:  110.187
  Cycle:     73 Energy:     -7726.527360  Gnorm:      0.000636  CPU:  111.579
  Cycle:     74 Energy:     -7726.527364  Gnorm:      0.000507  CPU:  112.971
  Cycle:     75 Energy:     -7726.527368  Gnorm:      0.000564  CPU:  114.363
  Cycle:     76 Energy:     -7726.527372  Gnorm:      0.000464  CPU:  115.755
  Cycle:     77 Energy:     -7726.527376  Gnorm:      0.000564  CPU:  117.297
  Cycle:     78 Energy:     -7726.527380  Gnorm:      0.000473  CPU:  118.689
  Cycle:     79 Energy:     -7726.527384  Gnorm:      0.000540  CPU:  120.081
  Cycle:     80 Energy:     -7726.527389  Gnorm:      0.000560  CPU:  121.474
  Cycle:     81 Energy:     -7726.527395  Gnorm:      0.000866  CPU:  123.028
  ** Hessian calculated **
  Cycle:     82 Energy:     -7726.527400  Gnorm:      0.000539  CPU:  125.288
  Cycle:     83 Energy:     -7726.527405  Gnorm:      0.000525  CPU:  126.680
  Cycle:     84 Energy:     -7726.527409  Gnorm:      0.000459  CPU:  128.221
  Cycle:     85 Energy:     -7726.527412  Gnorm:      0.000538  CPU:  129.612
  Cycle:     86 Energy:     -7726.527416  Gnorm:      0.000437  CPU:  131.004
  Cycle:     87 Energy:     -7726.527419  Gnorm:      0.000530  CPU:  132.396
  Cycle:     88 Energy:     -7726.527423  Gnorm:      0.000468  CPU:  133.789
  Cycle:     89 Energy:     -7726.527426  Gnorm:      0.000586  CPU:  135.181
  Cycle:     90 Energy:     -7726.527430  Gnorm:      0.000474  CPU:  136.572
  Cycle:     91 Energy:     -7726.527432  Gnorm:      0.000620  CPU:  137.965
  ** Hessian calculated **
  Cycle:     92 Energy:     -7726.527435  Gnorm:      0.000461  CPU:  140.210
  Cycle:     93 Energy:     -7726.527438  Gnorm:      0.000576  CPU:  141.602
  Cycle:     94 Energy:     -7726.527442  Gnorm:      0.000461  CPU:  142.994
  Cycle:     95 Energy:     -7726.527445  Gnorm:      0.000515  CPU:  144.386
  Cycle:     96 Energy:     -7726.527448  Gnorm:      0.000424  CPU:  145.778
  Cycle:     97 Energy:     -7726.527452  Gnorm:      0.000517  CPU:  147.170
  Cycle:     98 Energy:     -7726.527455  Gnorm:      0.000434  CPU:  148.562
  Cycle:     99 Energy:     -7726.527459  Gnorm:      0.000499  CPU:  150.121
  Cycle:    100 Energy:     -7726.527462  Gnorm:      0.000512  CPU:  151.513
  Cycle:    101 Energy:     -7726.527467  Gnorm:      0.000801  CPU:  152.905
  ** Hessian calculated **
  Cycle:    102 Energy:     -7726.527472  Gnorm:      0.000498  CPU:  155.150
  Cycle:    103 Energy:     -7726.527476  Gnorm:      0.000490  CPU:  156.542
  Cycle:    104 Energy:     -7726.527479  Gnorm:      0.000426  CPU:  157.934
  Cycle:    105 Energy:     -7726.527482  Gnorm:      0.000500  CPU:  159.326
  Cycle:    106 Energy:     -7726.527486  Gnorm:      0.000407  CPU:  160.718
  Cycle:    107 Energy:     -7726.527489  Gnorm:      0.000495  CPU:  162.111
  Cycle:    108 Energy:     -7726.527492  Gnorm:      0.000437  CPU:  163.503
  Cycle:    109 Energy:     -7726.527495  Gnorm:      0.000548  CPU:  164.895
  Cycle:    110 Energy:     -7726.527498  Gnorm:      0.000439  CPU:  166.287
  Cycle:    111 Energy:     -7726.527500  Gnorm:      0.000579  CPU:  167.817
  ** Hessian calculated **
  Cycle:    112 Energy:     -7726.527503  Gnorm:      0.000430  CPU:  170.077
  Cycle:    113 Energy:     -7726.527505  Gnorm:      0.000542  CPU:  171.469
  Cycle:    114 Energy:     -7726.527508  Gnorm:      0.000433  CPU:  173.016
  Cycle:    115 Energy:     -7726.527511  Gnorm:      0.000485  CPU:  174.409
  Cycle:    116 Energy:     -7726.527514  Gnorm:      0.000398  CPU:  175.801
  Cycle:    117 Energy:     -7726.527517  Gnorm:      0.000489  CPU:  177.193
  Cycle:    118 Energy:     -7726.527520  Gnorm:      0.000410  CPU:  178.585
  Cycle:    119 Energy:     -7726.527524  Gnorm:      0.000475  CPU:  179.977
  Cycle:    120 Energy:     -7726.527527  Gnorm:      0.000484  CPU:  181.369
  Cycle:    121 Energy:     -7726.527531  Gnorm:      0.000762  CPU:  182.761
  ** Hessian calculated **
  Cycle:    122 Energy:     -7726.527536  Gnorm:      0.000472  CPU:  185.115
  Cycle:    123 Energy:     -7726.527539  Gnorm:      0.000468  CPU:  186.508
  Cycle:    124 Energy:     -7726.527542  Gnorm:      0.000405  CPU:  187.900
  Cycle:    125 Energy:     -7726.527545  Gnorm:      0.000477  CPU:  189.386
  Cycle:    126 Energy:     -7726.527548  Gnorm:      0.000388  CPU:  190.779
  Cycle:    127 Energy:     -7726.527551  Gnorm:      0.000472  CPU:  192.170
  Cycle:    128 Energy:     -7726.527554  Gnorm:      0.000416  CPU:  193.563
  Cycle:    129 Energy:     -7726.527556  Gnorm:      0.000523  CPU:  195.120
  Cycle:    130 Energy:     -7726.527559  Gnorm:      0.000418  CPU:  196.511
  Cycle:    131 Energy:     -7726.527561  Gnorm:      0.000552  CPU:  197.903
  ** Hessian calculated **
  Cycle:    132 Energy:     -7726.527564  Gnorm:      0.000411  CPU:  200.149
  Cycle:    133 Energy:     -7726.527566  Gnorm:      0.000520  CPU:  201.541
  Cycle:    134 Energy:     -7726.527569  Gnorm:      0.000414  CPU:  202.933
  Cycle:    135 Energy:     -7726.527572  Gnorm:      0.000466  CPU:  204.325
  Cycle:    136 Energy:     -7726.527574  Gnorm:      0.000383  CPU:  205.717
  Cycle:    137 Energy:     -7726.527577  Gnorm:      0.000470  CPU:  207.245
  Cycle:    138 Energy:     -7726.527580  Gnorm:      0.000395  CPU:  208.636
  Cycle:    139 Energy:     -7726.527583  Gnorm:      0.000457  CPU:  210.028
  Cycle:    140 Energy:     -7726.527586  Gnorm:      0.000465  CPU:  211.420
  Cycle:    141 Energy:     -7726.527590  Gnorm:      0.000736  CPU:  212.961
  ** Hessian calculated **
  Cycle:    142 Energy:     -7726.527595  Gnorm:      0.000456  CPU:  215.210
  Cycle:    143 Energy:     -7726.527598  Gnorm:      0.000453  CPU:  216.602
  Cycle:    144 Energy:     -7726.527601  Gnorm:      0.000391  CPU:  218.169
  Cycle:    145 Energy:     -7726.527603  Gnorm:      0.000461  CPU:  219.561
  Cycle:    146 Energy:     -7726.527606  Gnorm:      0.000375  CPU:  220.953
  Cycle:    147 Energy:     -7726.527609  Gnorm:      0.000459  CPU:  222.346
  Cycle:    148 Energy:     -7726.527611  Gnorm:      0.000402  CPU:  223.737
  Cycle:    149 Energy:     -7726.527614  Gnorm:      0.000507  CPU:  225.129
  Cycle:    150 Energy:     -7726.527617  Gnorm:      0.000402  CPU:  226.522
  Cycle:    151 Energy:     -7726.527619  Gnorm:      0.000534  CPU:  227.914
  ** Hessian calculated **
  Cycle:    152 Energy:     -7726.527621  Gnorm:      0.000396  CPU:  230.159
  Cycle:    153 Energy:     -7726.527623  Gnorm:      0.000502  CPU:  231.551
  Cycle:    154 Energy:     -7726.527626  Gnorm:      0.000402  CPU:  232.943
  Cycle:    155 Energy:     -7726.527629  Gnorm:      0.000454  CPU:  234.485
  Cycle:    156 Energy:     -7726.527631  Gnorm:      0.000373  CPU:  235.877
  Cycle:    157 Energy:     -7726.527634  Gnorm:      0.000457  CPU:  237.269
  Cycle:    158 Energy:     -7726.527636  Gnorm:      0.000385  CPU:  238.661
  Cycle:    159 Energy:     -7726.527639  Gnorm:      0.000448  CPU:  240.325
  Cycle:    160 Energy:     -7726.527642  Gnorm:      0.000453  CPU:  241.716
  Cycle:    161 Energy:     -7726.527646  Gnorm:      0.000719  CPU:  243.108
  ** Hessian calculated **
  Cycle:    162 Energy:     -7726.527650  Gnorm:      0.000445  CPU:  245.353
  Cycle:    163 Energy:     -7726.527653  Gnorm:      0.000444  CPU:  246.745
  Cycle:    164 Energy:     -7726.527656  Gnorm:      0.000382  CPU:  248.137
  Cycle:    165 Energy:     -7726.527659  Gnorm:      0.000452  CPU:  249.529
  Cycle:    166 Energy:     -7726.527661  Gnorm:      0.000367  CPU:  250.921
  Cycle:    167 Energy:     -7726.527664  Gnorm:      0.000449  CPU:  252.313
  Cycle:    168 Energy:     -7726.527666  Gnorm:      0.000392  CPU:  253.705
  Cycle:    169 Energy:     -7726.527669  Gnorm:      0.000495  CPU:  255.097
  Cycle:    170 Energy:     -7726.527671  Gnorm:      0.000392  CPU:  256.489
  Cycle:    171 Energy:     -7726.527674  Gnorm:      0.000522  CPU:  258.049
  ** Hessian calculated **
  Cycle:    172 Energy:     -7726.527676  Gnorm:      0.000386  CPU:  260.294
  Cycle:    173 Energy:     -7726.527678  Gnorm:      0.000492  CPU:  261.686
  Cycle:    174 Energy:     -7726.527681  Gnorm:      0.000392  CPU:  263.172
  Cycle:    175 Energy:     -7726.527683  Gnorm:      0.000445  CPU:  264.564
  Cycle:    176 Energy:     -7726.527685  Gnorm:      0.000366  CPU:  265.956
  Cycle:    177 Energy:     -7726.527688  Gnorm:      0.000449  CPU:  267.348
  Cycle:    178 Energy:     -7726.527691  Gnorm:      0.000378  CPU:  268.905
  Cycle:    179 Energy:     -7726.527694  Gnorm:      0.000440  CPU:  270.297
  Cycle:    180 Energy:     -7726.527696  Gnorm:      0.000444  CPU:  271.689
  Cycle:    181 Energy:     -7726.527700  Gnorm:      0.000710  CPU:  273.081
  ** Hessian calculated **
  Cycle:    182 Energy:     -7726.527704  Gnorm:      0.000438  CPU:  275.326
  Cycle:    183 Energy:     -7726.527707  Gnorm:      0.000439  CPU:  276.719
  Cycle:    184 Energy:     -7726.527710  Gnorm:      0.000376  CPU:  278.111
  Cycle:    185 Energy:     -7726.527712  Gnorm:      0.000445  CPU:  279.594
  Cycle:    186 Energy:     -7726.527715  Gnorm:      0.000362  CPU:  280.986
  Cycle:    187 Energy:     -7726.527717  Gnorm:      0.000442  CPU:  282.378
  Cycle:    188 Energy:     -7726.527720  Gnorm:      0.000387  CPU:  283.770
  Cycle:    189 Energy:     -7726.527722  Gnorm:      0.000487  CPU:  285.301
  Cycle:    190 Energy:     -7726.527725  Gnorm:      0.000384  CPU:  286.693
  Cycle:    191 Energy:     -7726.527727  Gnorm:      0.000514  CPU:  288.085
  ** Hessian calculated **
  Cycle:    192 Energy:     -7726.527729  Gnorm:      0.000379  CPU:  290.331
  Cycle:    193 Energy:     -7726.527731  Gnorm:      0.000484  CPU:  291.723
  Cycle:    194 Energy:     -7726.527734  Gnorm:      0.000386  CPU:  293.115
  Cycle:    195 Energy:     -7726.527736  Gnorm:      0.000439  CPU:  294.507
  Cycle:    196 Energy:     -7726.527738  Gnorm:      0.000362  CPU:  295.899
  Cycle:    197 Energy:     -7726.527741  Gnorm:      0.000444  CPU:  297.291
  Cycle:    198 Energy:     -7726.527744  Gnorm:      0.000374  CPU:  298.683
  Cycle:    199 Energy:     -7726.527746  Gnorm:      0.000438  CPU:  300.075
  Cycle:    200 Energy:     -7726.527749  Gnorm:      0.000440  CPU:  301.467
  Cycle:    201 Energy:     -7726.527753  Gnorm:      0.000706  CPU:  303.029
  ** Hessian calculated **
  Cycle:    202 Energy:     -7726.527757  Gnorm:      0.000435  CPU:  305.289
  Cycle:    203 Energy:     -7726.527760  Gnorm:      0.000437  CPU:  306.681
  Cycle:    204 Energy:     -7726.527762  Gnorm:      0.000373  CPU:  308.225
  Cycle:    205 Energy:     -7726.527765  Gnorm:      0.000441  CPU:  309.616
  Cycle:    206 Energy:     -7726.527768  Gnorm:      0.000360  CPU:  311.008
  Cycle:    207 Energy:     -7726.527770  Gnorm:      0.000438  CPU:  312.400
  Cycle:    208 Energy:     -7726.527772  Gnorm:      0.000383  CPU:  313.792
  Cycle:    209 Energy:     -7726.527775  Gnorm:      0.000481  CPU:  315.184
  Cycle:    210 Energy:     -7726.527777  Gnorm:      0.000380  CPU:  316.577
  Cycle:    211 Energy:     -7726.527779  Gnorm:      0.000508  CPU:  317.969
  ** Hessian calculated **
  Cycle:    212 Energy:     -7726.527781  Gnorm:      0.000375  CPU:  320.214
  Cycle:    213 Energy:     -7726.527784  Gnorm:      0.000479  CPU:  321.606
  Cycle:    214 Energy:     -7726.527786  Gnorm:      0.000383  CPU:  322.998
  Cycle:    215 Energy:     -7726.527788  Gnorm:      0.000437  CPU:  324.531
  Cycle:    216 Energy:     -7726.527791  Gnorm:      0.000359  CPU:  325.923
  Cycle:    217 Energy:     -7726.527793  Gnorm:      0.000442  CPU:  327.314
  Cycle:    218 Energy:     -7726.527796  Gnorm:      0.000372  CPU:  328.706
  Cycle:    219 Energy:     -7726.527799  Gnorm:      0.000437  CPU:  330.237
  Cycle:    220 Energy:     -7726.527802  Gnorm:      0.000438  CPU:  331.629
  Cycle:    221 Energy:     -7726.527805  Gnorm:      0.000704  CPU:  333.021
  ** Hessian calculated **
  Cycle:    222 Energy:     -7726.527809  Gnorm:      0.000432  CPU:  335.266
  Cycle:    223 Energy:     -7726.527812  Gnorm:      0.000436  CPU:  336.658
  Cycle:    224 Energy:     -7726.527815  Gnorm:      0.000371  CPU:  338.050
  Cycle:    225 Energy:     -7726.527817  Gnorm:      0.000440  CPU:  339.442
  Cycle:    226 Energy:     -7726.527820  Gnorm:      0.000358  CPU:  340.834
  Cycle:    227 Energy:     -7726.527822  Gnorm:      0.000436  CPU:  342.226
  Cycle:    228 Energy:     -7726.527825  Gnorm:      0.000381  CPU:  343.618
  Cycle:    229 Energy:     -7726.527827  Gnorm:      0.000477  CPU:  345.010
  Cycle:    230 Energy:     -7726.527829  Gnorm:      0.000377  CPU:  346.402
  Cycle:    231 Energy:     -7726.527831  Gnorm:      0.000506  CPU:  347.943
  ** Hessian calculated **
  Cycle:    232 Energy:     -7726.527833  Gnorm:      0.000373  CPU:  350.204
  Cycle:    233 Energy:     -7726.527836  Gnorm:      0.000476  CPU:  351.595
  Cycle:    234 Energy:     -7726.527838  Gnorm:      0.000380  CPU:  353.145
  Cycle:    235 Energy:     -7726.527841  Gnorm:      0.000436  CPU:  354.537
  Cycle:    236 Energy:     -7726.527843  Gnorm:      0.000359  CPU:  355.928
  Cycle:    237 Energy:     -7726.527846  Gnorm:      0.000441  CPU:  357.320
  Cycle:    238 Energy:     -7726.527848  Gnorm:      0.000371  CPU:  358.713
  Cycle:    239 Energy:     -7726.527851  Gnorm:      0.000436  CPU:  360.105
  Cycle:    240 Energy:     -7726.527854  Gnorm:      0.000436  CPU:  361.497
  Cycle:    241 Energy:     -7726.527857  Gnorm:      0.000704  CPU:  362.889
  ** Hessian calculated **
  Cycle:    242 Energy:     -7726.527861  Gnorm:      0.000431  CPU:  365.134
  Cycle:    243 Energy:     -7726.527864  Gnorm:      0.000436  CPU:  366.526
  Cycle:    244 Energy:     -7726.527867  Gnorm:      0.000371  CPU:  367.918
  Cycle:    245 Energy:     -7726.527869  Gnorm:      0.000440  CPU:  369.460
  Cycle:    246 Energy:     -7726.527872  Gnorm:      0.000359  CPU:  370.852
  Cycle:    247 Energy:     -7726.527874  Gnorm:      0.000436  CPU:  372.244
  Cycle:    248 Energy:     -7726.527877  Gnorm:      0.000381  CPU:  373.636
  Cycle:    249 Energy:     -7726.527879  Gnorm:      0.000477  CPU:  375.170
  Cycle:    250 Energy:     -7726.527881  Gnorm:      0.000377  CPU:  376.562
  Cycle:    251 Energy:     -7726.527883  Gnorm:      0.000506  CPU:  377.954
  ** Hessian calculated **
  Cycle:    252 Energy:     -7726.527886  Gnorm:      0.000373  CPU:  380.199
  Cycle:    253 Energy:     -7726.527888  Gnorm:      0.000478  CPU:  381.591
  Cycle:    254 Energy:     -7726.527890  Gnorm:      0.000382  CPU:  382.983
  Cycle:    255 Energy:     -7726.527893  Gnorm:      0.000436  CPU:  384.375
  Cycle:    256 Energy:     -7726.527895  Gnorm:      0.000360  CPU:  385.767
  Cycle:    257 Energy:     -7726.527898  Gnorm:      0.000443  CPU:  387.262
  Cycle:    258 Energy:     -7726.527900  Gnorm:      0.000371  CPU:  388.653
  Cycle:    259 Energy:     -7726.527903  Gnorm:      0.000438  CPU:  390.045
  Cycle:    260 Energy:     -7726.527906  Gnorm:      0.000437  CPU:  391.437
  Cycle:    261 Energy:     -7726.527910  Gnorm:      0.000705  CPU:  392.965
  ** Hessian calculated **
  Cycle:    262 Energy:     -7726.527913  Gnorm:      0.000433  CPU:  395.213
  Cycle:    263 Energy:     -7726.527916  Gnorm:      0.000437  CPU:  396.605
  Cycle:    264 Energy:     -7726.527919  Gnorm:      0.000371  CPU:  398.164
  Cycle:    265 Energy:     -7726.527921  Gnorm:      0.000442  CPU:  399.556
  Cycle:    266 Energy:     -7726.527924  Gnorm:      0.000360  CPU:  400.948
  Cycle:    267 Energy:     -7726.527927  Gnorm:      0.000438  CPU:  402.340
  Cycle:    268 Energy:     -7726.527929  Gnorm:      0.000382  CPU:  403.732
  Cycle:    269 Energy:     -7726.527932  Gnorm:      0.000478  CPU:  405.124
  Cycle:    270 Energy:     -7726.527934  Gnorm:      0.000378  CPU:  406.516
  Cycle:    271 Energy:     -7726.527936  Gnorm:      0.000508  CPU:  407.908
  ** Hessian calculated **
  Cycle:    272 Energy:     -7726.527938  Gnorm:      0.000374  CPU:  410.154
  Cycle:    273 Energy:     -7726.527940  Gnorm:      0.000481  CPU:  411.546
  Cycle:    274 Energy:     -7726.527943  Gnorm:      0.000384  CPU:  412.938
  Cycle:    275 Energy:     -7726.527945  Gnorm:      0.000441  CPU:  414.421
  Cycle:    276 Energy:     -7726.527948  Gnorm:      0.000361  CPU:  415.813
  Cycle:    277 Energy:     -7726.527950  Gnorm:      0.000445  CPU:  417.205
  Cycle:    278 Energy:     -7726.527953  Gnorm:      0.000373  CPU:  418.597
  Cycle:    279 Energy:     -7726.527956  Gnorm:      0.000440  CPU:  420.075
  Cycle:    280 Energy:     -7726.527959  Gnorm:      0.000439  CPU:  421.466
  Cycle:    281 Energy:     -7726.527962  Gnorm:      0.000710  CPU:  422.858
  ** Hessian calculated **
  Cycle:    282 Energy:     -7726.527966  Gnorm:      0.000434  CPU:  425.103
  Cycle:    283 Energy:     -7726.527969  Gnorm:      0.000438  CPU:  426.495
  Cycle:    284 Energy:     -7726.527972  Gnorm:      0.000373  CPU:  427.887
  Cycle:    285 Energy:     -7726.527974  Gnorm:      0.000443  CPU:  429.279
  Cycle:    286 Energy:     -7726.527977  Gnorm:      0.000362  CPU:  430.671
  Cycle:    287 Energy:     -7726.527980  Gnorm:      0.000443  CPU:  432.217
  Cycle:    288 Energy:     -7726.527982  Gnorm:      0.000384  CPU:  433.609
  Cycle:    289 Energy:     -7726.527985  Gnorm:      0.000482  CPU:  435.001
  Cycle:    290 Energy:     -7726.527987  Gnorm:      0.000380  CPU:  436.392
  Cycle:    291 Energy:     -7726.527989  Gnorm:      0.000511  CPU:  437.952
  ** Hessian calculated **
  Cycle:    292 Energy:     -7726.527991  Gnorm:      0.000377  CPU:  440.197
  Cycle:    293 Energy:     -7726.527994  Gnorm:      0.000482  CPU:  441.590
  Cycle:    294 Energy:     -7726.527996  Gnorm:      0.000385  CPU:  443.126
  Cycle:    295 Energy:     -7726.527999  Gnorm:      0.000445  CPU:  444.517
  Cycle:    296 Energy:     -7726.528001  Gnorm:      0.000364  CPU:  445.909
  Cycle:    297 Energy:     -7726.528004  Gnorm:      0.000448  CPU:  447.302
  Cycle:    298 Energy:     -7726.528006  Gnorm:      0.000376  CPU:  448.694
  Cycle:    299 Energy:     -7726.528009  Gnorm:      0.000443  CPU:  450.085
  Cycle:    300 Energy:     -7726.528012  Gnorm:      0.000442  CPU:  451.477
  Cycle:    301 Energy:     -7726.528016  Gnorm:      0.000716  CPU:  452.869
  ** Hessian calculated **
  Cycle:    302 Energy:     -7726.528020  Gnorm:      0.000438  CPU:  455.115
  Cycle:    303 Energy:     -7726.528023  Gnorm:      0.000443  CPU:  456.507
  Cycle:    304 Energy:     -7726.528026  Gnorm:      0.000376  CPU:  457.899
  Cycle:    305 Energy:     -7726.528028  Gnorm:      0.000448  CPU:  459.441
  Cycle:    306 Energy:     -7726.528031  Gnorm:      0.000366  CPU:  460.832
  Cycle:    307 Energy:     -7726.528034  Gnorm:      0.000448  CPU:  462.224
  Cycle:    308 Energy:     -7726.528036  Gnorm:      0.000388  CPU:  463.616
  Cycle:    309 Energy:     -7726.528039  Gnorm:      0.000486  CPU:  465.173
  Cycle:    310 Energy:     -7726.528041  Gnorm:      0.000384  CPU:  466.565
  Cycle:    311 Energy:     -7726.528043  Gnorm:      0.000515  CPU:  467.956
  ** Hessian calculated **
  Cycle:    312 Energy:     -7726.528045  Gnorm:      0.000380  CPU:  470.202
  Cycle:    313 Energy:     -7726.528048  Gnorm:      0.000485  CPU:  471.594
  Cycle:    314 Energy:     -7726.528050  Gnorm:      0.000390  CPU:  472.985
  Cycle:    315 Energy:     -7726.528053  Gnorm:      0.000450  CPU:  474.377
  Cycle:    316 Energy:     -7726.528055  Gnorm:      0.000369  CPU:  475.769
  Cycle:    317 Energy:     -7726.528058  Gnorm:      0.000454  CPU:  477.321
  Cycle:    318 Energy:     -7726.528061  Gnorm:      0.000380  CPU:  478.713
  Cycle:    319 Energy:     -7726.528064  Gnorm:      0.000448  CPU:  480.105
  Cycle:    320 Energy:     -7726.528067  Gnorm:      0.000446  CPU:  481.497
  Cycle:    321 Energy:     -7726.528071  Gnorm:      0.000724  CPU:  483.037
  ** Hessian calculated **
  Cycle:    322 Energy:     -7726.528075  Gnorm:      0.000442  CPU:  485.297
  Cycle:    323 Energy:     -7726.528078  Gnorm:      0.000448  CPU:  486.689
  Cycle:    324 Energy:     -7726.528081  Gnorm:      0.000380  CPU:  488.237
  Cycle:    325 Energy:     -7726.528083  Gnorm:      0.000454  CPU:  489.629
  Cycle:    326 Energy:     -7726.528086  Gnorm:      0.000371  CPU:  491.021
  Cycle:    327 Energy:     -7726.528089  Gnorm:      0.000452  CPU:  492.413
  Cycle:    328 Energy:     -7726.528091  Gnorm:      0.000392  CPU:  493.805
  Cycle:    329 Energy:     -7726.528094  Gnorm:      0.000490  CPU:  495.197
  Cycle:    330 Energy:     -7726.528096  Gnorm:      0.000388  CPU:  496.589
  Cycle:    331 Energy:     -7726.528099  Gnorm:      0.000520  CPU:  497.981
  ** Hessian calculated **
  Cycle:    332 Energy:     -7726.528101  Gnorm:      0.000382  CPU:  500.226
  Cycle:    333 Energy:     -7726.528103  Gnorm:      0.000490  CPU:  501.618
  Cycle:    334 Energy:     -7726.528106  Gnorm:      0.000393  CPU:  503.010
  Cycle:    335 Energy:     -7726.528109  Gnorm:      0.000453  CPU:  504.561
  Cycle:    336 Energy:     -7726.528111  Gnorm:      0.000374  CPU:  505.953
  Cycle:    337 Energy:     -7726.528114  Gnorm:      0.000458  CPU:  507.345
  Cycle:    338 Energy:     -7726.528117  Gnorm:      0.000385  CPU:  508.737
  Cycle:    339 Energy:     -7726.528120  Gnorm:      0.000454  CPU:  510.242
  Cycle:    340 Energy:     -7726.528123  Gnorm:      0.000451  CPU:  511.634
  Cycle:    341 Energy:     -7726.528127  Gnorm:      0.000736  CPU:  513.026
  ** Hessian calculated **
  Cycle:    342 Energy:     -7726.528131  Gnorm:      0.000447  CPU:  515.271
  Cycle:    343 Energy:     -7726.528134  Gnorm:      0.000455  CPU:  516.664
  Cycle:    344 Energy:     -7726.528137  Gnorm:      0.000385  CPU:  518.057
  Cycle:    345 Energy:     -7726.528140  Gnorm:      0.000461  CPU:  519.449
  Cycle:    346 Energy:     -7726.528142  Gnorm:      0.000376  CPU:  520.841
  Cycle:    347 Energy:     -7726.528145  Gnorm:      0.000457  CPU:  522.233
  Cycle:    348 Energy:     -7726.528148  Gnorm:      0.000398  CPU:  523.625
  Cycle:    349 Energy:     -7726.528151  Gnorm:      0.000495  CPU:  525.017
  Cycle:    350 Energy:     -7726.528153  Gnorm:      0.000393  CPU:  526.409
  Cycle:    351 Energy:     -7726.528155  Gnorm:      0.000526  CPU:  527.940
  ** Hessian calculated **
  Cycle:    352 Energy:     -7726.528158  Gnorm:      0.000387  CPU:  530.201
  Cycle:    353 Energy:     -7726.528160  Gnorm:      0.000496  CPU:  531.593
  Cycle:    354 Energy:     -7726.528163  Gnorm:      0.000398  CPU:  533.124
  Cycle:    355 Energy:     -7726.528166  Gnorm:      0.000459  CPU:  534.516
  Cycle:    356 Energy:     -7726.528168  Gnorm:      0.000380  CPU:  535.908
  Cycle:    357 Energy:     -7726.528171  Gnorm:      0.000466  CPU:  537.300
  Cycle:    358 Energy:     -7726.528174  Gnorm:      0.000391  CPU:  538.692
  Cycle:    359 Energy:     -7726.528177  Gnorm:      0.000463  CPU:  540.084
  Cycle:    360 Energy:     -7726.528180  Gnorm:      0.000456  CPU:  541.476
  Cycle:    361 Energy:     -7726.528184  Gnorm:      0.000749  CPU:  542.868
  ** Hessian calculated **
  Cycle:    362 Energy:     -7726.528189  Gnorm:      0.000453  CPU:  545.113
  Cycle:    363 Energy:     -7726.528192  Gnorm:      0.000463  CPU:  546.505
  Cycle:    364 Energy:     -7726.528195  Gnorm:      0.000391  CPU:  547.897
  Cycle:    365 Energy:     -7726.528198  Gnorm:      0.000469  CPU:  549.429
  Cycle:    366 Energy:     -7726.528201  Gnorm:      0.000382  CPU:  550.821
  Cycle:    367 Energy:     -7726.528203  Gnorm:      0.000463  CPU:  552.213
  Cycle:    368 Energy:     -7726.528206  Gnorm:      0.000403  CPU:  553.605
  Cycle:    369 Energy:     -7726.528209  Gnorm:      0.000501  CPU:  554.997
  Cycle:    370 Energy:     -7726.528212  Gnorm:      0.000399  CPU:  556.389
  Cycle:    371 Energy:     -7726.528214  Gnorm:      0.000533  CPU:  557.781
  ** Hessian calculated **
  Cycle:    372 Energy:     -7726.528216  Gnorm:      0.000396  CPU:  560.027
  Cycle:    373 Energy:     -7726.528219  Gnorm:      0.000501  CPU:  561.419
  Cycle:    374 Energy:     -7726.528222  Gnorm:      0.000404  CPU:  562.811
  Cycle:    375 Energy:     -7726.528224  Gnorm:      0.000467  CPU:  564.203
  Cycle:    376 Energy:     -7726.528227  Gnorm:      0.000386  CPU:  565.595
  Cycle:    377 Energy:     -7726.528230  Gnorm:      0.000478  CPU:  567.128
  Cycle:    378 Energy:     -7726.528233  Gnorm:      0.000397  CPU:  568.519
  Cycle:    379 Energy:     -7726.528236  Gnorm:      0.000471  CPU:  569.911
  Cycle:    380 Energy:     -7726.528239  Gnorm:      0.000463  CPU:  571.303
  Cycle:    381 Energy:     -7726.528244  Gnorm:      0.000761  CPU:  572.695
  ** Hessian calculated **
  Cycle:    382 Energy:     -7726.528248  Gnorm:      0.000461  CPU:  574.941
  Cycle:    383 Energy:     -7726.528251  Gnorm:      0.000472  CPU:  576.333
  Cycle:    384 Energy:     -7726.528255  Gnorm:      0.000400  CPU:  577.884
  Cycle:    385 Energy:     -7726.528257  Gnorm:      0.000479  CPU:  579.276
  Cycle:    386 Energy:     -7726.528261  Gnorm:      0.000389  CPU:  580.667
  Cycle:    387 Energy:     -7726.528263  Gnorm:      0.000472  CPU:  582.059
  Cycle:    388 Energy:     -7726.528266  Gnorm:      0.000408  CPU:  583.451
  Cycle:    389 Energy:     -7726.528269  Gnorm:      0.000509  CPU:  584.843
  Cycle:    390 Energy:     -7726.528272  Gnorm:      0.000406  CPU:  586.235
  Cycle:    391 Energy:     -7726.528274  Gnorm:      0.000541  CPU:  587.627
  ** Hessian calculated **
  Cycle:    392 Energy:     -7726.528277  Gnorm:      0.000402  CPU:  590.030
  Cycle:    393 Energy:     -7726.528279  Gnorm:      0.000510  CPU:  591.422
  Cycle:    394 Energy:     -7726.528282  Gnorm:      0.000410  CPU:  592.814
  Cycle:    395 Energy:     -7726.528285  Gnorm:      0.000475  CPU:  594.305
  Cycle:    396 Energy:     -7726.528288  Gnorm:      0.000393  CPU:  595.697
  Cycle:    397 Energy:     -7726.528291  Gnorm:      0.000486  CPU:  597.089
  Cycle:    398 Energy:     -7726.528294  Gnorm:      0.000405  CPU:  598.481
  Cycle:    399 Energy:     -7726.528298  Gnorm:      0.000479  CPU:  600.013
  Cycle:    400 Energy:     -7726.528301  Gnorm:      0.000471  CPU:  601.405
  Cycle:    401 Energy:     -7726.528305  Gnorm:      0.000776  CPU:  602.797
  ** Hessian calculated **
  Cycle:    402 Energy:     -7726.528310  Gnorm:      0.000469  CPU:  605.042
  Cycle:    403 Energy:     -7726.528313  Gnorm:      0.000481  CPU:  606.434
  Cycle:    404 Energy:     -7726.528317  Gnorm:      0.000407  CPU:  607.826
  Cycle:    405 Energy:     -7726.528320  Gnorm:      0.000489  CPU:  609.218
  Cycle:    406 Energy:     -7726.528323  Gnorm:      0.000397  CPU:  610.610
  Cycle:    407 Energy:     -7726.528326  Gnorm:      0.000481  CPU:  612.180
  Cycle:    408 Energy:     -7726.528329  Gnorm:      0.000416  CPU:  613.572
  Cycle:    409 Energy:     -7726.528332  Gnorm:      0.000517  CPU:  614.964
  Cycle:    410 Energy:     -7726.528335  Gnorm:      0.000413  CPU:  616.356
  Cycle:    411 Energy:     -7726.528337  Gnorm:      0.000550  CPU:  617.748
  ** Hessian calculated **
  Cycle:    412 Energy:     -7726.528340  Gnorm:      0.000410  CPU:  619.993
  Cycle:    413 Energy:     -7726.528342  Gnorm:      0.000517  CPU:  621.385
  Cycle:    414 Energy:     -7726.528345  Gnorm:      0.000418  CPU:  622.945
  Cycle:    415 Energy:     -7726.528348  Gnorm:      0.000485  CPU:  624.337
  Cycle:    416 Energy:     -7726.528351  Gnorm:      0.000401  CPU:  625.729
  Cycle:    417 Energy:     -7726.528355  Gnorm:      0.000496  CPU:  627.121
  Cycle:    418 Energy:     -7726.528358  Gnorm:      0.000412  CPU:  628.513
  Cycle:    419 Energy:     -7726.528361  Gnorm:      0.000490  CPU:  629.905
  Cycle:    420 Energy:     -7726.528365  Gnorm:      0.000480  CPU:  631.297
  Cycle:    421 Energy:     -7726.528369  Gnorm:      0.000792  CPU:  632.689
  ** Hessian calculated **
  Cycle:    422 Energy:     -7726.528374  Gnorm:      0.000478  CPU:  635.113
  Cycle:    423 Energy:     -7726.528377  Gnorm:      0.000492  CPU:  636.505
  Cycle:    424 Energy:     -7726.528381  Gnorm:      0.000414  CPU:  637.897
  Cycle:    425 Energy:     -7726.528384  Gnorm:      0.000498  CPU:  639.444
  Cycle:    426 Energy:     -7726.528387  Gnorm:      0.000406  CPU:  640.836
  Cycle:    427 Energy:     -7726.528390  Gnorm:      0.000491  CPU:  642.228
  Cycle:    428 Energy:     -7726.528394  Gnorm:      0.000425  CPU:  643.620
  Cycle:    429 Energy:     -7726.528397  Gnorm:      0.000526  CPU:  645.152
  Cycle:    430 Energy:     -7726.528400  Gnorm:      0.000421  CPU:  646.544
  Cycle:    431 Energy:     -7726.528402  Gnorm:      0.000561  CPU:  647.936
  ** Hessian calculated **
  Cycle:    432 Energy:     -7726.528405  Gnorm:      0.000418  CPU:  650.181
  Cycle:    433 Energy:     -7726.528408  Gnorm:      0.000527  CPU:  651.573
  Cycle:    434 Energy:     -7726.528411  Gnorm:      0.000426  CPU:  652.965
  Cycle:    435 Energy:     -7726.528414  Gnorm:      0.000496  CPU:  654.356
  Cycle:    436 Energy:     -7726.528417  Gnorm:      0.000409  CPU:  655.748
  Cycle:    437 Energy:     -7726.528421  Gnorm:      0.000507  CPU:  657.268
  Cycle:    438 Energy:     -7726.528424  Gnorm:      0.000420  CPU:  658.660
  Cycle:    439 Energy:     -7726.528427  Gnorm:      0.000500  CPU:  660.052
  Cycle:    440 Energy:     -7726.528431  Gnorm:      0.000490  CPU:  661.444
  Cycle:    441 Energy:     -7726.528436  Gnorm:      0.000808  CPU:  662.974
  ** Hessian calculated **
  Cycle:    442 Energy:     -7726.528441  Gnorm:      0.000488  CPU:  665.219
  Cycle:    443 Energy:     -7726.528444  Gnorm:      0.000503  CPU:  666.611
  Cycle:    444 Energy:     -7726.528448  Gnorm:      0.000424  CPU:  668.157
  Cycle:    445 Energy:     -7726.528451  Gnorm:      0.000509  CPU:  669.548
  Cycle:    446 Energy:     -7726.528455  Gnorm:      0.000415  CPU:  670.940
  Cycle:    447 Energy:     -7726.528458  Gnorm:      0.000502  CPU:  672.332
  Cycle:    448 Energy:     -7726.528461  Gnorm:      0.000434  CPU:  673.724
  Cycle:    449 Energy:     -7726.528464  Gnorm:      0.000536  CPU:  675.116
  Cycle:    450 Energy:     -7726.528467  Gnorm:      0.000430  CPU:  676.508
  Cycle:    451 Energy:     -7726.528470  Gnorm:      0.000573  CPU:  677.900
  ** Hessian calculated **
  Cycle:    452 Energy:     -7726.528473  Gnorm:      0.000427  CPU:  680.145
  Cycle:    453 Energy:     -7726.528476  Gnorm:      0.000537  CPU:  681.537
  Cycle:    454 Energy:     -7726.528479  Gnorm:      0.000436  CPU:  682.929
  Cycle:    455 Energy:     -7726.528482  Gnorm:      0.000507  CPU:  684.473
  Cycle:    456 Energy:     -7726.528486  Gnorm:      0.000419  CPU:  685.865
  Cycle:    457 Energy:     -7726.528489  Gnorm:      0.000519  CPU:  687.256
  Cycle:    458 Energy:     -7726.528493  Gnorm:      0.000430  CPU:  688.648
  Cycle:    459 Energy:     -7726.528496  Gnorm:      0.000512  CPU:  690.188
  Cycle:    460 Energy:     -7726.528500  Gnorm:      0.000501  CPU:  691.580
  Cycle:    461 Energy:     -7726.528505  Gnorm:      0.000827  CPU:  692.972
  ** Hessian calculated **
  Cycle:    462 Energy:     -7726.528510  Gnorm:      0.000499  CPU:  695.217
  Cycle:    463 Energy:     -7726.528514  Gnorm:      0.000514  CPU:  696.609
  Cycle:    464 Energy:     -7726.528518  Gnorm:      0.000433  CPU:  698.001
  Cycle:    465 Energy:     -7726.528521  Gnorm:      0.000522  CPU:  699.393
  Cycle:    466 Energy:     -7726.528525  Gnorm:      0.000425  CPU:  700.785
  Cycle:    467 Energy:     -7726.528528  Gnorm:      0.000514  CPU:  702.313
  Cycle:    468 Energy:     -7726.528532  Gnorm:      0.000444  CPU:  703.706
  Cycle:    469 Energy:     -7726.528535  Gnorm:      0.000548  CPU:  705.098
  Cycle:    470 Energy:     -7726.528538  Gnorm:      0.000440  CPU:  706.490
  Cycle:    471 Energy:     -7726.528541  Gnorm:      0.000585  CPU:  708.044
  ** Hessian calculated **
  Cycle:    472 Energy:     -7726.528544  Gnorm:      0.000436  CPU:  710.292
  Cycle:    473 Energy:     -7726.528547  Gnorm:      0.000548  CPU:  711.684
  Cycle:    474 Energy:     -7726.528551  Gnorm:      0.000445  CPU:  713.209
  Cycle:    475 Energy:     -7726.528554  Gnorm:      0.000519  CPU:  714.601
  Cycle:    476 Energy:     -7726.528557  Gnorm:      0.000430  CPU:  715.993
  Cycle:    477 Energy:     -7726.528561  Gnorm:      0.000531  CPU:  717.385
  Cycle:    478 Energy:     -7726.528565  Gnorm:      0.000440  CPU:  718.777
  Cycle:    479 Energy:     -7726.528569  Gnorm:      0.000525  CPU:  720.169
  Cycle:    480 Energy:     -7726.528573  Gnorm:      0.000513  CPU:  721.561
  Cycle:    481 Energy:     -7726.528578  Gnorm:      0.000848  CPU:  722.953
  ** Hessian calculated **
  Cycle:    482 Energy:     -7726.528583  Gnorm:      0.000512  CPU:  725.198
  Cycle:    483 Energy:     -7726.528587  Gnorm:      0.000526  CPU:  726.591
  Cycle:    484 Energy:     -7726.528591  Gnorm:      0.000443  CPU:  727.983
  Cycle:    485 Energy:     -7726.528595  Gnorm:      0.000534  CPU:  729.541
  Cycle:    486 Energy:     -7726.528599  Gnorm:      0.000437  CPU:  730.933
  Cycle:    487 Energy:     -7726.528602  Gnorm:      0.000527  CPU:  732.325
  Cycle:    488 Energy:     -7726.528606  Gnorm:      0.000454  CPU:  733.717
  Cycle:    489 Energy:     -7726.528609  Gnorm:      0.000561  CPU:  735.109
  Cycle:    490 Energy:     -7726.528613  Gnorm:      0.000450  CPU:  736.501
  Cycle:    491 Energy:     -7726.528616  Gnorm:      0.000599  CPU:  737.893
  ** Hessian calculated **
  Cycle:    492 Energy:     -7726.528618  Gnorm:      0.000447  CPU:  740.138
  Cycle:    493 Energy:     -7726.528622  Gnorm:      0.000561  CPU:  741.530
  Cycle:    494 Energy:     -7726.528625  Gnorm:      0.000457  CPU:  742.922
  Cycle:    495 Energy:     -7726.528629  Gnorm:      0.000532  CPU:  744.314
  Cycle:    496 Energy:     -7726.528633  Gnorm:      0.000441  CPU:  745.706
  Cycle:    497 Energy:     -7726.528637  Gnorm:      0.000545  CPU:  747.257
  Cycle:    498 Energy:     -7726.528640  Gnorm:      0.000451  CPU:  748.649
  Cycle:    499 Energy:     -7726.528644  Gnorm:      0.000538  CPU:  750.041
  Cycle:    500 Energy:     -7726.528648  Gnorm:      0.000526  CPU:  751.433
  Cycle:    501 Energy:     -7726.528654  Gnorm:      0.000868  CPU:  752.964
  ** Hessian calculated **
  Cycle:    502 Energy:     -7726.528660  Gnorm:      0.000524  CPU:  755.214
  Cycle:    503 Energy:     -7726.528664  Gnorm:      0.000540  CPU:  756.606
  Cycle:    504 Energy:     -7726.528668  Gnorm:      0.000454  CPU:  758.097
  Cycle:    505 Energy:     -7726.528672  Gnorm:      0.000548  CPU:  759.489
  Cycle:    506 Energy:     -7726.528676  Gnorm:      0.000449  CPU:  760.881
  Cycle:    507 Energy:     -7726.528679  Gnorm:      0.000541  CPU:  762.273
  Cycle:    508 Energy:     -7726.528683  Gnorm:      0.000466  CPU:  763.812
  Cycle:    509 Energy:     -7726.528687  Gnorm:      0.000574  CPU:  765.203
  Cycle:    510 Energy:     -7726.528691  Gnorm:      0.000461  CPU:  766.595
  Cycle:    511 Energy:     -7726.528694  Gnorm:      0.000614  CPU:  767.987
  ** Hessian calculated **
  Cycle:    512 Energy:     -7726.528697  Gnorm:      0.000458  CPU:  770.232
  Cycle:    513 Energy:     -7726.528700  Gnorm:      0.000576  CPU:  771.624
  Cycle:    514 Energy:     -7726.528704  Gnorm:      0.000468  CPU:  773.016
  Cycle:    515 Energy:     -7726.528708  Gnorm:      0.000547  CPU:  774.553
  Cycle:    516 Energy:     -7726.528712  Gnorm:      0.000453  CPU:  775.945
  Cycle:    517 Energy:     -7726.528716  Gnorm:      0.000559  CPU:  777.337
  Cycle:    518 Energy:     -7726.528720  Gnorm:      0.000463  CPU:  778.729
  Cycle:    519 Energy:     -7726.528724  Gnorm:      0.000551  CPU:  780.285
  Cycle:    520 Energy:     -7726.528728  Gnorm:      0.000539  CPU:  781.676
  Cycle:    521 Energy:     -7726.528734  Gnorm:      0.000890  CPU:  783.068
  ** Hessian calculated **
  Cycle:    522 Energy:     -7726.528740  Gnorm:      0.000538  CPU:  785.313
  Cycle:    523 Energy:     -7726.528744  Gnorm:      0.000554  CPU:  786.705
  Cycle:    524 Energy:     -7726.528749  Gnorm:      0.000466  CPU:  788.097
  Cycle:    525 Energy:     -7726.528753  Gnorm:      0.000562  CPU:  789.489
  Cycle:    526 Energy:     -7726.528757  Gnorm:      0.000461  CPU:  790.881
  Cycle:    527 Energy:     -7726.528761  Gnorm:      0.000556  CPU:  792.273
  Cycle:    528 Energy:     -7726.528765  Gnorm:      0.000479  CPU:  793.665
  Cycle:    529 Energy:     -7726.528769  Gnorm:      0.000589  CPU:  795.057
  Cycle:    530 Energy:     -7726.528773  Gnorm:      0.000474  CPU:  796.448
  Cycle:    531 Energy:     -7726.528776  Gnorm:      0.000631  CPU:  798.017
  ** Hessian calculated **
  Cycle:    532 Energy:     -7726.528779  Gnorm:      0.000470  CPU:  800.262
  Cycle:    533 Energy:     -7726.528783  Gnorm:      0.000591  CPU:  801.655
  Cycle:    534 Energy:     -7726.528787  Gnorm:      0.000481  CPU:  803.216
  Cycle:    535 Energy:     -7726.528791  Gnorm:      0.000563  CPU:  804.607
  Cycle:    536 Energy:     -7726.528795  Gnorm:      0.000466  CPU:  805.999
  Cycle:    537 Energy:     -7726.528799  Gnorm:      0.000574  CPU:  807.391
  Cycle:    538 Energy:     -7726.528803  Gnorm:      0.000475  CPU:  808.783
  Cycle:    539 Energy:     -7726.528808  Gnorm:      0.000567  CPU:  810.175
  Cycle:    540 Energy:     -7726.528812  Gnorm:      0.000553  CPU:  811.567
  Cycle:    541 Energy:     -7726.528819  Gnorm:      0.000914  CPU:  812.959
  ** Hessian calculated **
  Cycle:    542 Energy:     -7726.528825  Gnorm:      0.000552  CPU:  815.205
  Cycle:    543 Energy:     -7726.528829  Gnorm:      0.000570  CPU:  816.596
  Cycle:    544 Energy:     -7726.528834  Gnorm:      0.000479  CPU:  817.988
  Cycle:    545 Energy:     -7726.528838  Gnorm:      0.000579  CPU:  819.529
  Cycle:    546 Energy:     -7726.528843  Gnorm:      0.000474  CPU:  820.920
  Cycle:    547 Energy:     -7726.528847  Gnorm:      0.000572  CPU:  822.312
  Cycle:    548 Energy:     -7726.528851  Gnorm:      0.000492  CPU:  823.704
  Cycle:    549 Energy:     -7726.528855  Gnorm:      0.000604  CPU:  825.260
  Cycle:    550 Energy:     -7726.528859  Gnorm:      0.000487  CPU:  826.652
  Cycle:    551 Energy:     -7726.528862  Gnorm:      0.000647  CPU:  828.044
  ** Hessian calculated **
  Cycle:    552 Energy:     -7726.528866  Gnorm:      0.000483  CPU:  830.289
  Cycle:    553 Energy:     -7726.528870  Gnorm:      0.000607  CPU:  831.681
  Cycle:    554 Energy:     -7726.528874  Gnorm:      0.000495  CPU:  833.073
  Cycle:    555 Energy:     -7726.528878  Gnorm:      0.000579  CPU:  834.465
  Cycle:    556 Energy:     -7726.528882  Gnorm:      0.000480  CPU:  835.857
  Cycle:    557 Energy:     -7726.528887  Gnorm:      0.000591  CPU:  837.249
  Cycle:    558 Energy:     -7726.528891  Gnorm:      0.000488  CPU:  838.641
  Cycle:    559 Energy:     -7726.528896  Gnorm:      0.000583  CPU:  840.033
  Cycle:    560 Energy:     -7726.528901  Gnorm:      0.000569  CPU:  841.425
  Cycle:    561 Energy:     -7726.528908  Gnorm:      0.000941  CPU:  842.969
  ** Hessian calculated **
  Cycle:    562 Energy:     -7726.528914  Gnorm:      0.000567  CPU:  845.215
  Cycle:    563 Energy:     -7726.528919  Gnorm:      0.000585  CPU:  846.607
[...]
     59 Si    c       0.021782     -0.027007      0.026467      0.000000
     60 Si    c       0.050336     -0.008773      0.075153      0.000000
     61 O2    c       0.027572     -0.056180     -0.011019      0.000000
     62 O2    c       0.025399     -0.036707      0.013275      0.000000
     63 O2    c      -0.004016     -0.012737      0.012232      0.000000
     64 O2    c       0.030805     -0.015773      0.018703      0.000000
     65 O2    c      -0.003967     -0.007711      0.016194      0.000000
     66 O2    c       0.010764      0.015412     -0.005695      0.000000
     67 O2    c       0.008673     -0.025757      0.101689      0.000000
     68 O2    c      -0.010469      0.001435      0.029529      0.000000
     69 O2    c       0.054795      0.003507     -0.056684      0.000000
     70 O2    c       0.018804      0.018134      0.013876      0.000000
     71 O2    c      -0.007358     -0.010860      0.048093      0.000000
     72 O2    c      -0.025347      0.001879     -0.029106      0.000000
     73 O3    c      -0.111165     -0.059259     -0.087545      0.000000
     74 O2    c       0.011644     -0.010876      0.003848      0.000000
     75 O2    c      -0.017183      0.025655      0.062643      0.000000
     76 O2    c       0.045083     -0.018609     -0.027627      0.000000
     77 O2    c       0.015108      0.013563     -0.039078      0.000000
     78 O2    c      -0.022581      0.008139     -0.015872      0.000000
     79 O2    c       0.003316     -0.010413      0.005594      0.000000
     80 O2    c       0.002996     -0.005205     -0.013190      0.000000
     81 O2    c      -0.002841     -0.005351     -0.005510      0.000000
     82 O2    c       0.038691     -0.020991     -0.013556      0.000000
     83 O2    c       0.045096      0.006087      0.001895      0.000000
     84 O2    c       0.009199     -0.015596     -0.022580      0.000000
     85 O2    c       0.033100     -0.016288      0.033856      0.000000
     86 O3    c       0.008270     -0.064120      0.010223      0.000000
     87 O2    c      -0.000493      0.014211      0.015853      0.000000
     88 O2    c       0.038192     -0.025610      0.030320      0.000000
     89 O2    c      -0.007442      0.027014     -0.001663      0.000000
     90 O2    c       0.033721      0.004749      0.016122      0.000000
     91 O2    c       0.023129     -0.025355      0.017509      0.000000
     92 O2    c       0.017547     -0.006921      0.015831      0.000000
     93 O2    c       0.028764     -0.008882      0.027021      0.000000
     94 O2    c      -0.009296      0.016731      0.006630      0.000000
     95 O2    c       0.004866      0.003128      0.035849      0.000000
     96 O2    c       0.015685     -0.014523      0.046233      0.000000
     97 O2    c      -0.009376     -0.002762     -0.055041      0.000000
     98 O2    c       0.036915     -0.050936     -0.046721      0.000000
     99 O2    c       0.026302      0.007547      0.009013      0.000000
    100 O2    c      -0.015337      0.006031     -0.002937      0.000000
    101 O2    c      -0.000341     -0.022182     -0.007007      0.000000
    102 O2    c      -0.041840     -0.001171      0.039295      0.000000
    103 O2    c       0.022162      0.020943     -0.023285      0.000000
    104 O2    c       0.016759     -0.002074      0.031739      0.000000
    105 O2    c      -0.002308      0.010339      0.031598      0.000000
    106 O2    c      -0.020433      0.018527     -0.058167      0.000000
    107 O3    c       0.040746     -0.026906      0.057970      0.000000
    108 O2    c      -0.004231     -0.014787      0.142409      0.000000
    109 O2    c       0.021452      0.003341      0.010861      0.000000
    110 O2    c       0.012663     -0.015213      0.020272      0.000000
    111 O2    c      -0.009679     -0.001611      0.099168      0.000000
    112 O2    c       0.012740      0.023344     -0.035865      0.000000
    113 O3    c       0.022703     -0.024197     -0.112798      0.000000
    114 O2    c       0.019198     -0.021407     -0.019834      0.000000
    115 O2    c       0.052118     -0.025847      0.080890      0.000000
    116 O2    c       0.000444     -0.003310      0.015758      0.000000
    117 O2    c       0.005773     -0.012015      0.004296      0.000000
    118 O2    c      -0.026175      0.044837      0.062311      0.000000
    119 O2    c       0.020132     -0.016779      0.020127      0.000000
    120 O2    c       0.096649     -0.051305      0.044886      0.000000
    121 O2    c      -0.023251      0.016934     -0.003778      0.000000
    122 O3    c      -0.010418      0.060239      0.119535      0.000000
    123 O2    c      -0.006686      0.015877     -0.003195      0.000000
    124 O2    c      -0.004800     -0.054421      0.000681      0.000000
    125 O2    c       0.033802      0.008087      0.002303      0.000000
    126 O2    c       0.030737     -0.016864      0.062918      0.000000
    127 O3    c       0.032711      0.022453      0.055631      0.000000
    128 O2    c       0.027297      0.008370     -0.000842      0.000000
    129 O2    c       0.034567     -0.010336      0.029336      0.000000
    130 O2    c      -0.012083      0.000477     -0.035819      0.000000
    131 O2    c      -0.004268      0.004635      0.045759      0.000000
    132 O2    c       0.003836      0.024559      0.014865      0.000000
    133 O2    c       0.026264      0.004091      0.064017      0.000000
    134 O2    c       0.012204      0.003458      0.013740      0.000000
    135 O2    c      -0.016083      0.009415     -0.000639      0.000000
    136 O2    c       0.022325     -0.006436      0.017383      0.000000
    137 O3    c       0.028493     -0.034196     -0.018830      0.000000
    138 O2    c      -0.023075      0.038653      0.129867      0.000000
    139 O1    c       0.008196     -0.028847      0.043447      0.000000
    140 O2    c       0.002188     -0.045232      0.022652      0.000000
    141 O2    c      -0.010212      0.004850     -0.007722      0.000000
    142 O2    c       0.026219     -0.000246     -0.007420      0.000000
    143 O2    c       0.012146      0.016444     -0.006130      0.000000
    144 O2    c       0.010071      0.012956     -0.019163      0.000000
    145 O2    c      -0.043351     -0.009127      0.017705      0.000000
    146 O2    c       0.016387      0.004706     -0.015034      0.000000
    147 O2    c       0.020088      0.009832      0.032598      0.000000
    148 O2    c       0.012876      0.011025      0.010531      0.000000
    149 O2    c       0.027153     -0.033456     -0.011251      0.000000
    150 O2    c      -0.006535     -0.022677      0.002919      0.000000
    151 O2    c      -0.001128      0.037565     -0.088506      0.000000
    152 O2    c       0.014764     -0.005234     -0.015873      0.000000
    153 O2    c      -0.026038     -0.000577     -0.033061      0.000000
    154 O2    c       0.042362     -0.064452      0.049608      0.000000
    155 O2    c       0.019795     -0.013689      0.068251      0.000000
    156 O2    c       0.032928     -0.006248      0.097211      0.000000
    157 O3    c       0.058228     -0.040141     -0.025507      0.000000
    158 O3    c       0.084688     -0.053421     -0.079618      0.000000
    159 O2    c      -0.015868     -0.003731     -0.007892      0.000000
    160 O2    c       0.030680     -0.007730     -0.024816      0.000000
    161 O2    c      -0.009641      0.028201     -0.009059      0.000000
    162 O2    c       0.007735      0.032138      0.051416      0.000000
    163 O2    c       0.036226     -0.034315      0.042323      0.000000
    164 O2    c      -0.012223      0.018733      0.010613      0.000000
    165 O2    c      -0.011486     -0.002890     -0.020584      0.000000
    166 O3    c      -0.068300      0.070223      0.094700      0.000000
    167 O2    c      -0.016603      0.010414     -0.004710      0.000000
    168 O2    c       0.040626      0.046094     -0.054723      0.000000
    169 O2    c       0.004475      0.020115     -0.033348      0.000000
    170 O2    c       0.009278      0.055170      0.013992      0.000000
    171 O2    c      -0.017221     -0.016281      0.028788      0.000000
    172 O2    c      -0.024697     -0.022860      0.005915      0.000000
    173 O2    c      -0.007594      0.000080     -0.016629      0.000000
    174 O2    c       0.001373     -0.006983     -0.041950      0.000000
    175 O2    c      -0.050005      0.003316      0.081466      0.000000
    176 O2    c       0.019422     -0.017373     -0.015415      0.000000
    177 O2    c       0.052363     -0.039597      0.029533      0.000000
    178 O2    c      -0.015253      0.014350     -0.008345      0.000000
    179 O2    c      -0.023945      0.066335      0.088691      0.000000
    180 O2    c      -0.053151      0.066501      0.029486      0.000000
    181 F     c      -0.000746      0.020209     -0.019046      0.000000
    182 F     c       0.007350     -0.006746      0.014537      0.000000
    183 F     c      -0.021589     -0.003521      0.007316      0.000000
    184 F     c      -0.000995     -0.002515     -0.013048      0.000000
    185 F     c       0.070577      0.034642     -0.014346      0.000000
    186 F     c       0.028005     -0.030067      0.023731      0.000000
    187 O2    s      -0.010364      0.001814      0.061481      0.000000
    188 O2    s      -0.001055      0.084974      0.118282      0.000000
    189 O2    s      -0.003395      0.028770      0.066168      0.000000
    190 O2    s      -0.052443      0.028684     -0.024702      0.000000
    191 O2    s       0.004454      0.038965      0.016873      0.000000
    192 O2    s       0.015908     -0.041301      0.073484      0.000000
    193 O2    s       0.061564     -0.033454      0.078759      0.000000
    194 O2    s       0.021740     -0.012254      0.039456      0.000000
    195 O2    s       0.054177      0.024720     -0.064815      0.000000
    196 O2    s       0.001579     -0.017284      0.048358      0.000000
    197 O2    s       0.023060     -0.006759      0.009176      0.000000
    198 O2    s       0.007598      0.007721     -0.006106      0.000000
    199 O3    s       0.090452      0.032974      0.028128      0.000000
    200 O2    s      -0.030397      0.015944      0.023443      0.000000
    201 O2    s       0.028241     -0.013476     -0.021930      0.000000
    202 O2    s      -0.045736      0.018555      0.042431      0.000000
    203 O2    s      -0.000283      0.002129      0.027723      0.000000
    204 O2    s       0.018000      0.000511      0.032385      0.000000
    205 O2    s       0.051237     -0.010264      0.067778      0.000000
    206 O2    s       0.062674     -0.018420     -0.010360      0.000000
    207 O2    s      -0.005108      0.022616      0.043856      0.000000
    208 O2    s      -0.038190      0.066191      0.008442      0.000000
    209 O2    s       0.001908     -0.022277     -0.007992      0.000000
    210 O2    s       0.053262     -0.034787     -0.004374      0.000000
    211 O2    s      -0.040498      0.038752      0.019855      0.000000
    212 O3    s       0.020180     -0.001156      0.157455      0.000000
    213 O2    s      -0.011781     -0.023376      0.022844      0.000000
    214 O2    s      -0.022635      0.015864     -0.009467      0.000000
    215 O2    s       0.007719     -0.022695     -0.023128      0.000000
    216 O2    s       0.031309     -0.001376     -0.044567      0.000000
    217 O2    s      -0.053259      0.077312      0.029099      0.000000
    218 O2    s      -0.020180      0.022429     -0.017667      0.000000
    219 O2    s      -0.055267      0.018916      0.003477      0.000000
    220 O2    s       0.000973      0.006156      0.026972      0.000000
    221 O2    s      -0.008906      0.018491      0.025446      0.000000
    222 O2    s      -0.061104      0.069622      0.013388      0.000000
    223 O2    s       0.021322     -0.051237     -0.102657      0.000000
    224 O2    s      -0.054600      0.056507      0.050690      0.000000
    225 O2    s      -0.034761     -0.013005     -0.026145      0.000000
    226 O2    s       0.029240      0.002483     -0.003183      0.000000
    227 O2    s       0.006728     -0.016153     -0.001030      0.000000
    228 O2    s       0.001740      0.021971      0.049535      0.000000
    229 O2    s       0.021917     -0.035046     -0.098679      0.000000
    230 O2    s      -0.015808     -0.008893      0.099134      0.000000
    231 O2    s       0.016097     -0.017105     -0.016919      0.000000
    232 O2    s       0.003781     -0.012198     -0.005713      0.000000
    233 O3    s      -0.031027      0.014897      0.014156      0.000000
    234 O2    s      -0.017808      0.044243      0.136338      0.000000
    235 O2    s       0.006552      0.004805      0.022180      0.000000
    236 O2    s      -0.020579      0.035124      0.034796      0.000000
    237 O2    s       0.021518     -0.013029      0.075300      0.000000
    238 O2    s      -0.013165     -0.038911      0.080679      0.000000
    239 O3    s       0.038426      0.075121     -0.068352      0.000000
    240 O2    s      -0.038234      0.030825      0.015683      0.000000
    241 O2    s      -0.015213     -0.003089      0.045577      0.000000
    242 O2    s       0.015852     -0.001860     -0.058617      0.000000
    243 O2    s      -0.021901      0.027379      0.004501      0.000000
    244 O2    s       0.022929     -0.074264     -0.125484      0.000000
    245 O2    s       0.019735     -0.026290      0.051216      0.000000
    246 O2    s       0.080686     -0.026380      0.149085      0.000000
    247 O2    s       0.075647     -0.029770      0.122043      0.000000
    248 O3    s       0.019164     -0.046448      0.162713      0.000000
    249 O2    s       0.004437     -0.030153      0.054394      0.000000
    250 O2    s       0.020316      0.035176      0.052690      0.000000
    251 O2    s       0.011798     -0.029650      0.000468      0.000000
    252 O2    s       0.019147     -0.062248      0.035738      0.000000
    253 O3    s       0.032928      0.017462      0.127828      0.000000
    254 O2    s      -0.070183      0.029456      0.077646      0.000000
    255 O2    s      -0.022242     -0.009629      0.023091      0.000000
    256 O2    s       0.033135     -0.008778      0.059346      0.000000
    257 O2    s       0.013093     -0.001122      0.030906      0.000000
    258 O2    s       0.030980      0.030434      0.039383      0.000000
    259 O2    s       0.019618     -0.034677     -0.022858      0.000000
    260 O2    s       0.010083     -0.052526      0.001215      0.000000
    261 O2    s       0.046125     -0.035228      0.068069      0.000000
    262 O2    s       0.005786     -0.045053     -0.004568      0.000000
    263 O3    s      -0.018298      0.060684     -0.000910      0.000000
    264 O2    s       0.006587      0.059176      0.147454      0.000000
    265 O1    s       0.019162      0.028508      0.158938      0.000000
    266 O2    s      -0.027356      0.095171      0.085617      0.000000
    267 O2    s      -0.025500      0.018738      0.038082      0.000000
    268 O2    s      -0.025884      0.004201     -0.024115      0.000000
    269 O2    s      -0.004481     -0.016122      0.035431      0.000000
    270 O2    s       0.043146      0.040260      0.025006      0.000000
    271 O2    s       0.051917      0.024718      0.000872      0.000000
    272 O2    s       0.036782     -0.044547      0.031453      0.000000
    273 O2    s      -0.024263     -0.010401     -0.027367      0.000000
    274 O2    s      -0.003034     -0.044637     -0.037396      0.000000
    275 O2    s      -0.060342      0.038048     -0.020907      0.000000
    276 O2    s       0.000087      0.006281      0.017225      0.000000
    277 O2    s       0.013941     -0.039722     -0.035958      0.000000
    278 O2    s       0.012648     -0.006140     -0.035463      0.000000
    279 O2    s       0.034060      0.006417     -0.014151      0.000000
    280 O2    s      -0.068700      0.085361      0.087223      0.000000
    281 O2    s      -0.017454      0.014920      0.017169      0.000000
    282 O2    s       0.000643      0.000616      0.050053      0.000000
    283 O3    s      -0.052726      0.068277     -0.036100      0.000000
    284 O3    s       0.061448      0.013883     -0.042141      0.000000
    285 O2    s       0.004594      0.006069     -0.049646      0.000000
    286 O2    s      -0.017722      0.005995     -0.003238      0.000000
    287 O2    s       0.024751     -0.051167      0.061701      0.000000
    288 O2    s       0.033633     -0.007487      0.074065      0.000000
    289 O2    s      -0.052126     -0.031135     -0.017004      0.000000
    290 O2    s       0.017795     -0.011452     -0.043745      0.000000
    291 O2    s      -0.001139      0.009122      0.019561      0.000000
    292 O3    s       0.114977     -0.057546     -0.182108      0.000000
    293 O2    s       0.015846      0.000906     -0.006580      0.000000
    294 O2    s       0.039385     -0.013463     -0.043846      0.000000
    295 O2    s       0.007101     -0.039507      0.128356      0.000000
    296 O2    s      -0.006251      0.007646      0.078752      0.000000
    297 O2    s       0.022929      0.029410      0.011899      0.000000
    298 O2    s      -0.034327      0.032865      0.045141      0.000000
    299 O2    s       0.037866     -0.016081      0.056494      0.000000
    300 O2    s      -0.013798      0.014541      0.061593      0.000000
    301 O2    s       0.082405     -0.032962      0.064513      0.000000
    302 O2    s      -0.019497      0.031346     -0.006321      0.000000
    303 O2    s      -0.076423      0.013747     -0.002271      0.000000
    304 O2    s       0.043564     -0.036942     -0.013907      0.000000
    305 O2    s       0.004180      0.009514      0.054370      0.000000
    306 O2    s       0.126726     -0.121290      0.010319      0.000000
    307 F     s      -0.003578      0.005138     -0.015482      0.000000
    308 F     s      -0.005201      0.004259     -0.043643      0.000000
    309 F     s       0.018318     -0.017829      0.027210      0.000000
    310 F     s       0.008119     -0.006279      0.021571      0.000000
    311 F     s       0.040852      0.051673      0.044520      0.000000
    312 F     s      -0.035201      0.044692      0.050514      0.000000
--------------------------------------------------------------------------------
  Maximum abs         0.126726      0.121290      0.182108      0.000000
--------------------------------------------------------------------------------


  Time to end of optimisation =    1502.6078 seconds


  Peak dynamic memory used =      19.13 MB 


  Timing analysis for GULP :

--------------------------------------------------------------------------------
  Task / Subroutine                                          Time (Seconds)
--------------------------------------------------------------------------------
  Calculation of reciprocal space energy and derivatives         45.8403
  Calculation of real space energy and derivatives             1270.8942
  Calculation of three-body energy and derivatives              152.0298
  Calculation of matrix inversion                                19.6231
  Global summation overhead                                       0.0013
--------------------------------------------------------------------------------
  Total CPU time                                               1502.6079
--------------------------------------------------------------------------------


  Dump file written as out.res                                                 
  CIF file written as out.cif                                                 


  Job Finished at 12:57.33  1st December   2016                               

