********************************************************************************
*                       GENERAL UTILITY LATTICE PROGRAM                        *
*                                 Julian Gale                                  *
*                      Nanochemistry Research Institute                        *
*                           Department of Chemistry                            *
*                    Curtin University, Western Australia                      *
********************************************************************************
* Version = 4.2.0 * Last modified =  20th January 2014                         *
********************************************************************************
*  optimise     - perform optimisation run                                     *
*  conp         - constant pressure calculation                                *
*  qok          - running with non charge neutral cell is OK                   *
********************************************************************************

  Job Started  at 13:09.34  1st December   2016                               

  Number of CPUs =     1


  Total number of configurations input =   1

********************************************************************************
*  Input for Configuration =   1                                               *
********************************************************************************

  Formula = Ge3Si57O120F6                                               

  Number of irreducible atoms/shells =     312


  Total number atoms/shells =     312

  Dimensionality = 3               :  Bulk   


  Charge on solid   =  -6.000000 =>neutralising background added


  Cartesian lattice vectors (Angstroms) :

       11.976784    0.000000    0.000000
       -6.057496   10.368196    0.000000
       -0.114936   -0.034589   29.410748

  Cell parameters (Angstroms/Degrees):

  a =      11.9768    alpha =  89.9452
  b =      12.0080    beta  =  90.2239
  c =      29.4110    gamma = 120.2951

  Initial cell volume =        3652.157301 Angs**3

  Temperature of configuration =  0.000     K 

  Pressure of configuration =         0.000 GPa 

  Fractional coordinates of asymmetric unit :

--------------------------------------------------------------------------------
   No.  Atomic       x           y          z         Charge      Occupancy
        Label      (Frac)      (Frac)     (Frac)        (e)         (Frac)  
--------------------------------------------------------------------------------
      1 Ge    c    0.699600    0.375700    0.033890     4.00000    1.000000    
      2 Si    c    0.617260 *  0.315907 *  0.365852 *   4.00000    1.000000    
      3 Si    c    0.676279 *  0.298340 *  0.698131 *   4.00000    1.000000    
      4 Si    c    0.295969 *  0.630417 *  0.531231 *   4.00000    1.000000    
      5 Si    c    0.377161 *  0.675516 *  0.862594 *   4.00000    1.000000    
      6 Si    c    0.317904 *  0.701408 *  0.196154 *   4.00000    1.000000    
      7 Si    c    0.373377 *  0.695712 *  0.296812 *   4.00000    1.000000    
      8 Si    c    0.319525 *  0.620926 *  0.962795 *   4.00000    1.000000    
      9 Si    c    0.296478 *  0.680947 *  0.632039 *   4.00000    1.000000    
     10 Si    c    0.621817 *  0.298119 *  0.798934 *   4.00000    1.000000    
     11 Si    c    0.679223 *  0.371708 *  0.468589 *   4.00000    1.000000    
     12 Si    c    0.684994 *  0.316760 *  0.132669 *   4.00000    1.000000    
     13 Si    c    0.528223 *  0.417129 *  0.966325 *   4.00000    1.000000    
     14 Si    c    0.579077 *  0.104362 *  0.301814 *   4.00000    1.000000    
     15 Si    c    0.887138 *  0.469697 *  0.632827 *   4.00000    1.000000    
     16 Si    c    0.462921 *  0.590887 *  0.466956 *   4.00000    1.000000    
     17 Si    c    0.416559 *  0.887802 *  0.798673 *   4.00000    1.000000    
     18 Si    c    0.106290 *  0.531441 *  0.128916 *   4.00000    1.000000    
     19 Si    c    0.408770 *  0.524193 *  0.363698 *   4.00000    1.000000    
     20 Si    c    0.102646 *  0.581177 *  0.025367 *   4.00000    1.000000    
     21 Si    c    0.469828 *  0.890481 *  0.697049 *   4.00000    1.000000    
     22 Si    c    0.581942 *  0.469444 *  0.863846 *   4.00000    1.000000    
     23 Si    c    0.893857 *  0.418491 *  0.531634 *   4.00000    1.000000    
     24 Si    c    0.526842 *  0.109511 *  0.200549 *   4.00000    1.000000    
     25 Si    c    0.300608 *  0.398328 *  0.848144 *   4.00000    1.000000    
     26 Si    c    0.598443 *  0.903250 *  0.182891 *   4.00000    1.000000    
     27 Si    c    0.092200 *  0.701808 *  0.516518 *   4.00000    1.000000    
     28 Si    c    0.695849 *  0.596336 *  0.348441 *   4.00000    1.000000    
     29 Si    c    0.396843 *  0.097572 *  0.682784 *   4.00000    1.000000    
     30 Si    c    0.888490 *  0.293278 *  0.010839 *   4.00000    1.000000    
     31 Ge    c    0.410630 *  0.318908 *  0.475020 *   4.00000    1.000000    
     32 Si    c    0.891606 *  0.601534 *  0.142195 *   4.00000    1.000000    
     33 Si    c    0.698175 *  0.097131 *  0.813181 *   4.00000    1.000000    
     34 Si    c    0.597094 *  0.698122 *  0.978624 *   4.00000    1.000000    
     35 Si    c    0.098702 *  0.401116 *  0.646749 *   4.00000    1.000000    
     36 Si    c    0.296647 *  0.895466 *  0.313897 *   4.00000    1.000000    
     37 Si    c    0.249579 *  0.341905 *  0.948754 *   4.00000    1.000000    
     38 Si    c    0.655860 *  0.905057 *  0.283716 *   4.00000    1.000000    
     39 Si    c    0.085411 *  0.750335 *  0.617468 *   4.00000    1.000000    
     40 Ge    c    0.746988 *  0.659592 *  0.451889 *   4.00000    1.000000    
     41 Si    c    0.339763 *  0.088694 *  0.783731 *   4.00000    1.000000    
     42 Si    c    0.900693 *  0.249317 *  0.114029 *   4.00000    1.000000    
     43 Si    c    0.328871 *  0.241573 *  0.378360 *   4.00000    1.000000    
     44 Si    c    0.898421 *  0.660321 *  0.039432 *   4.00000    1.000000    
     45 Si    c    0.749546 *  0.090953 *  0.712415 *   4.00000    1.000000    
     46 Si    c    0.658021 *  0.748112 *  0.877909 *   4.00000    1.000000    
     47 Si    c    0.097057 *  0.345045 *  0.545809 *   4.00000    1.000000    
     48 Si    c    0.245963 *  0.908679 *  0.213169 *   4.00000    1.000000    
     49 Si    c    0.971546 *  0.121938 *  0.962963 *   4.00000    1.000000    
     50 Si    c    0.872212 *  0.841443 *  0.296590 *   4.00000    1.000000    
     51 Si    c    0.149308 *  0.030547 *  0.630771 *   4.00000    1.000000    
     52 Si    c    0.030185 *  0.886001 *  0.465351 *   4.00000    1.000000    
     53 Si    c    0.121709 *  0.149444 *  0.797358 *   4.00000    1.000000    
     54 Si    c    0.845556 *  0.972919 *  0.130804 *   4.00000    1.000000    
     55 Si    c    0.116230 *  0.963079 *  0.362515 *   4.00000    1.000000    
     56 Si    c    0.846079 *  0.882149 *  0.029252 *   4.00000    1.000000    
     57 Si    c    0.029227 *  0.151829 *  0.696310 *   4.00000    1.000000    
     58 Si    c    0.878005 *  0.026875 *  0.862396 *   4.00000    1.000000    
     59 Si    c    0.164516 *  0.131501 *  0.529700 *   4.00000    1.000000    
     60 Si    c    0.967209 *  0.850397 *  0.195172 *   4.00000    1.000000    
     61 O2    c    0.926700 *  0.005689 *  0.998063 *   0.87073    1.000000    
     62 O2    c    0.994430 *  0.917113 *  0.329260 *   0.87073    1.000000    
     63 O2    c    0.068349 *  0.073229 *  0.662335 *   0.87073    1.000000    
     64 O2    c    0.082528 *  0.012028 *  0.495570 *   0.87073    1.000000    
     65 O2    c    0.998070 *  0.068888 *  0.829091 *   0.87073    1.000000    
     66 O2    c    0.929786 *  0.935633 *  0.163500 *   0.87073    1.000000    
     67 O2    c    0.335800 *  0.571935 *  0.329002 *   0.87073    1.000000    
     68 O2    c    0.420475 *  0.765275 *  0.664556 *   0.87073    1.000000    
     69 O2    c    0.230698 *  0.657162 *  0.994513 *   0.87073    1.000000    
     70 O2    c    0.659183 *  0.420465 *  0.831939 *   0.87073    1.000000    
     71 O2    c    0.577220 *  0.239406 *  0.171235 *   0.87073    1.000000    
     72 O2    c    0.772026 *  0.337002 *  0.497771 *   0.87073    1.000000    
     73 O3    c    0.566441 *  0.336859 *  0.998809 *   1.33043    1.000000    
     74 O2    c    0.761667 *  0.420905 *  0.665208 *   0.87073    1.000000    
     75 O2    c    0.655585 *  0.229413 *  0.334568 *   0.87073    1.000000    
     76 O2    c    0.416292 *  0.674459 *  0.496460 *   0.87073    1.000000    
     77 O2    c    0.231424 *  0.581619 *  0.161787 *   0.87073    1.000000    
     78 O2    c    0.338958 *  0.760823 *  0.830241 *   0.87073    1.000000    
     79 O2    c    0.125058 *  0.214123 *  0.969245 *   0.87073    1.000000    
     80 O2    c    0.782327 *  0.904895 *  0.303530 *   0.87073    1.000000    
     81 O2    c    0.085089 *  0.876181 *  0.637355 *   0.87073    1.000000    
     82 O3    c    0.877576 *  0.800476 *  0.472202 *   1.33043    1.000000    
     83 O2    c    0.213136 *  0.087517 *  0.803877 *   0.87073    1.000000    
     84 O2    c    0.905218 *  0.126957 *  0.135297 *   0.87073    1.000000    
     85 O2    c    0.208850 *  0.116271 *  0.353959 *   0.87073    1.000000    
     86 O2    c    0.915194 *  0.797734 *  0.023592 *   0.87073    1.000000    
     87 O2    c    0.874618 *  0.090044 *  0.691908 *   0.87073    1.000000    
     88 O2    c    0.785230 *  0.872856 *  0.857302 *   0.87073    1.000000    
     89 O2    c    0.100082 *  0.222630 *  0.524972 *   0.87073    1.000000    
     90 O2    c    0.121933 *  0.911946 *  0.192391 *   0.87073    1.000000    
     91 O2    c    0.922738 *  0.856771 *  0.245671 *   0.87073    1.000000    
     92 O2    c    0.138796 *  0.068754 *  0.579805 *   0.87073    1.000000    
     93 O2    c    0.934248 *  0.063726 *  0.912901 *   0.87073    1.000000    
     94 O2    c    0.070832 *  0.135365 *  0.746317 *   0.87073    1.000000    
     95 O2    c    0.856328 *  0.931544 *  0.080536 *   0.87073    1.000000    
     96 O2    c    0.062917 *  0.928294 *  0.412971 *   0.87073    1.000000    
     97 O2    c    0.900986 *  0.202934 *  0.972987 *   0.87073    1.000000    
     98 O2    c    0.786849 *  0.688834 *  0.307660 *   0.87073    1.000000    
     99 O2    c    0.300655 *  0.099840 *  0.644303 *   0.87073    1.000000    
    100 O2    c    0.091558 *  0.796172 *  0.477205 *   0.87073    1.000000    
    101 O2    c    0.203317 *  0.301126 *  0.809386 *   0.87073    1.000000    
    102 O2    c    0.694444 *  0.902063 *  0.144381 *   0.87073    1.000000    
    103 O2    c    0.197877 *  0.891959 *  0.352195 *   0.87073    1.000000    
    104 O2    c    0.694209 *  0.797994 *  0.017139 *   0.87073    1.000000    
    105 O2    c    0.099502 *  0.304154 *  0.685189 *   0.87073    1.000000    
    106 O2    c    0.796578 *  0.097568 *  0.851585 *   0.87073    1.000000    
    107 O3    c    0.311340 *  0.210969 *  0.518744 *   1.33043    1.000000    
    108 O2    c    0.896738 *  0.700678 *  0.180689 *   0.87073    1.000000    
    109 O2    c    0.316612 *  0.640409 *  0.245965 *   0.87073    1.000000    
    110 O2    c    0.354876 *  0.684532 *  0.581687 *   0.87073    1.000000    
    111 O2    c    0.318077 *  0.676896 *  0.912468 *   0.87073    1.000000    
    112 O2    c    0.678368 *  0.356021 *  0.748589 *   0.87073    1.000000    
    113 O3    c    0.613030 *  0.303166 *  0.085693 *   1.33043    1.000000    
    114 O2    c    0.676120 *  0.323530 *  0.415983 *   0.87073    1.000000    
    115 O2    c    0.370680 *  0.331807 *  0.966943 *   0.87073    1.000000    
    116 O2    c    0.666029 *  0.035410 *  0.304072 *   0.87073    1.000000    
    117 O2    c    0.954620 *  0.625934 *  0.636096 *   0.87073    1.000000    
    118 O3    c    0.618002 *  0.677318 *  0.466932 *   1.33043    1.000000    
    119 O2    c    0.329336 *  0.956337 *  0.801961 *   0.87073    1.000000    
    120 O2    c    0.033125 *  0.375614 *  0.130919 *   0.87073    1.000000    
    121 O2    c    0.325026 *  0.368179 *  0.360288 *   0.87073    1.000000    
    122 O2    c    0.032007 *  0.665758 *  0.023809 *   0.87073    1.000000    
    123 O2    c    0.626212 *  0.958726 *  0.693960 *   0.87073    1.000000    
    124 O2    c    0.667759 *  0.625701 *  0.860088 *   0.87073    1.000000    
    125 O2    c    0.962397 *  0.332102 *  0.528504 *   0.87073    1.000000    
    126 O2    c    0.370543 *  0.041044 *  0.196195 *   0.87073    1.000000    
    127 O3    c    0.753723 *  0.283455 *  0.002379 *   1.33043    1.000000    
    128 O2    c    0.688013 *  0.458586 *  0.343222 *   0.87073    1.000000    
    129 O2    c    0.532444 *  0.231159 *  0.675760 *   0.87073    1.000000    
    130 O2    c    0.227603 *  0.705504 *  0.509587 *   0.87073    1.000000    
    131 O2    c    0.302757 *  0.532776 *  0.839543 *   0.87073    1.000000    
    132 O2    c    0.461904 *  0.770976 *  0.174300 *   0.87073    1.000000    
    133 O2    c    0.297743 *  0.761833 *  0.319815 *   0.87073    1.000000    
    134 O2    c    0.462674 *  0.698567 *  0.985937 *   0.87073    1.000000    
    135 O2    c    0.230071 *  0.537973 *  0.654575 *   0.87073    1.000000    
    136 O2    c    0.697736 *  0.230514 *  0.821127 *   0.87073    1.000000    
    137 O3    c    0.540336 *  0.296052 *  0.490906 *   1.33043    1.000000    
    138 O2    c    0.760088 *  0.466420 *  0.150971 *   0.87073    1.000000    
    139 O3    c    0.772216 *  0.546043 *  0.018432 *   1.33043    1.000000    
    140 O2    c    0.461844 *  0.247874 *  0.362421 *   0.87073    1.000000    
    141 O2    c    0.750591 *  0.217213 *  0.693149 *   0.87073    1.000000    
    142 O2    c    0.218331 *  0.474744 *  0.525835 *   0.87073    1.000000    
    143 O2    c    0.533712 *  0.750636 *  0.857927 *   0.87073    1.000000    
    144 O2    c    0.243085 *  0.782287 *  0.192803 *   0.87073    1.000000    
    145 O2    c    0.529906 *  0.776308 *  0.301933 *   0.87073    1.000000    
    146 O2    c    0.244787 *  0.465170 *  0.968634 *   0.87073    1.000000    
    147 O2    c    0.213405 *  0.753412 *  0.636562 *   0.87073    1.000000    
    148 O2    c    0.465454 *  0.215197 *  0.803557 *   0.87073    1.000000    
    149 O3    c    0.745242 *  0.527459 *  0.474083 *   1.33043    1.000000    
    150 O2    c    0.777857 *  0.253027 *  0.133969 *   0.87073    1.000000    
    151 O2    c    0.227543 *  0.324753 *  0.894350 *   0.87073    1.000000    
    152 O2    c    0.673167 *  0.906191 *  0.229260 *   0.87073    1.000000    
    153 O2    c    0.083998 *  0.769118 *  0.563023 *   0.87073    1.000000    
    154 O3    c    0.769424 *  0.668860 *  0.393534 *   1.33043    1.000000    
    155 O2    c    0.322408 *  0.091652 *  0.729337 *   0.87073    1.000000    
    156 O2    c    0.896467 *  0.232270 *  0.059772 *   0.87073    1.000000    
    157 O3    c    0.303793 *  0.219397 *  0.431144 *   1.33043    1.000000    
    158 O2    c    0.892817 *  0.668480 *  0.094937 *   0.87073    1.000000    
    159 O2    c    0.768879 *  0.092935 *  0.766886 *   0.87073    1.000000    
    160 O2    c    0.674209 *  0.768005 *  0.932443 *   0.87073    1.000000    
    161 O2    c    0.099811 *  0.329490 *  0.600365 *   0.87073    1.000000    
    162 O2    c    0.227049 *  0.903301 *  0.267573 *   0.87073    1.000000    
    163 O2    c    0.580646 *  0.559223 *  0.988725 *   0.87073    1.000000    
    164 O2    c    0.436991 *  0.019496 *  0.324242 *   0.87073    1.000000    
    165 O2    c    0.971706 *  0.412365 *  0.655198 *   0.87073    1.000000    
    166 O3    c    0.408054 *  0.456988 *  0.493242 *   1.33043    1.000000    
    167 O2    c    0.558248 *  0.971783 *  0.822063 *   0.87073    1.000000    
    168 O2    c    0.015071 *  0.582963 *  0.148557 *   0.87073    1.000000    
    169 O2    c    0.553592 *  0.577901 *  0.344845 *   0.87073    1.000000    
    170 O2    c    0.010959 *  0.438786 *  0.004863 *   0.87073    1.000000    
    171 O2    c    0.411709 *  0.973242 *  0.673802 *   0.87073    1.000000    
    172 O2    c    0.439965 *  0.411150 *  0.840782 *   0.87073    1.000000    
    173 O2    c    0.969795 *  0.559699 *  0.507548 *   0.87073    1.000000    
    174 O2    c    0.585780 *  0.029638 *  0.175572 *   0.87073    1.000000    
    175 O2    c    0.580016 *  0.160017 *  0.251567 *   0.87073    1.000000    
    176 O2    c    0.834982 *  0.416712 *  0.581668 *   0.87073    1.000000    
    177 O2    c    0.582885 *  0.420938 *  0.915178 *   0.87073    1.000000    
    178 O2    c    0.416306 *  0.835907 *  0.747665 *   0.87073    1.000000    
    179 O2    c    0.149748 *  0.578508 *  0.077298 *   0.87073    1.000000    
    180 O2    c    0.408118 *  0.576004 *  0.414373 *   0.87073    1.000000    
    181 F     c    0.448304 *  0.899822 *  0.248505 *   0.56000    1.000000    
    182 F     c    0.094740 *  0.551225 *  0.581216 *   0.56000    1.000000    
    183 F     c    0.446461 *  0.551337 *  0.913565 *   0.56000    1.000000    
    184 F     c    0.548285 *  0.096886 *  0.748230 *   0.56000    1.000000    
    185 F     c    0.850780 *  0.434410 *  0.070060 *   0.56000    1.000000    
    186 F     c    0.523294 *  0.430397 *  0.426488 *   0.56000    1.000000    
    187 O2    s    0.922485 *  0.004670 *  0.997671 *  -2.87073    1.000000    
    188 O2    s    0.993991 *  0.913540 *  0.329225 *  -2.87073    1.000000    
    189 O2    s    0.072919 *  0.077319 *  0.662654 *  -2.87073    1.000000    
    190 O2    s    0.085135 *  0.010046 *  0.495688 *  -2.87073    1.000000    
    191 O2    s    0.998420 *  0.073181 *  0.829278 *  -2.87073    1.000000    
    192 O2    s    0.924756 *  0.930267 *  0.163444 *  -2.87073    1.000000    
    193 O2    s    0.347169 *  0.579725 *  0.329256 *  -2.87073    1.000000    
    194 O2    s    0.412674 *  0.769478 *  0.664523 *  -2.87073    1.000000    
    195 O2    s    0.225984 *  0.645510 *  0.994620 *  -2.87073    1.000000    
    196 O2    s    0.647458 *  0.412934 *  0.831810 *  -2.87073    1.000000    
    197 O2    s    0.583091 *  0.233583 *  0.170337 *  -2.87073    1.000000    
    198 O2    s    0.774727 *  0.349019 *  0.498148 *  -2.87073    1.000000    
    199 O3    s    0.572421 *  0.348200 *  0.998040 *  -3.33043    1.000000    
    200 O2    s    0.765854 *  0.413370 *  0.665255 *  -2.87073    1.000000    
    201 O2    s    0.643688 *  0.225489 *  0.334447 *  -2.87073    1.000000    
    202 O2    s    0.408898 *  0.661570 *  0.496981 *  -2.87073    1.000000    
    203 O2    s    0.227092 *  0.588458 *  0.161839 *  -2.87073    1.000000    
    204 O2    s    0.350932 *  0.765202 *  0.830307 *  -2.87073    1.000000    
    205 O2    s    0.121170 *  0.217246 *  0.966479 *  -2.87073    1.000000    
    206 O2    s    0.778678 *  0.898169 *  0.300764 *  -2.87073    1.000000    
    207 O2    s    0.091797 *  0.879221 *  0.634641 *  -2.87073    1.000000    
    208 O3    s    0.882467 *  0.797772 *  0.469907 *  -3.33043    1.000000    
    209 O2    s    0.216497 *  0.094204 *  0.801135 *  -2.87073    1.000000    
    210 O2    s    0.898462 *  0.123414 *  0.132649 *  -2.87073    1.000000    
    211 O2    s    0.211298 *  0.112931 *  0.357257 *  -2.87073    1.000000    
    212 O2    s    0.906045 *  0.792811 *  0.025799 *  -2.87073    1.000000    
    213 O2    s    0.878062 *  0.096711 *  0.694478 *  -2.87073    1.000000    
    214 O2    s    0.781978 *  0.876395 *  0.859948 *  -2.87073    1.000000    
    215 O2    s    0.106173 *  0.226618 *  0.527655 *  -2.87073    1.000000    
    216 O2    s    0.118291 *  0.905041 *  0.194817 *  -2.87073    1.000000    
    217 O2    s    0.922008 *  0.854288 *  0.245753 *  -2.87073    1.000000    
    218 O2    s    0.142733 *  0.071065 *  0.580310 *  -2.87073    1.000000    
    219 O2    s    0.932158 *  0.066200 *  0.912915 *  -2.87073    1.000000    
    220 O2    s    0.071877 *  0.138828 *  0.746439 *  -2.87073    1.000000    
    221 O2    s    0.853934 *  0.930907 *  0.080722 *  -2.87073    1.000000    
    222 O2    s    0.065514 *  0.927716 *  0.412798 *  -2.87073    1.000000    
    223 O2    s    0.907371 *  0.203670 *  0.975896 *  -2.87073    1.000000    
    224 O2    s    0.786430 *  0.695255 *  0.310633 *  -2.87073    1.000000    
    225 O2    s    0.294637 *  0.092309 *  0.646857 *  -2.87073    1.000000    
    226 O2    s    0.085246 *  0.795771 *  0.480021 *  -2.87073    1.000000    
    227 O2    s    0.204586 *  0.294926 *  0.812072 *  -2.87073    1.000000    
    228 O2    s    0.700463 *  0.909649 *  0.146931 *  -2.87073    1.000000    
    229 O2    s    0.199565 *  0.899687 *  0.349305 *  -2.87073    1.000000    
    230 O2    s    0.700657 *  0.796958 *  0.014574 *  -2.87073    1.000000    
    231 O2    s    0.092020 *  0.297993 *  0.682443 *  -2.87073    1.000000    
    232 O2    s    0.795224 *  0.090048 *  0.848837 *  -2.87073    1.000000    
    233 O3    s    0.301332 *  0.209224 *  0.517065 *  -3.33043    1.000000    
    234 O2    s    0.903758 *  0.706481 *  0.178260 *  -2.87073    1.000000    
    235 O2    s    0.322409 *  0.652087 *  0.246024 *  -2.87073    1.000000    
    236 O2    s    0.342892 *  0.678602 *  0.581626 *  -2.87073    1.000000    
    237 O2    s    0.324190 *  0.670969 *  0.912620 *  -2.87073    1.000000    
    238 O2    s    0.672421 *  0.344301 *  0.748586 *  -2.87073    1.000000    
    239 O3    s    0.626167 *  0.309361 *  0.087073 *  -3.33043    1.000000    
    240 O2    s    0.670113 *  0.327424 *  0.415720 *  -2.87073    1.000000    
    241 O2    s    0.373232 *  0.341582 *  0.964851 *  -2.87073    1.000000    
    242 O2    s    0.655985 *  0.028894 *  0.301709 *  -2.87073    1.000000    
    243 O2    s    0.961432 *  0.623017 *  0.633802 *  -2.87073    1.000000    
    244 O3    s    0.613456 *  0.667393 *  0.465685 *  -3.33043    1.000000    
    245 O2    s    0.339394 *  0.963180 *  0.799704 *  -2.87073    1.000000    
    246 O2    s    0.027077 *  0.378846 *  0.128964 *  -2.87073    1.000000    
    247 O2    s    0.334090 *  0.371617 *  0.362464 *  -2.87073    1.000000    
    248 O2    s    0.026131 *  0.656293 *  0.025535 *  -2.87073    1.000000    
    249 O2    s    0.623011 *  0.965569 *  0.696227 *  -2.87073    1.000000    
    250 O2    s    0.657903 *  0.622495 *  0.862355 *  -2.87073    1.000000    
    251 O2    s    0.969351 *  0.342609 *  0.530678 *  -2.87073    1.000000    
    252 O2    s    0.373387 *  0.033973 *  0.198464 *  -2.87073    1.000000    
    253 O3    s    0.764472 *  0.290600 *  0.005437 *  -3.33043    1.000000    
    254 O2    s    0.681527 *  0.458405 *  0.346104 *  -2.87073    1.000000    
    255 O2    s    0.533053 *  0.224085 *  0.678838 *  -2.87073    1.000000    
    256 O2    s    0.220188 *  0.697284 *  0.512633 *  -2.87073    1.000000    
    257 O2    s    0.310164 *  0.533317 *  0.842841 *  -2.87073    1.000000    
    258 O2    s    0.461168 *  0.777496 *  0.177485 *  -2.87073    1.000000    
    259 O2    s    0.305421 *  0.769027 *  0.316776 *  -2.87073    1.000000    
    260 O2    s    0.461817 *  0.690608 *  0.982800 *  -2.87073    1.000000    
    261 O2    s    0.222988 *  0.538192 *  0.651400 *  -2.87073    1.000000    
    262 O2    s    0.690031 *  0.223465 *  0.817996 *  -2.87073    1.000000    
    263 O3    s    0.545535 *  0.305668 *  0.487355 *  -3.33043    1.000000    
    264 O2    s    0.766791 *  0.466253 *  0.148212 *  -2.87073    1.000000    
    265 O3    s    0.781810 *  0.548147 *  0.021656 *  -3.33043    1.000000    
    266 O2    s    0.464754 *  0.254572 *  0.364424 *  -2.87073    1.000000    
    267 O2    s    0.742633 *  0.211886 *  0.695737 *  -2.87073    1.000000    
    268 O2    s    0.213276 *  0.477142 *  0.528524 *  -2.87073    1.000000    
    269 O2    s    0.530890 *  0.742449 *  0.860554 *  -2.87073    1.000000    
    270 O2    s    0.251256 *  0.787377 *  0.195313 *  -2.87073    1.000000    
    271 O2    s    0.527207 *  0.781869 *  0.299456 *  -2.87073    1.000000    
    272 O2    s    0.253089 *  0.468326 *  0.965965 *  -2.87073    1.000000    
    273 O2    s    0.208133 *  0.745422 *  0.634047 *  -2.87073    1.000000    
    274 O2    s    0.468179 *  0.210063 *  0.800953 *  -2.87073    1.000000    
    275 O3    s    0.739135 *  0.524608 *  0.471680 *  -3.33043    1.000000    
    276 O2    s    0.782134 *  0.259061 *  0.131647 *  -2.87073    1.000000    
    277 O2    s    0.237482 *  0.334273 *  0.895242 *  -2.87073    1.000000    
    278 O2    s    0.663456 *  0.905749 *  0.230187 *  -2.87073    1.000000    
    279 O2    s    0.084982 *  0.760057 *  0.563840 *  -2.87073    1.000000    
    280 O3    s    0.760018 *  0.660589 *  0.393477 *  -3.33043    1.000000    
    281 O2    s    0.332071 *  0.091967 *  0.730227 *  -2.87073    1.000000    
    282 O2    s    0.896109 *  0.240095 *  0.060869 *  -2.87073    1.000000    
    283 O3    s    0.313850 *  0.228695 *  0.428597 *  -3.33043    1.000000    
    284 O2    s    0.893157 *  0.660198 *  0.094726 *  -2.87073    1.000000    
    285 O2    s    0.759467 *  0.093163 *  0.765952 *  -2.87073    1.000000    
    286 O2    s    0.664486 *  0.758654 *  0.931520 *  -2.87073    1.000000    
    287 O2    s    0.099420 *  0.338693 *  0.599504 *  -2.87073    1.000000    
    288 O2    s    0.236273 *  0.903047 *  0.266574 *  -2.87073    1.000000    
    289 O2    s    0.576862 *  0.560058 *  0.985331 *  -2.87073    1.000000    
    290 O2    s    0.436886 *  0.014970 *  0.320782 *  -2.87073    1.000000    
    291 O2    s    0.976664 *  0.417340 *  0.651939 *  -2.87073    1.000000    
    292 O3    s    0.414084 *  0.460147 *  0.489205 *  -3.33043    1.000000    
    293 O2    s    0.558567 *  0.976729 *  0.818665 *  -2.87073    1.000000    
    294 O2    s    0.011570 *  0.579320 *  0.145775 *  -2.87073    1.000000    
    295 O2    s    0.553738 *  0.574086 *  0.347244 *  -2.87073    1.000000    
    296 O2    s    0.008141 *  0.439285 *  0.007701 *  -2.87073    1.000000    
    297 O2    s    0.416355 *  0.978185 *  0.677201 *  -2.87073    1.000000    
    298 O2    s    0.439765 *  0.416014 *  0.843986 *  -2.87073    1.000000    
    299 O2    s    0.975288 *  0.560517 *  0.510974 *  -2.87073    1.000000    
    300 O2    s    0.580898 *  0.024135 *  0.178925 *  -2.87073    1.000000    
    301 O2    s    0.574279 *  0.148727 *  0.251537 *  -2.87073    1.000000    
    302 O2    s    0.846384 *  0.422382 *  0.581800 *  -2.87073    1.000000    
    303 O2    s    0.577321 *  0.425698 *  0.914914 *  -2.87073    1.000000    
    304 O2    s    0.421932 *  0.847043 *  0.747701 *  -2.87073    1.000000    
    305 O2    s    0.140366 *  0.573741 *  0.077596 *  -2.87073    1.000000    
    306 O2    s    0.413341 *  0.571845 *  0.414011 *  -2.87073    1.000000    
    307 F     s    0.448171 *  0.899477 *  0.248498 *  -1.56000    1.000000    
    308 F     s    0.094948 *  0.551414 *  0.581123 *  -1.56000    1.000000    
    309 F     s    0.445857 *  0.551922 *  0.913558 *  -1.56000    1.000000    
    310 F     s    0.548539 *  0.097259 *  0.748239 *  -1.56000    1.000000    
    311 F     s    0.840761 *  0.430525 *  0.067888 *  -1.56000    1.000000    
    312 F     s    0.517990 *  0.425021 *  0.429118 *  -1.56000    1.000000    
--------------------------------------------------------------------------------



********************************************************************************
*  General input information                                                   *
********************************************************************************

  Species output for all configurations : 

--------------------------------------------------------------------------------
  Species    Type    Atomic    Atomic    Charge       Radii (Angs)     Library
                     Number     Mass       (e)     Cova   Ionic  VDW   Symbol
--------------------------------------------------------------------------------
    Si       Core       14      28.09   4.000000   1.200  0.000  2.100          
    O1       Core        8      16.00   1.733957   0.730  0.000  1.360          
    O1       Shell       8       0.00  -3.733957   0.730  0.000  1.360          
    O2       Core        8      16.00   0.870733   0.730  0.000  1.360          
    O2       Shell       8       0.00  -2.870733   0.730  0.000  1.360          
    O3       Core        8      16.00   1.330431   0.730  0.000  1.360          
    O3       Shell       8       0.00  -3.330431   0.730  0.000  1.360          
    F        Core        9      19.00   0.560000   0.710  0.000  1.300          
    F        Shell       9       0.00  -1.560000   0.710  0.000  1.300          
    Ge       Core       32      72.61   4.000000   1.170  0.000  1.750          
--------------------------------------------------------------------------------


  Lattice summation method               =    Ewald          (3-D)
                                         =    Parry          (2-D)
                                         =    Saunders et al (1-D)
  Accuracy factor for lattice sums       =   12.000


  Time limit = Infinity

  Maximum range for interatomic potentials =        16.000000 Angstroms

  Taper potentials to zero over   1.0000 Angstroms using polynomial

  General interatomic potentials :

--------------------------------------------------------------------------------
Atom  Types   Potential         A         B         C         D     Cutoffs(Ang)
  1     2                                                            Min    Max 
--------------------------------------------------------------------------------
Si   c O1   s Buckingham    0.132E+04 0.318      10.1      0.00     0.000 16.000
Si   c O2   s Buckingham    0.132E+04 0.318      10.1      0.00     0.000 16.000
Si   c O3   s Buckingham    0.132E+04 0.318      10.1      0.00     0.000 16.000
Ge   c O1   s Buckingham    0.150E+04 0.326      16.8      0.00     0.000 16.000
Ge   c O2   s Buckingham    0.150E+04 0.326      16.8      0.00     0.000 16.000
Ge   c O3   s Buckingham    0.150E+04 0.326      16.8      0.00     0.000 16.000
O1   s O1   s Buckingham    0.228E+05 0.149      10.9      0.00     0.000 16.000
O1   s O2   s Buckingham    0.228E+05 0.149      10.9      0.00     0.000 16.000
O1   s O3   s Buckingham    0.228E+05 0.149      10.9      0.00     0.000 16.000
O2   s O2   s Buckingham    0.228E+05 0.149      10.9      0.00     0.000 16.000
O2   s O3   s Buckingham    0.228E+05 0.149      10.9      0.00     0.000 16.000
O3   s O3   s Buckingham    0.228E+05 0.149      10.9      0.00     0.000 16.000
Si   c F    s Buckingham     977.     0.282      0.00      0.00     0.000 16.000
Ge   c F    s Buckingham     681.     0.320      0.00      0.00     0.000 16.000
F    s F    s Buckingham     540.     0.262      0.00      0.00     0.000 16.000
O1   s F    s Buckingham    0.168E+04 0.268      0.00      0.00     0.000 16.000
O2   s F    s Buckingham    0.168E+04 0.268      0.00      0.00     0.000 16.000
O3   s F    s Buckingham    0.168E+04 0.268      0.00      0.00     0.000 16.000
O2   c O2   s Spring (c-s)   76.0      0.00      0.00      0.00     0.000  0.800
O3   c O3   s Spring (c-s)   128.      0.00      0.00      0.00     0.000  0.800
O1   c O1   s Spring (c-s)   180.      0.00      0.00      0.00     0.000  0.800
F    c F    s Spring (c-s)   33.5      0.00      0.00      0.00     0.000  0.800
--------------------------------------------------------------------------------

  General Three-body potentials :

  Harmonic form:

--------------------------------------------------------------------------------
Atom    Atom    Atom           Force Constants            Theta     Cutoffs  
  1       2       3     (eVrad**-2/eVrad**-3/eVrad**-4)   (deg)  1-2  1-3  2-3
--------------------------------------------------------------------------------
Si    c O1    s O1    s  1.261        0.0000    0.0000   109.470 0.00 0.00 0.00
                                                                 1.90 1.90 3.50
Si    c O1    s O2    s  1.261        0.0000    0.0000   109.470 0.00 0.00 0.00
                                                                 1.90 1.90 3.50
Si    c O2    s O2    s  1.261        0.0000    0.0000   109.470 0.00 0.00 0.00
                                                                 1.90 1.90 3.50
--------------------------------------------------------------------------------

********************************************************************************
*  Output for configuration   1                                                *
********************************************************************************


  Components of energy : 

--------------------------------------------------------------------------------
  Interatomic potentials     =        2063.86013563 eV
  Three-body potentials      =           0.47989268 eV
  Monopole - monopole (real) =       -6611.75570730 eV
  Monopole - monopole (recip)=       -3172.68272716 eV
  Monopole - monopole (total)=       -9784.43843445 eV
  Neutralising energy        =          -6.46277129 eV
--------------------------------------------------------------------------------
  Total lattice energy       =       -7726.56117743 eV
--------------------------------------------------------------------------------
  Total lattice energy       =         -745495.0423 kJ/(mole unit cells)
--------------------------------------------------------------------------------


  Number of variables =      939

  Maximum number of calculations  =          1000
  Maximum Hessian update interval =            10
  Maximum step size               =   1.000000000
  Maximum parameter tolerance     =   0.000010000
  Maximum function  tolerance     =   0.000010000
  Maximum gradient  tolerance     =   0.001000000
  Maximum gradient  component     =   0.010000000

  Symmetry not applied to optimisation

  Cell parameters to be optimised using strains

  Newton-Raphson optimiser to be used

  BFGS hessian update to be used

  Dumpfile to be written after every cycle

  Start of bulk optimisation :

  Cycle:      0 Energy:     -7726.561177  Gnorm:      0.001137  CPU:    1.056
  ** Hessian calculated **
  Cycle:      1 Energy:     -7726.663626  Gnorm:      0.006450  CPU:    3.284
  Cycle:      2 Energy:     -7726.666551  Gnorm:      0.001178  CPU:    4.989
  Cycle:      3 Energy:     -7726.666628  Gnorm:      0.000259  CPU:    6.365
  Cycle:      4 Energy:     -7726.666636  Gnorm:      0.000063  CPU:    7.741


  **** Optimisation achieved ****


  Final energy =   -7726.66663568 eV
  Final Gnorm  =       0.00000951

  Components of energy : 

--------------------------------------------------------------------------------
  Interatomic potentials     =        2064.27889830 eV
  Three-body potentials      =           0.48725649 eV
  Monopole - monopole (real) =       -6612.67733242 eV
  Monopole - monopole (recip)=       -3172.29347645 eV
  Monopole - monopole (total)=       -9784.97080886 eV
  Neutralising energy        =          -6.46198160 eV
--------------------------------------------------------------------------------
  Total lattice energy       =       -7726.66663568 eV
--------------------------------------------------------------------------------
  Total lattice energy       =         -745505.2174 kJ/(mole unit cells)
--------------------------------------------------------------------------------

  Final fractional coordinates of atoms :

--------------------------------------------------------------------------------
   No.  Atomic        x           y          z          Radius
        Label       (Frac)      (Frac)     (Frac)       (Angs) 
--------------------------------------------------------------------------------
     1  Ge    c     0.699600    0.375700    0.033890    0.000000
     2  Si    c     0.590856    0.297294    0.366440    0.000000
     3  Si    c     0.660141    0.288914    0.698131    0.000000
     4  Si    c     0.277726    0.621036    0.531944    0.000000
     5  Si    c     0.363270    0.666567    0.863565    0.000000
     6  Si    c     0.295735    0.686099    0.197726    0.000000
     7  Si    c     0.347894    0.678760    0.298436    0.000000
     8  Si    c     0.308309    0.610351    0.964005    0.000000
     9  Si    c     0.280849    0.672974    0.632639    0.000000
    10  Si    c     0.607190    0.289415    0.799001    0.000000
    11  Si    c     0.656670    0.355055    0.469040    0.000000
    12  Si    c     0.665448    0.302913    0.132261    0.000000
    13  Si    c     0.519962    0.408332    0.966550    0.000000
    14  Si    c     0.552654    0.086995    0.301917    0.000000
    15  Si    c     0.871005    0.461087    0.632966    0.000000
    16  Si    c     0.439867    0.574338    0.468059    0.000000
    17  Si    c     0.402151    0.879292    0.799535    0.000000
    18  Si    c     0.087190    0.516422    0.130718    0.000000
    19  Si    c     0.382451    0.505700    0.365013    0.000000
    20  Si    c     0.093436    0.573340    0.027333    0.000000
    21  Si    c     0.454588    0.881986    0.697655    0.000000
    22  Si    c     0.569367    0.461861    0.863602    0.000000
    23  Si    c     0.875647    0.408955    0.531553    0.000000
    24  Si    c     0.503169    0.093776    0.200147    0.000000
    25  Si    c     0.287944    0.390293    0.848607    0.000000
    26  Si    c     0.575295    0.887232    0.183471    0.000000
    27  Si    c     0.074597    0.692500    0.517207    0.000000
    28  Si    c     0.669387    0.577948    0.349089    0.000000
    29  Si    c     0.380932    0.088665    0.682947    0.000000
    30  Si    c     0.880911    0.285882    0.011109    0.000000
    31  Ge    c     0.388516    0.302614    0.475209    0.000000
    32  Si    c     0.872790    0.586985    0.143439    0.000000
    33  Si    c     0.683726    0.088625    0.813800    0.000000
    34  Si    c     0.586315    0.688391    0.978699    0.000000
    35  Si    c     0.083012    0.392946    0.647080    0.000000
    36  Si    c     0.270398    0.878147    0.314598    0.000000
    37  Si    c     0.240528    0.332484    0.949454    0.000000
    38  Si    c     0.629849    0.887712    0.284616    0.000000
    39  Si    c     0.069266    0.741677    0.618131    0.000000
    40  Ge    c     0.724525    0.643735    0.452282    0.000000
    41  Si    c     0.325407    0.080268    0.784153    0.000000
    42  Si    c     0.882136    0.235605    0.114652    0.000000
    43  Si    c     0.302353    0.222932    0.379176    0.000000
    44  Si    c     0.892805    0.657553    0.040917    0.000000
    45  Si    c     0.734123    0.082340    0.712852    0.000000
    46  Si    c     0.644642    0.739748    0.877831    0.000000
    47  Si    c     0.079649    0.335711    0.546129    0.000000
    48  Si    c     0.222530    0.892303    0.213545    0.000000
    49  Si    c     0.962081    0.113567    0.963234    0.000000
    50  Si    c     0.845609    0.823247    0.297298    0.000000
    51  Si    c     0.132420    0.021104    0.631463    0.000000
    52  Si    c     0.006705    0.872734    0.466386    0.000000
    53  Si    c     0.108183    0.142134    0.797959    0.000000
    54  Si    c     0.823657    0.958413    0.131762    0.000000
    55  Si    c     0.089699    0.945760    0.363077    0.000000
    56  Si    c     0.834044    0.874367    0.030103    0.000000
    57  Si    c     0.014110    0.143888    0.696983    0.000000
    58  Si    c     0.864216    0.018696    0.862942    0.000000
    59  Si    c     0.142096    0.118241    0.529993    0.000000
    60  Si    c     0.943586    0.833529    0.196187    0.000000
    61  O2    c     0.914716    0.998529    0.999147    0.000000
    62  O2    c     0.967249    0.898282    0.330148    0.000000
    63  O2    c     0.053160    0.064746    0.663394    0.000000
    64  O2    c     0.055294    0.998378    0.496530    0.000000
    65  O2    c     0.984598    0.061774    0.829751    0.000000
    66  O2    c     0.905766    0.918457    0.164424    0.000000
    67  O2    c     0.309624    0.554707    0.330663    0.000000
    68  O2    c     0.404722    0.756928    0.665181    0.000000
    69  O2    c     0.222020    0.647646    0.996679    0.000000
    70  O2    c     0.645688    0.412548    0.831455    0.000000
    71  O2    c     0.554885    0.223038    0.170026    0.000000
    72  O2    c     0.753751    0.325434    0.498016    0.000000
    73  O3    c     0.564384    0.332979    0.998503    0.000000
    74  O2    c     0.745210    0.411722    0.665164    0.000000
    75  O2    c     0.628797    0.211487    0.334716    0.000000
    76  O2    c     0.397425    0.661865    0.497067    0.000000
    77  O2    c     0.210403    0.564765    0.164143    0.000000
    78  O2    c     0.324823    0.752540    0.831423    0.000000
    79  O2    c     0.115860    0.202983    0.969329    0.000000
    80  O2    c     0.756148    0.887073    0.304369    0.000000
    81  O2    c     0.068807    0.866944    0.638309    0.000000
    82  O3    c     0.854364    0.783449    0.473220    0.000000
    83  O2    c     0.199043    0.079507    0.804350    0.000000
    84  O2    c     0.883724    0.112201    0.136499    0.000000
    85  O2    c     0.182675    0.098771    0.354312    0.000000
    86  O2    c     0.909173    0.795071    0.025831    0.000000
    87  O2    c     0.859584    0.081873    0.692533    0.000000
    88  O2    c     0.771448    0.865143    0.857273    0.000000
    89  O2    c     0.081616    0.212903    0.525352    0.000000
    90  O2    c     0.098246    0.895679    0.193019    0.000000
    91  O2    c     0.897756    0.839497    0.246523    0.000000
    92  O2    c     0.118235    0.057505    0.580516    0.000000
    93  O2    c     0.920850    0.053884    0.913524    0.000000
    94  O2    c     0.056636    0.128626    0.747031    0.000000
    95  O2    c     0.837117    0.920729    0.081284    0.000000
    96  O2    c     0.036832    0.913476    0.413713    0.000000
    97  O2    c     0.895325    0.198130    0.973019    0.000000
    98  O2    c     0.759454    0.670489    0.307997    0.000000
    99  O2    c     0.284181    0.090365    0.644446    0.000000
   100  O2    c     0.073053    0.787389    0.478139    0.000000
   101  O2    c     0.189993    0.293474    0.810033    0.000000
   102  O2    c     0.672225    0.887313    0.145013    0.000000
   103  O2    c     0.171134    0.874424    0.352785    0.000000
   104  O2    c     0.683786    0.787717    0.017014    0.000000
   105  O2    c     0.084109    0.296007    0.685586    0.000000
   106  O2    c     0.782432    0.089277    0.852264    0.000000
   107  O3    c     0.288696    0.193688    0.518639    0.000000
   108  O2    c     0.874535    0.683859    0.182066    0.000000
   109  O2    c     0.292616    0.624022    0.247554    0.000000
   110  O2    c     0.338589    0.676684    0.582076    0.000000
   111  O2    c     0.304724    0.666636    0.913749    0.000000
   112  O2    c     0.662902    0.346898    0.748478    0.000000
   113  O3    c     0.603079    0.297249    0.084307    0.000000
   114  O2    c     0.651346    0.305410    0.416438    0.000000
   115  O2    c     0.362077    0.322871    0.967567    0.000000
   116  O2    c     0.639627    0.018099    0.304452    0.000000
   117  O2    c     0.938333    0.616994    0.636479    0.000000
   118  O3    c     0.594890    0.660572    0.466746    0.000000
   119  O2    c     0.315016    0.947968    0.802605    0.000000
   120  O2    c     0.013543    0.360769    0.132418    0.000000
   121  O2    c     0.298990    0.350011    0.361129    0.000000
   122  O2    c     0.026178    0.661440    0.026112    0.000000
   123  O2    c     0.610954    0.950222    0.694475    0.000000
   124  O2    c     0.654730    0.618055    0.859658    0.000000
   125  O2    c     0.945535    0.323892    0.528786    0.000000
   126  O2    c     0.346769    0.024684    0.196076    0.000000
   127  O3    c     0.748528    0.280046    0.002141    0.000000
   128  O2    c     0.660660    0.439997    0.343723    0.000000
   129  O2    c     0.516462    0.222041    0.675702    0.000000
   130  O2    c     0.210057    0.696468    0.509735    0.000000
   131  O2    c     0.288743    0.524305    0.840430    0.000000
   132  O2    c     0.439099    0.754976    0.175261    0.000000
   133  O2    c     0.271704    0.744754    0.321032    0.000000
   134  O2    c     0.451848    0.688199    0.986606    0.000000
   135  O2    c     0.214347    0.529500    0.654904    0.000000
   136  O2    c     0.683081    0.221836    0.821416    0.000000
   137  O3    c     0.518292    0.279097    0.491570    0.000000
   138  O2    c     0.740985    0.451847    0.151325    0.000000
   139  O3    c     0.769190    0.544161    0.018228    0.000000
   140  O2    c     0.435436    0.228790    0.363442    0.000000
   141  O2    c     0.735000    0.208297    0.693179    0.000000
   142  O2    c     0.201002    0.465502    0.526327    0.000000
   143  O2    c     0.519702    0.742093    0.858373    0.000000
   144  O2    c     0.219844    0.766036    0.193360    0.000000
   145  O2    c     0.504302    0.759598    0.303462    0.000000
   146  O2    c     0.234251    0.454506    0.969765    0.000000
   147  O2    c     0.197346    0.744912    0.637287    0.000000
   148  O2    c     0.450929    0.206563    0.803891    0.000000
   149  O3    c     0.721302    0.510508    0.474152    0.000000
   150  O2    c     0.758058    0.238737    0.133456    0.000000
   151  O2    c     0.217105    0.315920    0.895078    0.000000
   152  O2    c     0.648243    0.889054    0.230162    0.000000
   153  O2    c     0.067534    0.760589    0.563627    0.000000
   154  O3    c     0.745107    0.650942    0.393783    0.000000
   155  O2    c     0.307426    0.083144    0.729718    0.000000
   156  O2    c     0.883536    0.222062    0.060270    0.000000
   157  O3    c     0.278406    0.201423    0.432023    0.000000
   158  O2    c     0.878566    0.657766    0.096320    0.000000
   159  O2    c     0.753824    0.084351    0.767361    0.000000
   160  O2    c     0.662074    0.759102    0.932346    0.000000
   161  O2    c     0.083100    0.320961    0.600753    0.000000
   162  O2    c     0.202106    0.886265    0.267948    0.000000
   163  O2    c     0.571253    0.550316    0.988700    0.000000
   164  O2    c     0.410669    0.002220    0.324455    0.000000
   165  O2    c     0.956149    0.404372    0.655377    0.000000
   166  O3    c     0.387152    0.440846    0.494440    0.000000
   167  O2    c     0.543823    0.963461    0.822775    0.000000
   168  O2    c     0.995584    0.567658    0.150160    0.000000
   169  O2    c     0.527275    0.559873    0.346065    0.000000
   170  O2    c     0.002168    0.432356    0.006141    0.000000
   171  O2    c     0.396273    0.964611    0.674293    0.000000
   172  O2    c     0.427461    0.404244    0.840606    0.000000
   173  O2    c     0.951791    0.550864    0.507892    0.000000
   174  O2    c     0.562134    0.013270    0.175932    0.000000
   175  O2    c     0.554301    0.142924    0.251449    0.000000
   176  O2    c     0.818782    0.408394    0.581832    0.000000
   177  O2    c     0.571536    0.412990    0.914765    0.000000
   178  O2    c     0.401784    0.827667    0.748481    0.000000
   179  O2    c     0.135640    0.566382    0.079573    0.000000
   180  O2    c     0.381584    0.556076    0.415811    0.000000
   181  F     c     0.422457    0.881679    0.249046    0.000000
   182  F     c     0.080256    0.544782    0.581294    0.000000
   183  F     c     0.434169    0.542625    0.913939    0.000000
   184  F     c     0.533539    0.088661    0.748502    0.000000
   185  F     c     0.843374    0.428548    0.071026    0.000000
   186  F     c     0.497534    0.410801    0.426860    0.000000
   187  O2    s     0.910746    0.997244    0.998647    0.000000
   188  O2    s     0.967029    0.894993    0.330070    0.000000
   189  O2    s     0.057568    0.068789    0.663629    0.000000
   190  O2    s     0.058788    0.996475    0.496578    0.000000
   191  O2    s     0.984880    0.065934    0.829932    0.000000
   192  O2    s     0.900955    0.913426    0.164369    0.000000
   193  O2    s     0.321086    0.562452    0.330872    0.000000
   194  O2    s     0.396997    0.761112    0.665139    0.000000
   195  O2    s     0.216884    0.636035    0.996700    0.000000
   196  O2    s     0.633925    0.404939    0.831398    0.000000
   197  O2    s     0.560806    0.217565    0.169318    0.000000
   198  O2    s     0.755998    0.337081    0.498386    0.000000
   199  O3    s     0.569222    0.344239    0.997569    0.000000
   200  O2    s     0.749514    0.404221    0.665219    0.000000
   201  O2    s     0.616997    0.207554    0.334632    0.000000
   202  O2    s     0.389682    0.648896    0.497640    0.000000
   203  O2    s     0.206058    0.571974    0.164034    0.000000
   204  O2    s     0.336749    0.756832    0.831428    0.000000
   205  O2    s     0.111821    0.206427    0.966673    0.000000
   206  O2    s     0.752482    0.880383    0.301596    0.000000
   207  O2    s     0.075457    0.870011    0.635542    0.000000
   208  O3    s     0.859194    0.781142    0.470875    0.000000
   209  O2    s     0.202424    0.086229    0.801617    0.000000
   210  O2    s     0.877226    0.108780    0.133763    0.000000
   211  O2    s     0.185029    0.095321    0.357666    0.000000
   212  O2    s     0.899513    0.789318    0.027834    0.000000
   213  O2    s     0.862979    0.088511    0.695089    0.000000
   214  O2    s     0.768257    0.868593    0.859975    0.000000
   215  O2    s     0.087420    0.216574    0.528018    0.000000
   216  O2    s     0.094637    0.888710    0.195458    0.000000
   217  O2    s     0.897019    0.836971    0.246605    0.000000
   218  O2    s     0.122387    0.059797    0.580980    0.000000
   219  O2    s     0.919215    0.056740    0.913530    0.000000
   220  O2    s     0.057654    0.131895    0.747136    0.000000
   221  O2    s     0.835209    0.919975    0.081481    0.000000
   222  O2    s     0.039676    0.912788    0.413561    0.000000
   223  O2    s     0.901092    0.198350    0.976043    0.000000
   224  O2    s     0.759237    0.676940    0.311031    0.000000
   225  O2    s     0.278213    0.082931    0.647046    0.000000
   226  O2    s     0.066291    0.786507    0.480939    0.000000
   227  O2    s     0.191304    0.287267    0.812693    0.000000
   228  O2    s     0.678177    0.894774    0.147580    0.000000
   229  O2    s     0.172896    0.882201    0.349915    0.000000
   230  O2    s     0.690241    0.787084    0.014565    0.000000
   231  O2    s     0.076612    0.289879    0.682850    0.000000
   232  O2    s     0.781116    0.081773    0.849519    0.000000
   233  O3    s     0.278768    0.192497    0.517004    0.000000
   234  O2    s     0.881759    0.689882    0.179584    0.000000
   235  O2    s     0.298534    0.635883    0.247636    0.000000
   236  O2    s     0.326504    0.670609    0.582074    0.000000
   237  O2    s     0.310975    0.660845    0.913847    0.000000
   238  O2    s     0.656939    0.335117    0.748498    0.000000
   239  O3    s     0.615790    0.302781    0.086256    0.000000
   240  O2    s     0.645440    0.309354    0.416185    0.000000
   241  O2    s     0.364411    0.332453    0.965458    0.000000
   242  O2    s     0.629640    0.011573    0.302111    0.000000
   243  O2    s     0.945182    0.614119    0.634183    0.000000
   244  O3    s     0.590535    0.650755    0.465662    0.000000
   245  O2    s     0.325045    0.954774    0.800351    0.000000
   246  O2    s     0.007630    0.364105    0.130394    0.000000
   247  O2    s     0.308001    0.353438    0.363344    0.000000
   248  O2    s     0.019878    0.651910    0.027728    0.000000
   249  O2    s     0.607727    0.957013    0.696736    0.000000
   250  O2    s     0.644916    0.614826    0.861977    0.000000
   251  O2    s     0.952278    0.334163    0.530925    0.000000
   252  O2    s     0.349753    0.017812    0.198347    0.000000
   253  O3    s     0.759560    0.287040    0.005288    0.000000
   254  O2    s     0.654390    0.439879    0.346631    0.000000
   255  O2    s     0.517028    0.214940    0.678802    0.000000
   256  O2    s     0.202593    0.688216    0.512886    0.000000
   257  O2    s     0.296295    0.524865    0.843687    0.000000
   258  O2    s     0.438534    0.761679    0.178466    0.000000
   259  O2    s     0.279423    0.751953    0.317988    0.000000
   260  O2    s     0.450943    0.680261    0.983453    0.000000
   261  O2    s     0.207290    0.529808    0.651759    0.000000
   262  O2    s     0.675412    0.214765    0.818300    0.000000
   263  O3    s     0.523758    0.288785    0.487982    0.000000
   264  O2    s     0.747832    0.451992    0.148620    0.000000
   265  O3    s     0.778416    0.545769    0.021670    0.000000
   266  O2    s     0.438450    0.235609    0.365370    0.000000
   267  O2    s     0.727013    0.202938    0.695803    0.000000
   268  O2    s     0.195757    0.467716    0.529017    0.000000
   269  O2    s     0.517004    0.733911    0.860994    0.000000
   270  O2    s     0.228061    0.771287    0.195945    0.000000
   271  O2    s     0.501576    0.765074    0.300929    0.000000
   272  O2    s     0.242593    0.457798    0.967076    0.000000
   273  O2    s     0.192128    0.736950    0.634754    0.000000
   274  O2    s     0.453649    0.201441    0.801272    0.000000
   275  O3    s     0.715464    0.507808    0.471805    0.000000
   276  O2    s     0.762589    0.244844    0.131269    0.000000
   277  O2    s     0.226977    0.325485    0.895930    0.000000
   278  O2    s     0.638590    0.888718    0.231028    0.000000
   279  O2    s     0.068431    0.751435    0.564471    0.000000
   280  O3    s     0.735684    0.642845    0.393793    0.000000
   281  O2    s     0.317054    0.083422    0.730578    0.000000
   282  O2    s     0.883121    0.229760    0.061344    0.000000
   283  O3    s     0.288369    0.210587    0.429301    0.000000
   284  O2    s     0.879286    0.649931    0.096018    0.000000
   285  O2    s     0.744422    0.084579    0.766453    0.000000
   286  O2    s     0.652329    0.749692    0.931444    0.000000
   287  O2    s     0.082732    0.330110    0.599874    0.000000
   288  O2    s     0.211395    0.886062    0.267011    0.000000
   289  O2    s     0.567491    0.551332    0.985345    0.000000
   290  O2    s     0.410556    0.997678    0.321032    0.000000
   291  O2    s     0.961037    0.409264    0.652124    0.000000
   292  O3    s     0.392895    0.444215    0.490337    0.000000
   293  O2    s     0.544147    0.968364    0.819387    0.000000
   294  O2    s     0.992125    0.564144    0.147357    0.000000
   295  O2    s     0.527461    0.555994    0.348412    0.000000
   296  O2    s     0.999498    0.432703    0.008965    0.000000
   297  O2    s     0.400881    0.969525    0.677668    0.000000
   298  O2    s     0.427177    0.408905    0.843867    0.000000
   299  O2    s     0.957161    0.551398    0.511305    0.000000
   300  O2    s     0.557289    0.007935    0.179245    0.000000
   301  O2    s     0.548744    0.131842    0.251387    0.000000
   302  O2    s     0.829995    0.413898    0.581911    0.000000
   303  O2    s     0.566145    0.417756    0.914509    0.000000
   304  O2    s     0.407332    0.838711    0.748494    0.000000
   305  O2    s     0.126188    0.561766    0.079725    0.000000
   306  O2    s     0.387153    0.552364    0.415361    0.000000
   307  F     s     0.422209    0.881150    0.249019    0.000000
   308  F     s     0.080754    0.545221    0.581160    0.000000
   309  F     s     0.433510    0.543243    0.913932    0.000000
   310  F     s     0.533824    0.089089    0.748496    0.000000
   311  F     s     0.832714    0.424743    0.068419    0.000000
   312  F     s     0.491679    0.404802    0.429738    0.000000
--------------------------------------------------------------------------------

  Final Cartesian lattice vectors (Angstroms) :

       11.978361    0.003728   -0.003385
       -6.055066   10.377509    0.023264
       -0.123275    0.026473   29.386012


  Final cell parameters and derivatives :

--------------------------------------------------------------------------------
       a           11.978362 Angstrom     dE/de1(xx)    -0.000987 eV/strain
       b           12.014869 Angstrom     dE/de2(yy)    -0.000823 eV/strain
       c           29.386282 Angstrom     dE/de3(zz)    -0.000464 eV/strain
       alpha       89.723347 Degrees      dE/de4(yz)    -0.000197 eV/strain
       beta        90.256531 Degrees      dE/de5(xz)    -0.000057 eV/strain
       gamma      120.244838 Degrees      dE/de6(xy)     0.000027 eV/strain
--------------------------------------------------------------------------------

  Primitive cell volume =          3653.496399 Angs**3

  Density of cell =      1.751224 g/cm**3

  Non-primitive cell volume =          3653.496399 Angs**3


  Final internal derivatives :

--------------------------------------------------------------------------------
   No.  Atomic          a             b             c           Radius
        Label          (eV)          (eV)          (eV)        (eV/Angs)
--------------------------------------------------------------------------------
      1 Ge    c       0.000000      0.000000      0.000000      0.000000
      2 Si    c       0.000160     -0.000184     -0.000509      0.000000
      3 Si    c      -0.000013      0.000002      0.000159      0.000000
      4 Si    c       0.000325     -0.000073     -0.001277      0.000000
      5 Si    c      -0.000031      0.000006     -0.000014      0.000000
      6 Si    c      -0.000007      0.000089     -0.000376      0.000000
      7 Si    c       0.000025      0.000050      0.000208      0.000000
      8 Si    c      -0.000116      0.000065      0.000239      0.000000
      9 Si    c       0.000060     -0.000003      0.000307      0.000000
     10 Si    c      -0.000001     -0.000011     -0.000073      0.000000
     11 Si    c       0.001112     -0.000600      0.001634      0.000000
     12 Si    c      -0.000333      0.000012     -0.000697      0.000000
     13 Si    c      -0.000145      0.000023     -0.000198      0.000000
     14 Si    c       0.000004     -0.000033      0.000040      0.000000
     15 Si    c       0.000020      0.000016      0.000111      0.000000
     16 Si    c      -0.000486      0.000620      0.001504      0.000000
     17 Si    c      -0.000000      0.000005      0.000004      0.000000
     18 Si    c       0.000128     -0.000061     -0.000038      0.000000
     19 Si    c      -0.000115      0.000077     -0.000207      0.000000
     20 Si    c       0.000081      0.000005      0.000022      0.000000
     21 Si    c       0.000005      0.000001     -0.000005      0.000000
     22 Si    c      -0.000038      0.000021      0.000123      0.000000
     23 Si    c      -0.000300     -0.000093     -0.000934      0.000000
     24 Si    c      -0.000102     -0.000016     -0.000103      0.000000
     25 Si    c       0.000020      0.000059      0.000081      0.000000
     26 Si    c      -0.000087      0.000005     -0.000102      0.000000
     27 Si    c       0.000070     -0.000021     -0.000440      0.000000
     28 Si    c      -0.000024      0.000102      0.000103      0.000000
     29 Si    c       0.000024     -0.000016      0.000082      0.000000
     30 Si    c      -0.000067     -0.000097      0.000399      0.000000
     31 Ge    c      -0.000958     -0.000763      0.003470      0.000000
     32 Si    c      -0.000199     -0.000180     -0.000777      0.000000
     33 Si    c      -0.000015      0.000011     -0.000059      0.000000
     34 Si    c       0.000016     -0.000028     -0.000141      0.000000
     35 Si    c      -0.000052      0.000047      0.000135      0.000000
     36 Si    c       0.000078      0.000010      0.000073      0.000000
     37 Si    c       0.000002      0.000083     -0.000143      0.000000
     38 Si    c      -0.000002      0.000016      0.000153      0.000000
     39 Si    c      -0.000053      0.000007      0.000217      0.000000
     40 Ge    c       0.000007      0.000025     -0.000115      0.000000
     41 Si    c      -0.000010      0.000012     -0.000025      0.000000
     42 Si    c      -0.000062      0.000149      0.000484      0.000000
     43 Si    c      -0.000058     -0.000067      0.000387      0.000000
     44 Si    c       0.000208     -0.000254     -0.000898      0.000000
     45 Si    c      -0.000008      0.000002      0.000018      0.000000
     46 Si    c       0.000001     -0.000018      0.000039      0.000000
     47 Si    c      -0.000077      0.000021      0.000014      0.000000
     48 Si    c       0.000082     -0.000040     -0.000154      0.000000
     49 Si    c       0.000060     -0.000031     -0.000146      0.000000
     50 Si    c      -0.000028      0.000052      0.000066      0.000000
     51 Si    c       0.000028     -0.000005      0.000280      0.000000
     52 Si    c      -0.000033      0.000062      0.000965      0.000000
     53 Si    c       0.000014     -0.000012     -0.000015      0.000000
     54 Si    c      -0.000009      0.000067      0.000117      0.000000
     55 Si    c      -0.000041      0.000001      0.000318      0.000000
     56 Si    c       0.000111     -0.000158      0.000189      0.000000
     57 Si    c      -0.000004     -0.000002      0.000015      0.000000
     58 Si    c       0.000011     -0.000112     -0.000083      0.000000
     59 Si    c       0.000260     -0.000167     -0.001501      0.000000
     60 Si    c       0.000022      0.000026      0.000050      0.000000
     61 O2    c      -0.000087      0.000090      0.000078      0.000000
     62 O2    c       0.000053     -0.000017      0.000080      0.000000
     63 O2    c       0.000068     -0.000070     -0.000112      0.000000
     64 O2    c       0.000715     -0.000187      0.000283      0.000000
     65 O2    c       0.000002      0.000009      0.000017      0.000000
     66 O2    c      -0.000007      0.000017     -0.000009      0.000000
     67 O2    c       0.000046     -0.000047      0.000145      0.000000
     68 O2    c       0.000002     -0.000008     -0.000056      0.000000
     69 O2    c       0.000180     -0.000167     -0.000343      0.000000
     70 O2    c       0.000006     -0.000019     -0.000027      0.000000
     71 O2    c       0.000029      0.000160     -0.000207      0.000000
     72 O2    c      -0.000736      0.000639     -0.000970      0.000000
     73 O3    c      -0.000110     -0.000055     -0.000150      0.000000
     74 O2    c       0.000007      0.000005     -0.000040      0.000000
     75 O2    c      -0.000020      0.000039      0.000139      0.000000
     76 O2    c       0.000335     -0.000708     -0.000553      0.000000
     77 O2    c      -0.000079      0.000122     -0.000014      0.000000
     78 O2    c       0.000048     -0.000060      0.000068      0.000000
     79 O2    c      -0.000076     -0.000052     -0.000005      0.000000
     80 O2    c       0.000022     -0.000010      0.000000      0.000000
     81 O2    c      -0.000009      0.000014      0.000025      0.000000
     82 O3    c       0.000459      0.000101     -0.000545      0.000000
     83 O2    c       0.000024     -0.000014     -0.000012      0.000000
     84 O2    c       0.000016     -0.000055      0.000031      0.000000
     85 O2    c       0.000075      0.000084      0.000189      0.000000
     86 O2    c      -0.000377      0.000354     -0.000081      0.000000
     87 O2    c       0.000019     -0.000013     -0.000031      0.000000
     88 O2    c       0.000014      0.000106      0.000049      0.000000
     89 O2    c       0.000388     -0.000530      0.000232      0.000000
     90 O2    c      -0.000012      0.000020     -0.000063      0.000000
     91 O2    c       0.000019      0.000011     -0.000028      0.000000
     92 O2    c      -0.000150     -0.000015      0.000003      0.000000
     93 O2    c       0.000045      0.000043      0.000254      0.000000
     94 O2    c      -0.000013     -0.000001     -0.000054      0.000000
     95 O2    c       0.000155     -0.000031     -0.000398      0.000000
     96 O2    c       0.000084      0.000085     -0.000157      0.000000
     97 O2    c       0.000053     -0.000051      0.000059      0.000000
     98 O2    c      -0.000019     -0.000017      0.000029      0.000000
     99 O2    c       0.000046     -0.000015      0.000008      0.000000
    100 O2    c      -0.000750      0.000833     -0.000377      0.000000
    101 O2    c      -0.000002      0.000001     -0.000032      0.000000
    102 O2    c       0.000040     -0.000014     -0.000101      0.000000
    103 O2    c       0.000027     -0.000012      0.000034      0.000000
    104 O2    c       0.000105      0.000056      0.000173      0.000000
    105 O2    c      -0.000004      0.000001      0.000008      0.000000
    106 O2    c      -0.000018      0.000024     -0.000018      0.000000
    107 O3    c      -0.001294     -0.000062      0.000621      0.000000
    108 O2    c       0.000019     -0.000006      0.000042      0.000000
    109 O2    c       0.000006     -0.000014     -0.000032      0.000000
    110 O2    c       0.000058      0.000020     -0.000165      0.000000
    111 O2    c       0.000040     -0.000037      0.000026      0.000000
    112 O2    c       0.000003     -0.000028     -0.000052      0.000000
    113 O3    c       0.000200      0.000121     -0.001001      0.000000
    114 O2    c       0.000064     -0.000062      0.000085      0.000000
    115 O2    c      -0.000018      0.000007     -0.000053      0.000000
    116 O2    c       0.000002     -0.000001      0.000011      0.000000
    117 O2    c       0.000037      0.000016     -0.000055      0.000000
    118 O3    c      -0.000299     -0.000067      0.000091      0.000000
    119 O2    c       0.000010     -0.000011      0.000007      0.000000
    120 O2    c       0.000015      0.000108     -0.000115      0.000000
    121 O2    c       0.000016      0.000052      0.000022      0.000000
    122 O2    c      -0.000117      0.000148      0.000106      0.000000
    123 O2    c       0.000003     -0.000005     -0.000017      0.000000
    124 O2    c      -0.000025      0.000038      0.000055      0.000000
    125 O2    c       0.000016     -0.000026      0.000019      0.000000
    126 O2    c      -0.000007     -0.000013     -0.000016      0.000000
    127 O3    c       0.000260     -0.000255     -0.000090      0.000000
    128 O2    c       0.000021     -0.000011     -0.000012      0.000000
    129 O2    c       0.000006     -0.000001     -0.000006      0.000000
    130 O2    c       0.000062     -0.000078      0.000155      0.000000
    131 O2    c       0.000054     -0.000074      0.000012      0.000000
    132 O2    c      -0.000063      0.000024      0.000140      0.000000
    133 O2    c       0.000007      0.000011      0.000003      0.000000
    134 O2    c       0.000008     -0.000010     -0.000030      0.000000
    135 O2    c      -0.000003      0.000051     -0.000048      0.000000
    136 O2    c      -0.000002     -0.000003     -0.000010      0.000000
    137 O3    c      -0.000024     -0.000058     -0.000203      0.000000
    138 O2    c       0.000166      0.000226     -0.000182      0.000000
    139 O3    c       0.000226     -0.000219      0.000936      0.000000
    140 O2    c      -0.000024     -0.000033     -0.000001      0.000000
    141 O2    c       0.000006     -0.000010     -0.000001      0.000000
    142 O2    c      -0.000212      0.000198      0.000379      0.000000
    143 O2    c       0.000077     -0.000029      0.000021      0.000000
    144 O2    c       0.000095     -0.000057      0.000018      0.000000
    145 O2    c      -0.000007      0.000001     -0.000001      0.000000
    146 O2    c       0.000055     -0.000031     -0.000134      0.000000
    147 O2    c       0.000014      0.000014      0.000020      0.000000
    148 O2    c       0.000001      0.000003      0.000016      0.000000
    149 O3    c      -0.000051      0.000192     -0.000311      0.000000
    150 O2    c       0.000038     -0.000037      0.000075      0.000000
    151 O2    c       0.000001     -0.000002      0.000118      0.000000
    152 O2    c       0.000029      0.000003      0.000029      0.000000
    153 O2    c       0.000023      0.000025     -0.000048      0.000000
    154 O3    c      -0.000045     -0.000016      0.000329      0.000000
    155 O2    c       0.000016     -0.000008      0.000001      0.000000
    156 O2    c      -0.000269      0.000057     -0.001360      0.000000
    157 O3    c       0.000613      0.000105      0.000674      0.000000
    158 O2    c       0.000130     -0.000207      0.003044      0.000000
    159 O2    c      -0.000004     -0.000002     -0.000014      0.000000
    160 O2    c      -0.000007     -0.000023     -0.000023      0.000000
    161 O2    c      -0.000008     -0.000037     -0.000012      0.000000
    162 O2    c       0.000009      0.000001      0.000061      0.000000
    163 O2    c      -0.000029      0.000032     -0.000125      0.000000
    164 O2    c      -0.000038     -0.000028     -0.000016      0.000000
    165 O2    c       0.000035     -0.000032     -0.000033      0.000000
    166 O3    c       0.000189     -0.000156     -0.001440      0.000000
    167 O2    c      -0.000012     -0.000002     -0.000009      0.000000
    168 O2    c      -0.000082      0.000067      0.000059      0.000000
    169 O2    c       0.000118     -0.000004     -0.000043      0.000000
    170 O2    c      -0.000019     -0.000191      0.000075      0.000000
    171 O2    c       0.000000     -0.000005     -0.000014      0.000000
    172 O2    c      -0.000007     -0.000008      0.000033      0.000000
    173 O2    c       0.000078     -0.000031      0.000206      0.000000
    174 O2    c       0.000027     -0.000038     -0.000078      0.000000
    175 O2    c       0.000025      0.000032      0.000360      0.000000
    176 O2    c      -0.000056      0.000027      0.000184      0.000000
    177 O2    c      -0.000022     -0.000001     -0.000077      0.000000
    178 O2    c       0.000003      0.000000     -0.000021      0.000000
    179 O2    c      -0.000020     -0.000011      0.000461      0.000000
    180 O2    c       0.000076     -0.000050      0.000348      0.000000
    181 F     c       0.000036      0.000066     -0.000061      0.000000
    182 F     c      -0.000090     -0.000037      0.000084      0.000000
    183 F     c       0.000004     -0.000006      0.000017      0.000000
    184 F     c      -0.000002      0.000001      0.000016      0.000000
    185 F     c      -0.000185     -0.000005      0.000291      0.000000
    186 F     c       0.000101      0.000088     -0.002139      0.000000
    187 O2    s      -0.000006     -0.000082     -0.000125      0.000000
    188 O2    s       0.000008     -0.000031      0.000139      0.000000
    189 O2    s       0.000006      0.000035      0.000039      0.000000
    190 O2    s       0.000090     -0.000125      0.000197      0.000000
    191 O2    s      -0.000011     -0.000007      0.000063      0.000000
    192 O2    s       0.000003     -0.000067     -0.000029      0.000000
    193 O2    s       0.000011     -0.000039      0.000014      0.000000
    194 O2    s      -0.000002     -0.000023      0.000045      0.000000
    195 O2    s      -0.000089      0.000070     -0.000054      0.000000
    196 O2    s       0.000005      0.000013     -0.000023      0.000000
    197 O2    s       0.000069     -0.000163      0.000248      0.000000
    198 O2    s       0.000118     -0.000144      0.000228      0.000000
    199 O3    s      -0.000019      0.000156     -0.000150      0.000000
    200 O2    s      -0.000010      0.000003      0.000003      0.000000
    201 O2    s      -0.000025      0.000048     -0.000033      0.000000
    202 O2    s      -0.000104      0.000264     -0.000123      0.000000
    203 O2    s      -0.000004     -0.000084     -0.000058      0.000000
    204 O2    s       0.000007     -0.000015     -0.000004      0.000000
    205 O2    s      -0.000066      0.000077     -0.000039      0.000000
    206 O2    s       0.000006     -0.000005     -0.000017      0.000000
    207 O2    s       0.000006     -0.000027     -0.000040      0.000000
    208 O3    s       0.000370     -0.000135      0.000395      0.000000
    209 O2    s      -0.000006     -0.000009     -0.000023      0.000000
    210 O2    s       0.000056     -0.000049      0.000127      0.000000
    211 O2    s      -0.000047     -0.000040     -0.000070      0.000000
    212 O2    s      -0.000099     -0.000100     -0.000212      0.000000
    213 O2    s      -0.000008     -0.000002      0.000042      0.000000
    214 O2    s      -0.000034     -0.000013      0.000083      0.000000
    215 O2    s       0.000299     -0.000268     -0.000599      0.000000
    216 O2    s       0.000001     -0.000010      0.000123      0.000000
    217 O2    s      -0.000002     -0.000008     -0.000042      0.000000
    218 O2    s       0.000065      0.000145     -0.000769      0.000000
    219 O2    s      -0.000038      0.000019      0.000017      0.000000
    220 O2    s       0.000002     -0.000006      0.000011      0.000000
    221 O2    s       0.000020     -0.000193     -0.000192      0.000000
    222 O2    s      -0.000094     -0.000229      0.000572      0.000000
    223 O2    s       0.000026      0.000028      0.000183      0.000000
    224 O2    s      -0.000008      0.000022      0.000105      0.000000
    225 O2    s      -0.000055      0.000052     -0.000085      0.000000
    226 O2    s      -0.000380      0.000164     -0.000169      0.000000
    227 O2    s      -0.000009      0.000025      0.000007      0.000000
    228 O2    s       0.000025      0.000005     -0.000006      0.000000
    229 O2    s      -0.000067      0.000017     -0.000016      0.000000
    230 O2    s       0.000078      0.000087      0.000269      0.000000
    231 O2    s       0.000016     -0.000012      0.000018      0.000000
    232 O2    s       0.000021     -0.000054      0.000049      0.000000
    233 O3    s      -0.000135      0.000307      0.000045      0.000000
    234 O2    s      -0.000045     -0.000060     -0.000409      0.000000
    235 O2    s      -0.000054      0.000054      0.000014      0.000000
    236 O2    s      -0.000030     -0.000054      0.000206      0.000000
    237 O2    s       0.000023     -0.000014      0.000094      0.000000
    238 O2    s       0.000001      0.000021      0.000033      0.000000
    239 O3    s      -0.000135     -0.000207      0.001207      0.000000
    240 O2    s      -0.000199      0.000247      0.000148      0.000000
    241 O2    s      -0.000024      0.000020      0.000118      0.000000
    242 O2    s       0.000005      0.000005     -0.000053      0.000000
    243 O2    s       0.000020     -0.000007     -0.000047      0.000000
    244 O3    s       0.000012      0.000032     -0.000212      0.000000
    245 O2    s      -0.000011      0.000001     -0.000018      0.000000
    246 O2    s       0.000128      0.000012      0.000072      0.000000
    247 O2    s       0.000042      0.000067      0.000107      0.000000
    248 O2    s       0.000177     -0.000183     -0.000451      0.000000
    249 O2    s      -0.000011      0.000000      0.000043      0.000000
    250 O2    s      -0.000009      0.000018      0.000016      0.000000
    251 O2    s      -0.000020      0.000085     -0.000010      0.000000
    252 O2    s       0.000041      0.000036      0.000125      0.000000
    253 O3    s       0.000008      0.000176     -0.000029      0.000000
    254 O2    s      -0.000115      0.000041      0.000334      0.000000
    255 O2    s      -0.000010     -0.000004      0.000013      0.000000
    256 O2    s       0.000021      0.000042     -0.000239      0.000000
    257 O2    s      -0.000027      0.000047      0.000009      0.000000
    258 O2    s       0.000107     -0.000063     -0.000199      0.000000
    259 O2    s      -0.000020     -0.000010     -0.000047      0.000000
    260 O2    s      -0.000051      0.000015     -0.000059      0.000000
    261 O2    s      -0.000010      0.000012     -0.000097      0.000000
    262 O2    s       0.000009      0.000005      0.000014      0.000000
    263 O3    s       0.000349      0.000244     -0.000099      0.000000
    264 O2    s       0.000050      0.000148     -0.000242      0.000000
    265 O3    s      -0.000577      0.000006     -0.000830      0.000000
    266 O2    s       0.000134      0.000084     -0.000094      0.000000
    267 O2    s      -0.000011      0.000001      0.000012      0.000000
    268 O2    s       0.000413     -0.000449     -0.000620      0.000000
    269 O2    s      -0.000015     -0.000015      0.000042      0.000000
    270 O2    s      -0.000111      0.000002     -0.000001      0.000000
    271 O2    s       0.000028      0.000018     -0.000112      0.000000
    272 O2    s      -0.000051      0.000040      0.000136      0.000000
    273 O2    s      -0.000034     -0.000079     -0.000100      0.000000
    274 O2    s       0.000003     -0.000004     -0.000036      0.000000
    275 O3    s      -0.000131     -0.000220      0.000216      0.000000
    276 O2    s      -0.000115      0.000003      0.000696      0.000000
    277 O2    s      -0.000014     -0.000003     -0.000017      0.000000
    278 O2    s      -0.000025     -0.000010      0.000037      0.000000
    279 O2    s      -0.000105      0.000041      0.000276      0.000000
    280 O3    s       0.000073     -0.000006     -0.000693      0.000000
    281 O2    s      -0.000010      0.000004      0.000001      0.000000
    282 O2    s       0.000133      0.000089     -0.000458      0.000000
    283 O3    s      -0.000950     -0.000134     -0.001155      0.000000
    284 O2    s       0.000061      0.000232     -0.000473      0.000000
    285 O2    s      -0.000003      0.000004      0.000018      0.000000
    286 O2    s       0.000010      0.000036     -0.000121      0.000000
    287 O2    s       0.000071     -0.000021      0.000055      0.000000
    288 O2    s      -0.000005     -0.000004     -0.000040      0.000000
    289 O2    s       0.000026     -0.000021      0.000217      0.000000
    290 O2    s       0.000032      0.000026     -0.000033      0.000000
    291 O2    s      -0.000029      0.000042      0.000108      0.000000
    292 O3    s      -0.000045      0.000190      0.000920      0.000000
    293 O2    s       0.000018     -0.000012      0.000015      0.000000
    294 O2    s      -0.000131      0.000013     -0.000273      0.000000
    295 O2    s       0.000044     -0.000159      0.000183      0.000000
    296 O2    s      -0.000155     -0.000008     -0.000094      0.000000
    297 O2    s      -0.000003      0.000007      0.000053      0.000000
    298 O2    s      -0.000010      0.000021      0.000036      0.000000
    299 O2    s      -0.000132     -0.000013     -0.000213      0.000000
    300 O2    s      -0.000017      0.000063      0.000181      0.000000
    301 O2    s      -0.000043     -0.000016     -0.000118      0.000000
    302 O2    s       0.000027      0.000001     -0.000055      0.000000
    303 O2    s       0.000023      0.000027     -0.000040      0.000000
    304 O2    s      -0.000004     -0.000000      0.000006      0.000000
    305 O2    s       0.000030     -0.000031     -0.000074      0.000000
    306 O2    s       0.000016     -0.000065      0.000012      0.000000
    307 F     s      -0.000052     -0.000122      0.000100      0.000000
    308 F     s       0.000131      0.000087     -0.000101      0.000000
    309 F     s      -0.000022      0.000038     -0.000005      0.000000
    310 F     s       0.000002     -0.000007     -0.000045      0.000000
    311 F     s       0.000096      0.000101     -0.000733      0.000000
    312 F     s       0.000626      0.000766     -0.000226      0.000000
--------------------------------------------------------------------------------
  Maximum abs         0.001294      0.000833      0.003470      0.000000
--------------------------------------------------------------------------------


  Time to end of optimisation =       9.1189 seconds


  Peak dynamic memory used =      19.13 MB 


  Timing analysis for GULP :

--------------------------------------------------------------------------------
  Task / Subroutine                                          Time (Seconds)
--------------------------------------------------------------------------------
  Calculation of reciprocal space energy and derivatives          0.3257
  Calculation of real space energy and derivatives                7.6984
  Calculation of three-body energy and derivatives                0.8641
  Calculation of matrix inversion                                 0.1920
--------------------------------------------------------------------------------
  Total CPU time                                                  9.1189
--------------------------------------------------------------------------------


  Dump file written as out.res                                                 
  CIF file written as out.cif                                                 


  Job Finished at 13:09.43  1st December   2016                               

