********************************************************************************
*                       GENERAL UTILITY LATTICE PROGRAM                        *
*                                 Julian Gale                                  *
*                      Nanochemistry Research Institute                        *
*                           Department of Chemistry                            *
*                    Curtin University, Western Australia                      *
********************************************************************************
* Version = 4.2.0 * Last modified =  20th January 2014                         *
********************************************************************************
*  optimise     - perform optimisation run                                     *
*  conp         - constant pressure calculation                                *
*  qok          - running with non charge neutral cell is OK                   *
********************************************************************************

  Job Started  at 06:49.12  1st December   2016                               

  Number of CPUs =     1


  Total number of configurations input =   1

********************************************************************************
*  Input for Configuration =   1                                               *
********************************************************************************

  Formula = Ge3Si57O120F6                                               

  Number of irreducible atoms/shells =     312


  Total number atoms/shells =     312

  Dimensionality = 3               :  Bulk   


  Charge on solid   =  -6.000000 =>neutralising background added


  Cartesian lattice vectors (Angstroms) :

       11.949303    0.000000    0.000000
       -6.038124   10.406739    0.000000
       -0.083824    0.019157   29.343266

  Cell parameters (Angstroms/Degrees):

  a =      11.9493    alpha =  89.8855
  b =      12.0316    beta  =  90.1637
  c =      29.3434    gamma = 120.1229

  Initial cell volume =        3648.931343 Angs**3

  Temperature of configuration =  0.000     K 

  Pressure of configuration =         0.000 GPa 

  Fractional coordinates of asymmetric unit :

--------------------------------------------------------------------------------
   No.  Atomic       x           y          z         Charge      Occupancy
        Label      (Frac)      (Frac)     (Frac)        (e)         (Frac)  
--------------------------------------------------------------------------------
      1 Ge    c    0.699600    0.375700    0.033890     4.00000    1.000000    
      2 Si    c    0.635028 *  0.327060 *  0.366543 *   4.00000    1.000000    
      3 Si    c    0.670863 *  0.303301 *  0.699187 *   4.00000    1.000000    
      4 Si    c    0.299512 *  0.615198 *  0.530071 *   4.00000    1.000000    
      5 Si    c    0.377105 *  0.676059 *  0.861287 *   4.00000    1.000000    
      6 Si    c    0.314078 *  0.702238 *  0.196896 *   4.00000    1.000000    
      7 Si    c    0.372043 *  0.686185 *  0.299097 *   4.00000    1.000000    
      8 Si    c    0.318918 *  0.621898 *  0.961787 *   4.00000    1.000000    
      9 Si    c    0.309952 *  0.681743 *  0.632539 *   4.00000    1.000000    
     10 Si    c    0.617440 *  0.297439 *  0.800318 *   4.00000    1.000000    
     11 Si    c    0.681237 *  0.381355 *  0.467543 *   4.00000    1.000000    
     12 Si    c    0.685006 *  0.318644 *  0.133293 *   4.00000    1.000000    
     13 Si    c    0.527096 *  0.418820 *  0.967334 *   4.00000    1.000000    
     14 Si    c    0.589780 *  0.113232 *  0.305991 *   4.00000    1.000000    
     15 Si    c    0.883604 *  0.470558 *  0.636954 *   4.00000    1.000000    
     16 Si    c    0.469301 *  0.577038 *  0.463330 *   4.00000    1.000000    
     17 Si    c    0.416814 *  0.888395 *  0.796865 *   4.00000    1.000000    
     18 Si    c    0.105580 *  0.533623 *  0.128528 *   4.00000    1.000000    
     19 Si    c    0.422272 *  0.518004 *  0.361652 *   4.00000    1.000000    
     20 Si    c    0.102452 *  0.582736 *  0.024703 *   4.00000    1.000000    
     21 Si    c    0.476062 *  0.899725 *  0.695341 *   4.00000    1.000000    
     22 Si    c    0.581074 *  0.470849 *  0.864798 *   4.00000    1.000000    
     23 Si    c    0.886160 *  0.410459 *  0.534044 *   4.00000    1.000000    
     24 Si    c    0.525557 *  0.116128 *  0.203278 *   4.00000    1.000000    
     25 Si    c    0.299329 *  0.398279 *  0.847561 *   4.00000    1.000000    
     26 Si    c    0.597740 *  0.906475 *  0.183712 *   4.00000    1.000000    
     27 Si    c    0.096499 *  0.694758 *  0.516190 *   4.00000    1.000000    
     28 Si    c    0.706492 *  0.600468 *  0.349228 *   4.00000    1.000000    
     29 Si    c    0.394854 *  0.100561 *  0.682684 *   4.00000    1.000000    
     30 Si    c    0.889656 *  0.295357 *  0.010427 *   4.00000    1.000000    
     31 Si    c    0.399869 *  0.298484 *  0.479315 *   4.00000    1.000000    
     32 Si    c    0.890367 *  0.603420 *  0.142180 *   4.00000    1.000000    
     33 Si    c    0.697592 *  0.098559 *  0.812568 *   4.00000    1.000000    
     34 Si    c    0.595847 *  0.698762 *  0.978507 *   4.00000    1.000000    
     35 Ge    c    0.099405 *  0.412244 *  0.641527 *   4.00000    1.000000    
     36 Ge    c    0.315471 *  0.897435 *  0.309102 *   4.00000    1.000000    
     37 Si    c    0.248605 *  0.343429 *  0.948699 *   4.00000    1.000000    
     38 Si    c    0.659407 *  0.905519 *  0.285645 *   4.00000    1.000000    
     39 Si    c    0.091579 *  0.750207 *  0.618248 *   4.00000    1.000000    
     40 Si    c    0.750485 *  0.658850 *  0.450316 *   4.00000    1.000000    
     41 Si    c    0.337024 *  0.087600 *  0.783763 *   4.00000    1.000000    
     42 Si    c    0.901200 *  0.251997 *  0.113971 *   4.00000    1.000000    
     43 Si    c    0.347850 *  0.241629 *  0.377891 *   4.00000    1.000000    
     44 Si    c    0.896807 *  0.660747 *  0.038987 *   4.00000    1.000000    
     45 Si    c    0.754335 *  0.102165 *  0.711358 *   4.00000    1.000000    
     46 Si    c    0.658557 *  0.749075 *  0.877688 *   4.00000    1.000000    
     47 Si    c    0.087714 *  0.328096 *  0.545405 *   4.00000    1.000000    
     48 Si    c    0.239817 *  0.913543 *  0.213611 *   4.00000    1.000000    
     49 Si    c    0.971219 *  0.122797 *  0.962620 *   4.00000    1.000000    
     50 Si    c    0.882413 *  0.847362 *  0.297860 *   4.00000    1.000000    
     51 Si    c    0.147031 *  0.029193 *  0.631076 *   4.00000    1.000000    
     52 Si    c    0.030620 *  0.874105 *  0.463187 *   4.00000    1.000000    
     53 Si    c    0.120108 *  0.150328 *  0.796148 *   4.00000    1.000000    
     54 Si    c    0.843367 *  0.975615 *  0.130246 *   4.00000    1.000000    
     55 Si    c    0.128661 *  0.960554 *  0.361594 *   4.00000    1.000000    
     56 Si    c    0.844515 *  0.882847 *  0.028835 *   4.00000    1.000000    
     57 Si    c    0.034969 *  0.161641 *  0.694369 *   4.00000    1.000000    
     58 Si    c    0.877207 *  0.027477 *  0.861972 *   4.00000    1.000000    
     59 Si    c    0.151078 *  0.116699 *  0.528658 *   4.00000    1.000000    
     60 Si    c    0.964386 *  0.851544 *  0.194504 *   4.00000    1.000000    
     61 O2    c    0.925727 *  0.006546 *  0.997822 *   0.87073    1.000000    
     62 O2    c    0.006466 *  0.929988 *  0.329008 *   0.87073    1.000000    
     63 O2    c    0.063701 *  0.069014 *  0.662205 *   0.87073    1.000000    
     64 O2    c    0.077020 *  0.995668 *  0.495639 *   0.87073    1.000000    
     65 O2    c    0.996713 *  0.070785 *  0.828339 *   0.87073    1.000000    
     66 O2    c    0.922173 *  0.934761 *  0.163840 *   0.87073    1.000000    
     67 O2    c    0.343360 *  0.558256 *  0.326524 *   0.87073    1.000000    
     68 O2    c    0.437204 *  0.780805 *  0.660770 *   0.87073    1.000000    
     69 O2    c    0.229982 *  0.658679 *  0.993551 *   0.87073    1.000000    
     70 O2    c    0.657161 *  0.419184 *  0.833534 *   0.87073    1.000000    
     71 O2    c    0.579104 *  0.244046 *  0.172925 *   0.87073    1.000000    
     72 O2    c    0.760718 *  0.339519 *  0.501371 *   0.87073    1.000000    
     73 O3    c    0.564872 *  0.337935 *  0.999893 *   1.33043    1.000000    
     74 O2    c    0.753718 *  0.428482 *  0.666797 *   0.87073    1.000000    
     75 O2    c    0.678407 *  0.242867 *  0.335510 *   0.87073    1.000000    
     76 O2    c    0.418627 *  0.652679 *  0.495392 *   0.87073    1.000000    
     77 O2    c    0.230583 *  0.584789 *  0.161695 *   0.87073    1.000000    
     78 O2    c    0.339806 *  0.760563 *  0.828096 *   0.87073    1.000000    
     79 O2    c    0.124543 *  0.215246 *  0.969148 *   0.87073    1.000000    
     80 O2    c    0.785751 *  0.904242 *  0.304373 *   0.87073    1.000000    
     81 O2    c    0.090912 *  0.875850 *  0.637156 *   0.87073    1.000000    
     82 O2    c    0.875936 *  0.786302 *  0.470174 *   0.87073    1.000000    
     83 O2    c    0.210128 *  0.086635 *  0.803746 *   0.87073    1.000000    
     84 O2    c    0.905888 *  0.129396 *  0.134845 *   0.87073    1.000000    
     85 O2    c    0.226029 *  0.115301 *  0.356671 *   0.87073    1.000000    
     86 O2    c    0.913551 *  0.798183 *  0.023343 *   0.87073    1.000000    
     87 O2    c    0.879587 *  0.105345 *  0.689781 *   0.87073    1.000000    
     88 O2    c    0.785757 *  0.873642 *  0.857199 *   0.87073    1.000000    
     89 O2    c    0.088471 *  0.207171 *  0.520482 *   0.87073    1.000000    
     90 O2    c    0.118492 *  0.913297 *  0.187888 *   0.87073    1.000000    
     91 O2    c    0.925616 *  0.860112 *  0.245715 *   0.87073    1.000000    
     92 O2    c    0.133602 *  0.061889 *  0.579183 *   0.87073    1.000000    
     93 O2    c    0.933821 *  0.064685 *  0.912564 *   0.87073    1.000000    
     94 O2    c    0.069797 *  0.137139 *  0.745223 *   0.87073    1.000000    
     95 O2    c    0.853279 *  0.932352 *  0.080188 *   0.87073    1.000000    
     96 O2    c    0.069754 *  0.924573 *  0.412461 *   0.87073    1.000000    
     97 O2    c    0.901207 *  0.204516 *  0.972668 *   0.87073    1.000000    
     98 O2    c    0.804107 *  0.696362 *  0.310427 *   0.87073    1.000000    
     99 O2    c    0.298850 *  0.102469 *  0.643798 *   0.87073    1.000000    
    100 O2    c    0.095206 *  0.787446 *  0.476563 *   0.87073    1.000000    
    101 O2    c    0.202976 *  0.301447 *  0.808826 *   0.87073    1.000000    
    102 O2    c    0.691749 *  0.908941 *  0.143887 *   0.87073    1.000000    
    103 O3    c    0.202209 *  0.887380 *  0.351019 *   1.33043    1.000000    
    104 O2    c    0.692638 *  0.799033 *  0.016956 *   0.87073    1.000000    
    105 O3    c    0.109270 *  0.307855 *  0.683030 *   1.33043    1.000000    
    106 O2    c    0.794048 *  0.096594 *  0.851378 *   0.87073    1.000000    
    107 O2    c    0.304155 *  0.201289 *  0.518022 *   0.87073    1.000000    
    108 O2    c    0.893282 *  0.701635 *  0.180531 *   0.87073    1.000000    
    109 O2    c    0.317115 *  0.644127 *  0.246502 *   0.87073    1.000000    
    110 O2    c    0.355363 *  0.671927 *  0.580370 *   0.87073    1.000000    
    111 O2    c    0.317761 *  0.677871 *  0.911292 *   0.87073    1.000000    
    112 O2    c    0.672849 *  0.357597 *  0.750098 *   0.87073    1.000000    
    113 O3    c    0.613011 *  0.303838 *  0.086279 *   1.33043    1.000000    
    114 O2    c    0.687856 *  0.326614 *  0.417555 *   0.87073    1.000000    
    115 O2    c    0.369526 *  0.333790 *  0.967732 *   0.87073    1.000000    
    116 O2    c    0.670949 *  0.037161 *  0.304345 *   0.87073    1.000000    
    117 O2    c    0.959142 *  0.627450 *  0.635987 *   0.87073    1.000000    
    118 O2    c    0.625745 *  0.666314 *  0.467678 *   0.87073    1.000000    
    119 O2    c    0.328007 *  0.955372 *  0.801313 *   0.87073    1.000000    
    120 O2    c    0.032789 *  0.378319 *  0.131017 *   0.87073    1.000000    
    121 O2    c    0.336471 *  0.362871 *  0.359369 *   0.87073    1.000000    
    122 O2    c    0.031214 *  0.666771 *  0.023499 *   0.87073    1.000000    
    123 O2    c    0.632030 *  0.969544 *  0.693192 *   0.87073    1.000000    
    124 O2    c    0.668154 *  0.626331 *  0.860375 *   0.87073    1.000000    
    125 O2    c    0.953525 *  0.322874 *  0.529980 *   0.87073    1.000000    
    126 O2    c    0.369535 *  0.046494 *  0.198736 *   0.87073    1.000000    
    127 O3    c    0.754027 *  0.284790 *  0.002085 *   1.33043    1.000000    
    128 O2    c    0.710230 *  0.468616 *  0.343174 *   0.87073    1.000000    
    129 O2    c    0.527727 *  0.236021 *  0.676337 *   0.87073    1.000000    
    130 O2    c    0.227954 *  0.689593 *  0.510255 *   0.87073    1.000000    
    131 O2    c    0.302577 *  0.533112 *  0.838967 *   0.87073    1.000000    
    132 O2    c    0.460138 *  0.776648 *  0.176809 *   0.87073    1.000000    
    133 O3    c    0.296456 *  0.745149 *  0.324026 *   1.33043    1.000000    
    134 O2    c    0.461289 *  0.699671 *  0.985528 *   0.87073    1.000000    
    135 O3    c    0.250720 *  0.546914 *  0.657374 *   1.33043    1.000000    
    136 O2    c    0.693453 *  0.229117 *  0.821891 *   0.87073    1.000000    
    137 O2    c    0.536727 *  0.305929 *  0.488761 *   0.87073    1.000000    
    138 O2    c    0.760348 *  0.467833 *  0.151206 *   0.87073    1.000000    
    139 O3    c    0.771800 *  0.545965 *  0.018050 *   1.33043    1.000000    
    140 O2    c    0.479190 *  0.250211 *  0.359566 *   0.87073    1.000000    
    141 O2    c    0.747274 *  0.224750 *  0.692794 *   0.87073    1.000000    
    142 O2    c    0.211461 *  0.460611 *  0.526864 *   0.87073    1.000000    
    143 O2    c    0.533807 *  0.750469 *  0.857328 *   0.87073    1.000000    
    144 O2    c    0.245660 *  0.788538 *  0.195025 *   0.87073    1.000000    
    145 O2    c    0.529337 *  0.780274 *  0.302323 *   0.87073    1.000000    
    146 O2    c    0.243107 *  0.466595 *  0.968130 *   0.87073    1.000000    
    147 O2    c    0.216470 *  0.745015 *  0.635425 *   0.87073    1.000000    
    148 O2    c    0.461061 *  0.213504 *  0.804567 *   0.87073    1.000000    
    149 O2    c    0.755121 *  0.537047 *  0.471518 *   0.87073    1.000000    
    150 O2    c    0.777067 *  0.253457 *  0.134315 *   0.87073    1.000000    
    151 O2    c    0.227104 *  0.326371 *  0.894218 *   0.87073    1.000000    
    152 O2    c    0.667290 *  0.906451 *  0.230675 *   0.87073    1.000000    
    153 O2    c    0.093261 *  0.760872 *  0.563339 *   0.87073    1.000000    
    154 O2    c    0.773211 *  0.676806 *  0.395847 *   0.87073    1.000000    
    155 O2    c    0.318487 *  0.091084 *  0.729252 *   0.87073    1.000000    
    156 O2    c    0.897681 *  0.235162 *  0.059640 *   0.87073    1.000000    
    157 O2    c    0.330279 *  0.225217 *  0.432519 *   0.87073    1.000000    
    158 O2    c    0.890620 *  0.668781 *  0.094597 *   0.87073    1.000000    
    159 O2    c    0.771713 *  0.101953 *  0.766092 *   0.87073    1.000000    
    160 O2    c    0.674177 *  0.768496 *  0.932369 *   0.87073    1.000000    
    161 O3    c    0.092612 *  0.303773 *  0.598052 *   1.33043    1.000000    
    162 O3    c    0.212042 *  0.907464 *  0.266292 *   1.33043    1.000000    
    163 O2    c    0.579670 *  0.560616 *  0.989655 *   0.87073    1.000000    
    164 O3    c    0.454846 *  0.033930 *  0.331375 *   1.33043    1.000000    
    165 O3    c    0.960728 *  0.412772 *  0.662510 *   1.33043    1.000000    
    166 O2    c    0.409605 *  0.436140 *  0.486424 *   0.87073    1.000000    
    167 O2    c    0.558634 *  0.971194 *  0.820132 *   0.87073    1.000000    
    168 O2    c    0.015129 *  0.586086 *  0.148320 *   0.87073    1.000000    
    169 O2    c    0.565103 *  0.581285 *  0.338919 *   0.87073    1.000000    
    170 O2    c    0.011185 *  0.440570 *  0.004357 *   0.87073    1.000000    
    171 O2    c    0.412709 *  0.978561 *  0.672445 *   0.87073    1.000000    
    172 O2    c    0.439878 *  0.412691 *  0.841118 *   0.87073    1.000000    
    173 O2    c    0.975884 *  0.551576 *  0.512159 *   0.87073    1.000000    
    174 O2    c    0.578311 *  0.028690 *  0.180399 *   0.87073    1.000000    
    175 O2    c    0.577309 *  0.159924 *  0.254618 *   0.87073    1.000000    
    176 O2    c    0.837786 *  0.414223 *  0.585101 *   0.87073    1.000000    
    177 O2    c    0.582313 *  0.422661 *  0.916234 *   0.87073    1.000000    
    178 O2    c    0.417764 *  0.839400 *  0.745282 *   0.87073    1.000000    
    179 O2    c    0.149801 *  0.579778 *  0.076797 *   0.87073    1.000000    
    180 O2    c    0.418877 *  0.575820 *  0.411582 *   0.87073    1.000000    
    181 F     c    0.421476 *  0.903319 *  0.260241 *   0.56000    1.000000    
    182 F     c    0.095200 *  0.515215 *  0.592595 *   0.56000    1.000000    
    183 F     c    0.446983 *  0.552848 *  0.914264 *   0.56000    1.000000    
    184 F     c    0.544045 *  0.098717 *  0.747721 *   0.56000    1.000000    
    185 F     c    0.850497 *  0.434803 *  0.070065 *   0.56000    1.000000    
    186 F     c    0.555515 *  0.452811 *  0.414352 *   0.56000    1.000000    
    187 O2    s    0.921512 *  0.005466 *  0.997416 *  -2.87073    1.000000    
    188 O2    s    0.004940 *  0.923725 *  0.328826 *  -2.87073    1.000000    
    189 O2    s    0.070197 *  0.073993 *  0.661973 *  -2.87073    1.000000    
    190 O2    s    0.080124 *  0.995488 *  0.495677 *  -2.87073    1.000000    
    191 O2    s    0.996783 *  0.074679 *  0.828602 *  -2.87073    1.000000    
    192 O2    s    0.917993 *  0.930087 *  0.163473 *  -2.87073    1.000000    
    193 O2    s    0.354473 *  0.567711 *  0.327182 *  -2.87073    1.000000    
    194 O2    s    0.427643 *  0.782528 *  0.661301 *  -2.87073    1.000000    
    195 O2    s    0.225175 *  0.646938 *  0.993723 *  -2.87073    1.000000    
    196 O2    s    0.645186 *  0.411912 *  0.833317 *  -2.87073    1.000000    
    197 O2    s    0.584261 *  0.237894 *  0.172102 *  -2.87073    1.000000    
    198 O2    s    0.765665 *  0.351424 *  0.501272 *  -2.87073    1.000000    
    199 O3    s    0.571142 *  0.349230 *  0.999085 *  -3.33043    1.000000    
    200 O2    s    0.758544 *  0.420263 *  0.667028 *  -2.87073    1.000000    
    201 O2    s    0.665161 *  0.238150 *  0.335622 *  -2.87073    1.000000    
    202 O2    s    0.411438 *  0.641034 *  0.495708 *  -2.87073    1.000000    
    203 O2    s    0.226132 *  0.591463 *  0.161853 *  -2.87073    1.000000    
    204 O2    s    0.351592 *  0.765007 *  0.828308 *  -2.87073    1.000000    
    205 O2    s    0.120557 *  0.218321 *  0.966373 *  -2.87073    1.000000    
    206 O2    s    0.782185 *  0.898440 *  0.301712 *  -2.87073    1.000000    
    207 O2    s    0.096766 *  0.878255 *  0.634544 *  -2.87073    1.000000    
    208 O2    s    0.879160 *  0.782287 *  0.467405 *  -2.87073    1.000000    
    209 O2    s    0.213850 *  0.093391 *  0.800908 *  -2.87073    1.000000    
    210 O2    s    0.898797 *  0.125848 *  0.132225 *  -2.87073    1.000000    
    211 O2    s    0.229356 *  0.113389 *  0.359411 *  -2.87073    1.000000    
    212 O2    s    0.904397 *  0.793340 *  0.025504 *  -2.87073    1.000000    
    213 O2    s    0.881727 *  0.110669 *  0.692536 *  -2.87073    1.000000    
    214 O2    s    0.782272 *  0.877040 *  0.859802 *  -2.87073    1.000000    
    215 O2    s    0.094927 *  0.209768 *  0.523760 *  -2.87073    1.000000    
    216 O2    s    0.114422 *  0.906795 *  0.191119 *  -2.87073    1.000000    
    217 O2    s    0.925183 *  0.857706 *  0.245700 *  -2.87073    1.000000    
    218 O2    s    0.137066 *  0.064455 *  0.579201 *  -2.87073    1.000000    
    219 O2    s    0.931758 *  0.067161 *  0.912633 *  -2.87073    1.000000    
    220 O2    s    0.071905 *  0.141258 *  0.745715 *  -2.87073    1.000000    
    221 O2    s    0.851150 *  0.932019 *  0.080437 *  -2.87073    1.000000    
    222 O2    s    0.071448 *  0.922543 *  0.412955 *  -2.87073    1.000000    
    223 O2    s    0.907598 *  0.205321 *  0.975602 *  -2.87073    1.000000    
    224 O2    s    0.802424 *  0.702533 *  0.313062 *  -2.87073    1.000000    
    225 O2    s    0.292527 *  0.094477 *  0.646424 *  -2.87073    1.000000    
    226 O2    s    0.088716 *  0.786489 *  0.479388 *  -2.87073    1.000000    
    227 O2    s    0.204305 *  0.295685 *  0.811524 *  -2.87073    1.000000    
    228 O2    s    0.697421 *  0.915585 *  0.146716 *  -2.87073    1.000000    
    229 O3    s    0.201518 *  0.896262 *  0.349410 *  -3.33043    1.000000    
    230 O2    s    0.699232 *  0.798012 *  0.014398 *  -2.87073    1.000000    
    231 O3    s    0.100298 *  0.298395 *  0.681555 *  -3.33043    1.000000    
    232 O2    s    0.793065 *  0.089452 *  0.848563 *  -2.87073    1.000000    
    233 O2    s    0.297975 *  0.202476 *  0.515123 *  -2.87073    1.000000    
    234 O2    s    0.900494 *  0.707332 *  0.178028 *  -2.87073    1.000000    
    235 O2    s    0.321978 *  0.654160 *  0.246300 *  -2.87073    1.000000    
    236 O2    s    0.345175 *  0.666913 *  0.580115 *  -2.87073    1.000000    
    237 O2    s    0.323825 *  0.671913 *  0.911463 *  -2.87073    1.000000    
    238 O2    s    0.666949 *  0.345804 *  0.749989 *  -2.87073    1.000000    
    239 O3    s    0.626083 *  0.309989 *  0.087766 *  -3.33043    1.000000    
    240 O2    s    0.681678 *  0.332351 *  0.417388 *  -2.87073    1.000000    
    241 O2    s    0.372146 *  0.343518 *  0.965576 *  -2.87073    1.000000    
    242 O2    s    0.661599 *  0.030811 *  0.302520 *  -2.87073    1.000000    
    243 O2    s    0.965618 *  0.624728 *  0.634193 *  -2.87073    1.000000    
    244 O2    s    0.622768 *  0.656347 *  0.465393 *  -2.87073    1.000000    
    245 O2    s    0.338026 *  0.962336 *  0.799016 *  -2.87073    1.000000    
    246 O2    s    0.026782 *  0.381459 *  0.128996 *  -2.87073    1.000000    
    247 O2    s    0.346713 *  0.366641 *  0.361553 *  -2.87073    1.000000    
    248 O2    s    0.025372 *  0.657263 *  0.025174 *  -2.87073    1.000000    
    249 O2    s    0.628340 *  0.976117 *  0.695355 *  -2.87073    1.000000    
    250 O2    s    0.658202 *  0.623245 *  0.862653 *  -2.87073    1.000000    
    251 O2    s    0.959891 *  0.332543 *  0.531961 *  -2.87073    1.000000    
    252 O2    s    0.372693 *  0.040301 *  0.200727 *  -2.87073    1.000000    
    253 O3    s    0.764651 *  0.292028 *  0.005192 *  -3.33043    1.000000    
    254 O2    s    0.702097 *  0.467917 *  0.346253 *  -2.87073    1.000000    
    255 O2    s    0.528454 *  0.228623 *  0.679415 *  -2.87073    1.000000    
    256 O2    s    0.221295 *  0.682478 *  0.512941 *  -2.87073    1.000000    
    257 O2    s    0.309899 *  0.533740 *  0.842193 *  -2.87073    1.000000    
    258 O2    s    0.459623 *  0.782719 *  0.179628 *  -2.87073    1.000000    
    259 O3    s    0.305681 *  0.749576 *  0.320331 *  -3.33043    1.000000    
    260 O2    s    0.460580 *  0.691659 *  0.982362 *  -2.87073    1.000000    
    261 O3    s    0.246242 *  0.551481 *  0.653623 *  -3.33043    1.000000    
    262 O2    s    0.686073 *  0.222397 *  0.818668 *  -2.87073    1.000000    
    263 O2    s    0.537284 *  0.313078 *  0.485487 *  -2.87073    1.000000    
    264 O2    s    0.766837 *  0.467675 *  0.148436 *  -2.87073    1.000000    
    265 O3    s    0.781453 *  0.548422 *  0.021283 *  -3.33043    1.000000    
    266 O2    s    0.481387 *  0.257443 *  0.362215 *  -2.87073    1.000000    
    267 O2    s    0.739869 *  0.219654 *  0.695433 *  -2.87073    1.000000    
    268 O2    s    0.208121 *  0.463581 *  0.529098 *  -2.87073    1.000000    
    269 O2    s    0.530983 *  0.742442 *  0.859934 *  -2.87073    1.000000    
    270 O2    s    0.252484 *  0.791859 *  0.197095 *  -2.87073    1.000000    
    271 O2    s    0.528047 *  0.784858 *  0.300180 *  -2.87073    1.000000    
    272 O2    s    0.251527 *  0.469637 *  0.965471 *  -2.87073    1.000000    
    273 O2    s    0.211799 *  0.739196 *  0.633259 *  -2.87073    1.000000    
    274 O2    s    0.464136 *  0.208670 *  0.801910 *  -2.87073    1.000000    
    275 O2    s    0.746885 *  0.533866 *  0.468863 *  -2.87073    1.000000    
    276 O2    s    0.781546 *  0.259776 *  0.131990 *  -2.87073    1.000000    
    277 O2    s    0.236907 *  0.335725 *  0.895103 *  -2.87073    1.000000    
    278 O2    s    0.658935 *  0.906333 *  0.231376 *  -2.87073    1.000000    
    279 O2    s    0.093433 *  0.752624 *  0.564020 *  -2.87073    1.000000    
    280 O2    s    0.763750 *  0.666831 *  0.396653 *  -2.87073    1.000000    
    281 O2    s    0.328509 *  0.091709 *  0.730074 *  -2.87073    1.000000    
    282 O2    s    0.897244 *  0.242914 *  0.060736 *  -2.87073    1.000000    
    283 O2    s    0.339468 *  0.234667 *  0.431662 *  -2.87073    1.000000    
    284 O2    s    0.891094 *  0.660645 *  0.094426 *  -2.87073    1.000000    
    285 O2    s    0.762105 *  0.101633 *  0.765248 *  -2.87073    1.000000    
    286 O2    s    0.664382 *  0.759204 *  0.931436 *  -2.87073    1.000000    
    287 O3    s    0.092516 *  0.313547 *  0.595335 *  -3.33043    1.000000    
    288 O3    s    0.221746 *  0.907501 *  0.263440 *  -3.33043    1.000000    
    289 O2    s    0.575835 *  0.561353 *  0.986175 *  -2.87073    1.000000    
    290 O3    s    0.458770 *  0.032091 *  0.327165 *  -3.33043    1.000000    
    291 O3    s    0.963103 *  0.418898 *  0.658366 *  -3.33043    1.000000    
    292 O2    s    0.414972 *  0.436221 *  0.483228 *  -2.87073    1.000000    
    293 O2    s    0.558755 *  0.976411 *  0.816875 *  -2.87073    1.000000    
    294 O2    s    0.011541 *  0.582185 *  0.145545 *  -2.87073    1.000000    
    295 O2    s    0.565456 *  0.576638 *  0.342395 *  -2.87073    1.000000    
    296 O2    s    0.008291 *  0.440931 *  0.007188 *  -2.87073    1.000000    
    297 O2    s    0.417501 *  0.983609 *  0.675921 *  -2.87073    1.000000    
    298 O2    s    0.439458 *  0.417383 *  0.844294 *  -2.87073    1.000000    
    299 O2    s    0.979900 *  0.552571 *  0.514905 *  -2.87073    1.000000    
    300 O2    s    0.574841 *  0.024191 *  0.183144 *  -2.87073    1.000000    
    301 O2    s    0.572839 *  0.150456 *  0.254173 *  -2.87073    1.000000    
    302 O2    s    0.847506 *  0.419336 *  0.584742 *  -2.87073    1.000000    
    303 O2    s    0.576614 *  0.427429 *  0.915990 *  -2.87073    1.000000    
    304 O2    s    0.423631 *  0.850660 *  0.745465 *  -2.87073    1.000000    
    305 O2    s    0.140317 *  0.575090 *  0.077163 *  -2.87073    1.000000    
    306 O2    s    0.424405 *  0.570097 *  0.411813 *  -2.87073    1.000000    
    307 F     s    0.414384 *  0.902871 *  0.263321 *  -1.56000    1.000000    
    308 F     s    0.095478 *  0.508737 *  0.595516 *  -1.56000    1.000000    
    309 F     s    0.446505 *  0.553505 *  0.914371 *  -1.56000    1.000000    
    310 F     s    0.543947 *  0.098960 *  0.747693 *  -1.56000    1.000000    
    311 F     s    0.840362 *  0.430739 *  0.067868 *  -1.56000    1.000000    
    312 F     s    0.555965 *  0.453008 *  0.414322 *  -1.56000    1.000000    
--------------------------------------------------------------------------------



********************************************************************************
*  General input information                                                   *
********************************************************************************

  Species output for all configurations : 

--------------------------------------------------------------------------------
  Species    Type    Atomic    Atomic    Charge       Radii (Angs)     Library
                     Number     Mass       (e)     Cova   Ionic  VDW   Symbol
--------------------------------------------------------------------------------
    Si       Core       14      28.09   4.000000   1.200  0.000  2.100          
    O1       Core        8      16.00   1.733957   0.730  0.000  1.360          
    O1       Shell       8       0.00  -3.733957   0.730  0.000  1.360          
    O2       Core        8      16.00   0.870733   0.730  0.000  1.360          
    O2       Shell       8       0.00  -2.870733   0.730  0.000  1.360          
    O3       Core        8      16.00   1.330431   0.730  0.000  1.360          
    O3       Shell       8       0.00  -3.330431   0.730  0.000  1.360          
    F        Core        9      19.00   0.560000   0.710  0.000  1.300          
    F        Shell       9       0.00  -1.560000   0.710  0.000  1.300          
    Ge       Core       32      72.61   4.000000   1.170  0.000  1.750          
--------------------------------------------------------------------------------


  Lattice summation method               =    Ewald          (3-D)
                                         =    Parry          (2-D)
                                         =    Saunders et al (1-D)
  Accuracy factor for lattice sums       =   12.000


  Time limit = Infinity

  Maximum range for interatomic potentials =        16.000000 Angstroms

  Taper potentials to zero over   1.0000 Angstroms using polynomial

  General interatomic potentials :

--------------------------------------------------------------------------------
Atom  Types   Potential         A         B         C         D     Cutoffs(Ang)
  1     2                                                            Min    Max 
--------------------------------------------------------------------------------
Si   c O1   s Buckingham    0.132E+04 0.318      10.1      0.00     0.000 16.000
Si   c O2   s Buckingham    0.132E+04 0.318      10.1      0.00     0.000 16.000
Si   c O3   s Buckingham    0.132E+04 0.318      10.1      0.00     0.000 16.000
Ge   c O1   s Buckingham    0.150E+04 0.326      16.8      0.00     0.000 16.000
Ge   c O2   s Buckingham    0.150E+04 0.326      16.8      0.00     0.000 16.000
Ge   c O3   s Buckingham    0.150E+04 0.326      16.8      0.00     0.000 16.000
O1   s O1   s Buckingham    0.228E+05 0.149      10.9      0.00     0.000 16.000
O1   s O2   s Buckingham    0.228E+05 0.149      10.9      0.00     0.000 16.000
O1   s O3   s Buckingham    0.228E+05 0.149      10.9      0.00     0.000 16.000
O2   s O2   s Buckingham    0.228E+05 0.149      10.9      0.00     0.000 16.000
O2   s O3   s Buckingham    0.228E+05 0.149      10.9      0.00     0.000 16.000
O3   s O3   s Buckingham    0.228E+05 0.149      10.9      0.00     0.000 16.000
Si   c F    s Buckingham     977.     0.282      0.00      0.00     0.000 16.000
Ge   c F    s Buckingham     681.     0.320      0.00      0.00     0.000 16.000
F    s F    s Buckingham     540.     0.262      0.00      0.00     0.000 16.000
O1   s F    s Buckingham    0.168E+04 0.268      0.00      0.00     0.000 16.000
O2   s F    s Buckingham    0.168E+04 0.268      0.00      0.00     0.000 16.000
O3   s F    s Buckingham    0.168E+04 0.268      0.00      0.00     0.000 16.000
O2   c O2   s Spring (c-s)   76.0      0.00      0.00      0.00     0.000  0.800
O3   c O3   s Spring (c-s)   128.      0.00      0.00      0.00     0.000  0.800
O1   c O1   s Spring (c-s)   180.      0.00      0.00      0.00     0.000  0.800
F    c F    s Spring (c-s)   33.5      0.00      0.00      0.00     0.000  0.800
--------------------------------------------------------------------------------

  General Three-body potentials :

  Harmonic form:

--------------------------------------------------------------------------------
Atom    Atom    Atom           Force Constants            Theta     Cutoffs  
  1       2       3     (eVrad**-2/eVrad**-3/eVrad**-4)   (deg)  1-2  1-3  2-3
--------------------------------------------------------------------------------
Si    c O1    s O1    s  1.261        0.0000    0.0000   109.470 0.00 0.00 0.00
                                                                 1.90 1.90 3.50
Si    c O1    s O2    s  1.261        0.0000    0.0000   109.470 0.00 0.00 0.00
                                                                 1.90 1.90 3.50
Si    c O2    s O2    s  1.261        0.0000    0.0000   109.470 0.00 0.00 0.00
                                                                 1.90 1.90 3.50
--------------------------------------------------------------------------------

********************************************************************************
*  Output for configuration   1                                                *
********************************************************************************


  Components of energy : 

--------------------------------------------------------------------------------
  Interatomic potentials     =        2066.69837229 eV
  Three-body potentials      =           0.50370320 eV
  Monopole - monopole (real) =       -6614.33769423 eV
  Monopole - monopole (recip)=       -3173.61504375 eV
  Monopole - monopole (total)=       -9787.95273799 eV
  Neutralising energy        =          -6.46467527 eV
--------------------------------------------------------------------------------
  Total lattice energy       =       -7727.21533776 eV
--------------------------------------------------------------------------------
  Total lattice energy       =         -745558.1588 kJ/(mole unit cells)
--------------------------------------------------------------------------------


  Number of variables =      939

  Maximum number of calculations  =          1000
  Maximum Hessian update interval =            10
  Maximum step size               =   1.000000000
  Maximum parameter tolerance     =   0.000010000
  Maximum function  tolerance     =   0.000010000
  Maximum gradient  tolerance     =   0.001000000
  Maximum gradient  component     =   0.010000000

  Symmetry not applied to optimisation

  Cell parameters to be optimised using strains

  Newton-Raphson optimiser to be used

  BFGS hessian update to be used

  Dumpfile to be written after every cycle

  Start of bulk optimisation :

  Cycle:      0 Energy:     -7727.215338  Gnorm:      0.004398  CPU:    1.058
  ** Hessian calculated **
  Cycle:      1 Energy:     -7727.312041  Gnorm:      0.006567  CPU:    3.294
  Cycle:      2 Energy:     -7727.313122  Gnorm:      0.001026  CPU:    4.675
  Cycle:      3 Energy:     -7727.313314  Gnorm:      0.000246  CPU:    6.056


  **** Optimisation achieved ****


  Final energy =   -7727.31331641 eV
  Final Gnorm  =       0.00003016

  Components of energy : 

--------------------------------------------------------------------------------
  Interatomic potentials     =        2067.31492279 eV
  Three-body potentials      =           0.52359464 eV
  Monopole - monopole (real) =       -6613.77577269 eV
  Monopole - monopole (recip)=       -3174.90874578 eV
  Monopole - monopole (total)=       -9788.68451846 eV
  Neutralising energy        =          -6.46731538 eV
--------------------------------------------------------------------------------
  Total lattice energy       =       -7727.31331641 eV
--------------------------------------------------------------------------------
  Total lattice energy       =         -745567.6122 kJ/(mole unit cells)
--------------------------------------------------------------------------------

  Final fractional coordinates of atoms :

--------------------------------------------------------------------------------
   No.  Atomic        x           y          z          Radius
        Label       (Frac)      (Frac)     (Frac)       (Angs) 
--------------------------------------------------------------------------------
     1  Ge    c     0.699600    0.375700    0.033890    0.000000
     2  Si    c     0.623966    0.308099    0.365933    0.000000
     3  Si    c     0.664915    0.296422    0.698364    0.000000
     4  Si    c     0.289538    0.601265    0.527677    0.000000
     5  Si    c     0.368491    0.664598    0.858859    0.000000
     6  Si    c     0.300333    0.686889    0.195288    0.000000
     7  Si    c     0.355579    0.664924    0.297415    0.000000
     8  Si    c     0.309040    0.612544    0.959533    0.000000
     9  Si    c     0.307680    0.673713    0.629942    0.000000
    10  Si    c     0.609228    0.286860    0.799458    0.000000
    11  Si    c     0.669744    0.364352    0.466868    0.000000
    12  Si    c     0.672274    0.306428    0.132856    0.000000
    13  Si    c     0.520003    0.410867    0.967433    0.000000
    14  Si    c     0.573624    0.092610    0.305824    0.000000
    15  Si    c     0.880037    0.462212    0.636968    0.000000
    16  Si    c     0.455514    0.558019    0.460564    0.000000
    17  Si    c     0.410741    0.877459    0.793784    0.000000
    18  Si    c     0.093217    0.520973    0.126753    0.000000
    19  Si    c     0.409103    0.496719    0.358814    0.000000
    20  Si    c     0.093300    0.574155    0.023015    0.000000
    21  Si    c     0.473336    0.893543    0.692014    0.000000
    22  Si    c     0.573302    0.460282    0.864285    0.000000
    23  Si    c     0.876451    0.397900    0.533899    0.000000
    24  Si    c     0.511890    0.100690    0.202777    0.000000
    25  Si    c     0.291580    0.387054    0.846308    0.000000
    26  Si    c     0.584086    0.891111    0.182881    0.000000
    27  Si    c     0.086250    0.681503    0.514969    0.000000
    28  Si    c     0.694138    0.580123    0.347177    0.000000
    29  Si    c     0.390632    0.094038    0.680321    0.000000
    30  Si    c     0.880673    0.286677    0.008462    0.000000
    31  Si    c     0.387333    0.279996    0.477221    0.000000
    32  Si    c     0.878300    0.591199    0.141352    0.000000
    33  Si    c     0.690693    0.088336    0.810381    0.000000
    34  Si    c     0.585978    0.690497    0.976916    0.000000
    35  Ge    c     0.097091    0.404943    0.640244    0.000000
    36  Ge    c     0.299372    0.876089    0.308042    0.000000
    37  Si    c     0.241086    0.334757    0.947728    0.000000
    38  Si    c     0.642827    0.884607    0.284944    0.000000
    39  Si    c     0.087718    0.741080    0.617038    0.000000
    40  Si    c     0.737553    0.640843    0.448276    0.000000
    41  Si    c     0.330181    0.076808    0.781514    0.000000
    42  Si    c     0.888823    0.240066    0.112371    0.000000
    43  Si    c     0.336035    0.221032    0.375818    0.000000
    44  Si    c     0.891523    0.657413    0.038255    0.000000
    45  Si    c     0.750764    0.096775    0.709144    0.000000
    46  Si    c     0.649981    0.738489    0.875952    0.000000
    47  Si    c     0.078368    0.314939    0.544457    0.000000
    48  Si    c     0.225841    0.897681    0.212554    0.000000
    49  Si    c     0.962999    0.114902    0.960905    0.000000
    50  Si    c     0.867707    0.828729    0.296759    0.000000
    51  Si    c     0.141064    0.019232    0.629731    0.000000
    52  Si    c     0.016480    0.858400    0.461909    0.000000
    53  Si    c     0.112943    0.138939    0.794732    0.000000
    54  Si    c     0.830819    0.963948    0.129287    0.000000
    55  Si    c     0.114330    0.941167    0.360095    0.000000
    56  Si    c     0.834195    0.875648    0.027486    0.000000
    57  Si    c     0.031357    0.154263    0.692702    0.000000
    58  Si    c     0.869512    0.016459    0.860400    0.000000
    59  Si    c     0.137797    0.100888    0.527002    0.000000
    60  Si    c     0.951294    0.838408    0.193379    0.000000
    61  O2    c     0.915725    0.999765    0.996762    0.000000
    62  O2    c     0.991546    0.911599    0.327931    0.000000
    63  O2    c     0.058421    0.059380    0.661162    0.000000
    64  O2    c     0.060019    0.979255    0.494498    0.000000
    65  O2    c     0.989667    0.058874    0.827051    0.000000
    66  O2    c     0.910280    0.922579    0.162495    0.000000
    67  O2    c     0.328700    0.535825    0.323750    0.000000
    68  O2    c     0.436074    0.775747    0.657033    0.000000
    69  O2    c     0.219758    0.649315    0.991262    0.000000
    70  O2    c     0.648588    0.406889    0.833378    0.000000
    71  O2    c     0.566530    0.229544    0.172534    0.000000
    72  O2    c     0.749620    0.325459    0.501859    0.000000
    73  O3    c     0.561153    0.334513    0.000487    0.000000
    74  O2    c     0.750732    0.423120    0.666815    0.000000
    75  O2    c     0.664963    0.221068    0.335388    0.000000
    76  O2    c     0.405816    0.635640    0.491937    0.000000
    77  O2    c     0.218043    0.570611    0.159796    0.000000
    78  O2    c     0.332726    0.748755    0.824628    0.000000
    79  O2    c     0.116093    0.206631    0.967998    0.000000
    80  O2    c     0.768227    0.881995    0.304103    0.000000
    81  O2    c     0.088090    0.866704    0.636425    0.000000
    82  O2    c     0.861747    0.768887    0.468203    0.000000
    83  O2    c     0.202409    0.074198    0.801582    0.000000
    84  O2    c     0.892855    0.117461    0.133709    0.000000
    85  O2    c     0.214994    0.094932    0.354350    0.000000
    86  O2    c     0.906800    0.793825    0.022651    0.000000
    87  O2    c     0.876836    0.101951    0.687388    0.000000
    88  O2    c     0.778015    0.862829    0.855720    0.000000
    89  O2    c     0.076928    0.193194    0.519379    0.000000
    90  O2    c     0.105319    0.899358    0.186830    0.000000
    91  O2    c     0.911337    0.846619    0.244483    0.000000
    92  O2    c     0.122079    0.047158    0.577724    0.000000
    93  O2    c     0.925902    0.055015    0.911078    0.000000
    94  O2    c     0.062290    0.127479    0.743896    0.000000
    95  O2    c     0.840580    0.922706    0.078941    0.000000
    96  O2    c     0.056700    0.909843    0.411251    0.000000
    97  O2    c     0.893077    0.197316    0.970362    0.000000
    98  O2    c     0.792083    0.676963    0.308431    0.000000
    99  O2    c     0.293771    0.095251    0.641437    0.000000
   100  O2    c     0.082815    0.773286    0.475315    0.000000
   101  O2    c     0.195933    0.289455    0.807729    0.000000
   102  O2    c     0.679265    0.895928    0.143040    0.000000
   103  O3    c     0.184736    0.864611    0.349779    0.000000
   104  O2    c     0.682998    0.791493    0.015109    0.000000
   105  O3    c     0.108922    0.300574    0.681516    0.000000
   106  O2    c     0.786413    0.085432    0.849375    0.000000
   107  O2    c     0.290585    0.182793    0.515771    0.000000
   108  O2    c     0.880265    0.688560    0.179745    0.000000
   109  O2    c     0.302199    0.625949    0.244542    0.000000
   110  O2    c     0.349414    0.660919    0.577378    0.000000
   111  O2    c     0.307520    0.667316    0.908619    0.000000
   112  O2    c     0.665244    0.349294    0.749395    0.000000
   113  O3    c     0.606162    0.298434    0.085408    0.000000
   114  O2    c     0.677594    0.308755    0.417083    0.000000
   115  O2    c     0.362010    0.325907    0.967406    0.000000
   116  O2    c     0.654110    0.015817    0.303630    0.000000
   117  O2    c     0.956071    0.618906    0.635355    0.000000
   118  O2    c     0.611728    0.647139    0.464996    0.000000
   119  O2    c     0.321729    0.944244    0.798332    0.000000
   120  O2    c     0.020017    0.365981    0.129512    0.000000
   121  O2    c     0.324326    0.341793    0.356812    0.000000
   122  O2    c     0.025043    0.661445    0.022960    0.000000
   123  O2    c     0.629403    0.964559    0.690390    0.000000
   124  O2    c     0.659980    0.615585    0.859209    0.000000
   125  O2    c     0.944172    0.310679    0.529588    0.000000
   126  O2    c     0.355926    0.030545    0.197791    0.000000
   127  O3    c     0.746735    0.279742    0.001178    0.000000
   128  O2    c     0.699542    0.448874    0.341766    0.000000
   129  O2    c     0.522815    0.230529    0.674593    0.000000
   130  O2    c     0.216842    0.675016    0.508087    0.000000
   131  O2    c     0.294234    0.521419    0.836925    0.000000
   132  O2    c     0.446454    0.762363    0.175222    0.000000
   133  O3    c     0.278995    0.722590    0.322528    0.000000
   134  O2    c     0.451226    0.691682    0.983341    0.000000
   135  O3    c     0.249780    0.539608    0.655275    0.000000
   136  O2    c     0.685176    0.217676    0.820564    0.000000
   137  O2    c     0.524390    0.288260    0.487524    0.000000
   138  O2    c     0.749036    0.455617    0.150930    0.000000
   139  O3    c     0.767572    0.542681    0.016644    0.000000
   140  O2    c     0.468272    0.230074    0.358264    0.000000
   141  O2    c     0.743064    0.219629    0.691225    0.000000
   142  O2    c     0.201818    0.446795    0.525315    0.000000
   143  O2    c     0.525346    0.739352    0.855057    0.000000
   144  O2    c     0.231306    0.772821    0.193647    0.000000
   145  O2    c     0.512581    0.759255    0.301360    0.000000
   146  O2    c     0.233759    0.457475    0.966557    0.000000
   147  O2    c     0.213720    0.736432    0.633326    0.000000
   148  O2    c     0.452803    0.202001    0.803166    0.000000
   149  O2    c     0.742644    0.519873    0.470128    0.000000
   150  O2    c     0.764462    0.241206    0.132625    0.000000
   151  O2    c     0.219567    0.316181    0.893211    0.000000
   152  O2    c     0.651655    0.886969    0.229877    0.000000
   153  O2    c     0.086518    0.749926    0.562000    0.000000
   154  O2    c     0.760260    0.657447    0.393702    0.000000
   155  O2    c     0.313072    0.082507    0.726909    0.000000
   156  O2    c     0.887454    0.225550    0.057872    0.000000
   157  O2    c     0.318237    0.205630    0.430551    0.000000
   158  O2    c     0.878589    0.658418    0.093896    0.000000
   159  O2    c     0.766666    0.094360    0.763991    0.000000
   160  O2    c     0.664646    0.759038    0.930631    0.000000
   161  O3    c     0.086156    0.293163    0.597185    0.000000
   162  O3    c     0.197120    0.889474    0.265268    0.000000
   163  O2    c     0.570021    0.553136    0.988869    0.000000
   164  O3    c     0.438361    0.011664    0.330935    0.000000
   165  O3    c     0.959588    0.406505    0.662302    0.000000
   166  O2    c     0.396005    0.417297    0.483852    0.000000
   167  O2    c     0.552174    0.960035    0.817221    0.000000
   168  O2    c     0.003648    0.574421    0.146734    0.000000
   169  O2    c     0.552255    0.559483    0.336270    0.000000
   170  O2    c     0.000551    0.432984    0.002520    0.000000
   171  O2    c     0.410555    0.973544    0.669498    0.000000
   172  O2    c     0.432417    0.401762    0.840344    0.000000
   173  O2    c     0.964895    0.538811    0.511635    0.000000
   174  O2    c     0.565814    0.014127    0.180101    0.000000
   175  O2    c     0.560800    0.141177    0.254576    0.000000
   176  O2    c     0.832002    0.403692    0.585406    0.000000
   177  O2    c     0.574620    0.414364    0.916078    0.000000
   178  O2    c     0.414001    0.831742    0.741849    0.000000
   179  O2    c     0.139164    0.567946    0.075087    0.000000
   180  O2    c     0.405468    0.554993    0.408597    0.000000
   181  F     c     0.405363    0.883168    0.259262    0.000000
   182  F     c     0.090842    0.505673    0.591332    0.000000
   183  F     c     0.437071    0.543745    0.912725    0.000000
   184  F     c     0.539640    0.092494    0.745354    0.000000
   185  F     c     0.845526    0.429823    0.069649    0.000000
   186  F     c     0.543968    0.432280    0.412186    0.000000
   187  O2    s     0.911608    0.998427    0.996262    0.000000
   188  O2    s     0.990123    0.905224    0.327706    0.000000
   189  O2    s     0.065016    0.064543    0.660829    0.000000
   190  O2    s     0.063834    0.979222    0.494461    0.000000
   191  O2    s     0.989645    0.062923    0.827275    0.000000
   192  O2    s     0.905879    0.917883    0.162191    0.000000
   193  O2    s     0.339746    0.545540    0.324512    0.000000
   194  O2    s     0.426273    0.776980    0.657720    0.000000
   195  O2    s     0.215043    0.637675    0.991526    0.000000
   196  O2    s     0.636744    0.399976    0.833047    0.000000
   197  O2    s     0.571562    0.223657    0.171682    0.000000
   198  O2    s     0.754613    0.337165    0.501562    0.000000
   199  O3    s     0.566705    0.345725    0.999338    0.000000
   200  O2    s     0.755220    0.414460    0.666948    0.000000
   201  O2    s     0.651715    0.216760    0.335438    0.000000
   202  O2    s     0.398825    0.624091    0.492429    0.000000
   203  O2    s     0.213474    0.577393    0.160001    0.000000
   204  O2    s     0.344444    0.753375    0.824971    0.000000
   205  O2    s     0.112116    0.209664    0.965196    0.000000
   206  O2    s     0.765081    0.876723    0.301310    0.000000
   207  O2    s     0.093512    0.869045    0.633703    0.000000
   208  O2    s     0.865126    0.765004    0.465500    0.000000
   209  O2    s     0.206260    0.081244    0.798817    0.000000
   210  O2    s     0.885874    0.113903    0.131060    0.000000
   211  O2    s     0.217930    0.093130    0.357195    0.000000
   212  O2    s     0.897488    0.788441    0.024771    0.000000
   213  O2    s     0.878753    0.106640    0.690240    0.000000
   214  O2    s     0.774478    0.866255    0.858285    0.000000
   215  O2    s     0.083433    0.195655    0.522613    0.000000
   216  O2    s     0.101165    0.892754    0.190054    0.000000
   217  O2    s     0.911015    0.843678    0.244489    0.000000
   218  O2    s     0.125993    0.050163    0.577735    0.000000
   219  O2    s     0.923865    0.057566    0.911145    0.000000
   220  O2    s     0.064867    0.131660    0.744346    0.000000
   221  O2    s     0.838719    0.922366    0.079181    0.000000
   222  O2    s     0.058153    0.907204    0.411700    0.000000
   223  O2    s     0.899307    0.198002    0.973413    0.000000
   224  O2    s     0.790088    0.683058    0.311136    0.000000
   225  O2    s     0.287515    0.087115    0.644152    0.000000
   226  O2    s     0.076361    0.772277    0.478152    0.000000
   227  O2    s     0.197187    0.283821    0.810390    0.000000
   228  O2    s     0.684854    0.902489    0.145871    0.000000
   229  O3    s     0.184489    0.873933    0.348165    0.000000
   230  O2    s     0.689656    0.790527    0.012647    0.000000
   231  O3    s     0.099501    0.291138    0.680057    0.000000
   232  O2    s     0.785530    0.078368    0.846588    0.000000
   233  O2    s     0.284526    0.184272    0.512940    0.000000
   234  O2    s     0.887607    0.694340    0.177187    0.000000
   235  O2    s     0.307076    0.636043    0.244421    0.000000
   236  O2    s     0.339225    0.655923    0.577226    0.000000
   237  O2    s     0.313744    0.661450    0.908863    0.000000
   238  O2    s     0.659448    0.337410    0.749243    0.000000
   239  O3    s     0.619005    0.304043    0.087316    0.000000
   240  O2    s     0.671253    0.314421    0.416882    0.000000
   241  O2    s     0.364443    0.335389    0.965225    0.000000
   242  O2    s     0.644855    0.009505    0.301843    0.000000
   243  O2    s     0.962504    0.616220    0.633548    0.000000
   244  O2    s     0.608909    0.637272    0.462759    0.000000
   245  O2    s     0.331727    0.951297    0.796096    0.000000
   246  O2    s     0.014081    0.369167    0.127443    0.000000
   247  O2    s     0.334532    0.345658    0.359015    0.000000
   248  O2    s     0.018822    0.651940    0.024512    0.000000
   249  O2    s     0.625512    0.970871    0.692550    0.000000
   250  O2    s     0.650066    0.612572    0.861488    0.000000
   251  O2    s     0.950506    0.320235    0.531541    0.000000
   252  O2    s     0.359100    0.024480    0.199808    0.000000
   253  O3    s     0.758032    0.286839    0.004197    0.000000
   254  O2    s     0.691248    0.448215    0.344840    0.000000
   255  O2    s     0.523470    0.222901    0.677679    0.000000
   256  O2    s     0.210417    0.668120    0.510853    0.000000
   257  O2    s     0.301587    0.522160    0.840191    0.000000
   258  O2    s     0.445982    0.768254    0.178128    0.000000
   259  O3    s     0.288405    0.727118    0.318860    0.000000
   260  O2    s     0.450597    0.683537    0.980235    0.000000
   261  O3    s     0.245229    0.544239    0.651554    0.000000
   262  O2    s     0.677946    0.211157    0.817296    0.000000
   263  O2    s     0.525024    0.295369    0.484229    0.000000
   264  O2    s     0.755442    0.455674    0.148123    0.000000
   265  O3    s     0.777044    0.544730    0.020053    0.000000
   266  O2    s     0.470233    0.237318    0.360892    0.000000
   267  O2    s     0.735593    0.214258    0.693862    0.000000
   268  O2    s     0.198515    0.449879    0.527522    0.000000
   269  O2    s     0.522565    0.731382    0.857706    0.000000
   270  O2    s     0.238237    0.776185    0.195725    0.000000
   271  O2    s     0.511366    0.763853    0.299176    0.000000
   272  O2    s     0.242296    0.460532    0.963900    0.000000
   273  O2    s     0.208982    0.730606    0.631211    0.000000
   274  O2    s     0.456067    0.197370    0.800476    0.000000
   275  O2    s     0.734441    0.516618    0.467469    0.000000
   276  O2    s     0.769032    0.247559    0.130431    0.000000
   277  O2    s     0.229371    0.325610    0.894055    0.000000
   278  O2    s     0.643428    0.887165    0.230568    0.000000
   279  O2    s     0.086618    0.741639    0.562703    0.000000
   280  O2    s     0.750894    0.647550    0.394550    0.000000
   281  O2    s     0.323038    0.083111    0.727750    0.000000
   282  O2    s     0.886941    0.233085    0.058984    0.000000
   283  O2    s     0.327399    0.215094    0.429665    0.000000
   284  O2    s     0.879770    0.650884    0.093625    0.000000
   285  O2    s     0.757011    0.093982    0.763132    0.000000
   286  O2    s     0.654897    0.749732    0.929715    0.000000
   287  O3    s     0.085993    0.302756    0.594355    0.000000
   288  O3    s     0.206797    0.889548    0.262381    0.000000
   289  O2    s     0.566490    0.554005    0.985388    0.000000
   290  O3    s     0.442415    0.010133    0.326718    0.000000
   291  O3    s     0.961531    0.412330    0.658123    0.000000
   292  O2    s     0.401478    0.417447    0.480690    0.000000
   293  O2    s     0.552248    0.965344    0.814022    0.000000
   294  O2    s     0.999862    0.570384    0.144021    0.000000
   295  O2    s     0.552563    0.555047    0.339781    0.000000
   296  O2    s     0.998162    0.433334    0.005362    0.000000
   297  O2    s     0.415071    0.978236    0.672999    0.000000
   298  O2    s     0.431898    0.406454    0.843494    0.000000
   299  O2    s     0.969121    0.539769    0.514344    0.000000
   300  O2    s     0.562092    0.009508    0.182780    0.000000
   301  O2    s     0.556677    0.131962    0.254006    0.000000
   302  O2    s     0.841500    0.408749    0.584909    0.000000
   303  O2    s     0.569007    0.418963    0.915717    0.000000
   304  O2    s     0.419699    0.842767    0.742093    0.000000
   305  O2    s     0.129656    0.563531    0.075416    0.000000
   306  O2    s     0.411014    0.549414    0.408879    0.000000
   307  F     s     0.398057    0.882549    0.262411    0.000000
   308  F     s     0.091344    0.499123    0.594377    0.000000
   309  F     s     0.436453    0.544476    0.912812    0.000000
   310  F     s     0.539658    0.092973    0.745299    0.000000
   311  F     s     0.834408    0.425764    0.067102    0.000000
   312  F     s     0.544501    0.432328    0.412122    0.000000
--------------------------------------------------------------------------------

  Final Cartesian lattice vectors (Angstroms) :

       11.940042    0.005633   -0.001737
       -6.028538   10.414619    0.015837
       -0.088016    0.061317   29.299983


  Final cell parameters and derivatives :

--------------------------------------------------------------------------------
       a           11.940043 Angstrom     dE/de1(xx)     0.005870 eV/strain
       b           12.033612 Angstrom     dE/de2(yy)     0.005571 eV/strain
       c           29.300179 Angstrom     dE/de3(zz)     0.006044 eV/strain
       alpha       89.734597 Degrees      dE/de4(yz)     0.000341 eV/strain
       beta        90.180394 Degrees      dE/de5(xz)    -0.000123 eV/strain
       gamma      120.037501 Degrees      dE/de6(xy)    -0.000385 eV/strain
--------------------------------------------------------------------------------

  Primitive cell volume =          3644.464421 Angs**3

  Density of cell =      1.755564 g/cm**3

  Non-primitive cell volume =          3644.464421 Angs**3


  Final internal derivatives :

--------------------------------------------------------------------------------
   No.  Atomic          a             b             c           Radius
        Label          (eV)          (eV)          (eV)        (eV/Angs)
--------------------------------------------------------------------------------
      1 Ge    c       0.000000      0.000000      0.000000      0.000000
      2 Si    c       0.000489     -0.000221      0.001910      0.000000
      3 Si    c      -0.000012      0.000087      0.002963      0.000000
      4 Si    c      -0.000273      0.000020     -0.001114      0.000000
      5 Si    c       0.000317     -0.000132      0.000437      0.000000
      6 Si    c       0.000013     -0.000091      0.000443      0.000000
      7 Si    c      -0.000457      0.000879     -0.001842      0.000000
      8 Si    c      -0.000181      0.000196      0.000415      0.000000
      9 Si    c      -0.000392     -0.000165     -0.000588      0.000000
     10 Si    c       0.000103     -0.000161     -0.000825      0.000000
     11 Si    c      -0.000355      0.000521     -0.001240      0.000000
     12 Si    c      -0.001017      0.000689     -0.004513      0.000000
     13 Si    c       0.000338      0.000144     -0.000972      0.000000
     14 Si    c       0.000219     -0.000274     -0.000077      0.000000
     15 Si    c      -0.000168      0.000515      0.000492      0.000000
     16 Si    c      -0.000054     -0.000071      0.001740      0.000000
     17 Si    c      -0.000001     -0.000034      0.001246      0.000000
     18 Si    c      -0.000680      0.000411     -0.002780      0.000000
     19 Si    c      -0.000025     -0.000110     -0.000234      0.000000
     20 Si    c       0.001727     -0.001223      0.002966      0.000000
     21 Si    c      -0.000032      0.000118     -0.000126      0.000000
     22 Si    c       0.000022      0.000105      0.000470      0.000000
     23 Si    c       0.000079      0.000040     -0.001545      0.000000
     24 Si    c       0.000141      0.000214     -0.000279      0.000000
     25 Si    c      -0.000014     -0.000206     -0.000751      0.000000
     26 Si    c       0.000563     -0.000190     -0.001462      0.000000
     27 Si    c      -0.000482      0.000482     -0.002126      0.000000
     28 Si    c       0.000056      0.000608     -0.000663      0.000000
     29 Si    c      -0.000906      0.000061     -0.000823      0.000000
     30 Si    c       0.000704     -0.001054      0.002227      0.000000
     31 Si    c      -0.000380      0.000070      0.000342      0.000000
     32 Si    c      -0.000315      0.000606     -0.004708      0.000000
     33 Si    c       0.000386     -0.000218      0.000400      0.000000
     34 Si    c       0.000313     -0.000045      0.000220      0.000000
     35 Ge    c       0.000022     -0.000372      0.001105      0.000000
     36 Ge    c      -0.000421      0.000405      0.000205      0.000000
     37 Si    c      -0.000287     -0.000042      0.000055      0.000000
     38 Si    c       0.000146     -0.000185     -0.000360      0.000000
     39 Si    c      -0.000115      0.000266     -0.000406      0.000000
     40 Si    c       0.000037     -0.000037      0.000063      0.000000
     41 Si    c      -0.000299      0.000079      0.000031      0.000000
     42 Si    c      -0.000162      0.000217     -0.000883      0.000000
     43 Si    c      -0.000318     -0.000106      0.000137      0.000000
     44 Si    c       0.000339     -0.000626      0.001229      0.000000
     45 Si    c       0.000304     -0.000114      0.000246      0.000000
     46 Si    c       0.000055      0.000185     -0.000076      0.000000
     47 Si    c       0.000258     -0.000295     -0.000818      0.000000
     48 Si    c      -0.000249      0.000120     -0.000080      0.000000
     49 Si    c       0.000082     -0.000026      0.000476      0.000000
     50 Si    c       0.000603     -0.000105      0.002396      0.000000
     51 Si    c      -0.000183     -0.000061      0.003678      0.000000
     52 Si    c       0.000687     -0.001044      0.000697      0.000000
     53 Si    c      -0.000179      0.000324      0.001138      0.000000
     54 Si    c      -0.000350     -0.000207     -0.000701      0.000000
     55 Si    c      -0.000268      0.000011     -0.003643      0.000000
     56 Si    c       0.000062     -0.000448      0.000312      0.000000
     57 Si    c       0.000284     -0.000278     -0.002776      0.000000
     58 Si    c      -0.000206     -0.000095     -0.000658      0.000000
     59 Si    c       0.000282      0.000288      0.000193      0.000000
     60 Si    c       0.000132     -0.000356     -0.000958      0.000000
     61 O2    c       0.000127     -0.000279      0.000025      0.000000
     62 O2    c       0.000189     -0.000120      0.000160      0.000000
     63 O2    c      -0.000100      0.000301      0.000073      0.000000
     64 O2    c      -0.000351      0.000154      0.000073      0.000000
     65 O2    c       0.000139      0.000001     -0.000381      0.000000
     66 O2    c       0.000130     -0.000146      0.000202      0.000000
     67 O2    c       0.000515     -0.001640      0.002534      0.000000
     68 O2    c       0.000744      0.000071      0.000714      0.000000
     69 O2    c      -0.000089      0.000068     -0.000122      0.000000
     70 O2    c       0.000061      0.000334      0.000336      0.000000
     71 O2    c       0.000412      0.000057     -0.000735      0.000000
     72 O2    c       0.000845     -0.000790      0.001639      0.000000
     73 O3    c      -0.000405      0.000403     -0.000493      0.000000
     74 O2    c       0.000087      0.001039     -0.001839      0.000000
     75 O2    c       0.000541     -0.000306      0.000045      0.000000
     76 O2    c       0.000908     -0.000354     -0.001696      0.000000
     77 O2    c      -0.000248     -0.000192     -0.000610      0.000000
     78 O2    c      -0.000354      0.000556     -0.000985      0.000000
     79 O2    c      -0.000013      0.000046     -0.000208      0.000000
     80 O2    c      -0.000932      0.000758      0.000422      0.000000
     81 O2    c       0.000053     -0.000351      0.000207      0.000000
     82 O2    c      -0.000101      0.000026      0.000162      0.000000
     83 O2    c       0.000539     -0.000428      0.000198      0.000000
     84 O2    c      -0.000222      0.000368     -0.000284      0.000000
     85 O2    c       0.000268      0.001032     -0.000650      0.000000
     86 O2    c      -0.000383      0.000031      0.000096      0.000000
     87 O2    c      -0.000697      0.000095     -0.000450      0.000000
     88 O2    c      -0.000017      0.000104      0.000135      0.000000
     89 O2    c       0.000007      0.000033     -0.000060      0.000000
     90 O2    c      -0.000134      0.000031     -0.000100      0.000000
     91 O2    c       0.000347     -0.000085     -0.003590      0.000000
     92 O2    c      -0.000388      0.000834     -0.006646      0.000000
     93 O2    c      -0.000022     -0.000082     -0.000352      0.000000
     94 O2    c       0.000397     -0.000461      0.002171      0.000000
     95 O2    c      -0.000054      0.000125      0.000577      0.000000
     96 O2    c      -0.000653     -0.000022      0.004816      0.000000
     97 O2    c      -0.000235      0.000220     -0.000124      0.000000
     98 O2    c      -0.000070     -0.000881      0.000697      0.000000
     99 O2    c       0.000988     -0.000154      0.000865      0.000000
    100 O2    c      -0.000270      0.000296     -0.000037      0.000000
    101 O2    c      -0.000034      0.000001     -0.000191      0.000000
    102 O2    c       0.000130     -0.000037      0.000194      0.000000
    103 O3    c       0.000898     -0.001151      0.000228      0.000000
    104 O2    c       0.000058     -0.000050     -0.000333      0.000000
    105 O3    c       0.000227      0.000681     -0.000316      0.000000
    106 O2    c      -0.000103      0.000132     -0.000118      0.000000
    107 O2    c       0.000106     -0.000013     -0.000153      0.000000
    108 O2    c       0.000058     -0.000014     -0.000225      0.000000
    109 O2    c      -0.000114     -0.000043     -0.000470      0.000000
    110 O2    c       0.000223      0.000168      0.001823      0.000000
    111 O2    c      -0.000006      0.000040      0.000226      0.000000
    112 O2    c       0.000060      0.000086     -0.000814      0.000000
    113 O3    c       0.002229      0.000951     -0.003236      0.000000
    114 O2    c       0.000117     -0.000196     -0.001122      0.000000
    115 O2    c      -0.000173     -0.000012     -0.000093      0.000000
    116 O2    c       0.000289     -0.000305     -0.000138      0.000000
    117 O2    c       0.000009      0.000157     -0.000094      0.000000
    118 O2    c      -0.000139      0.000064      0.000187      0.000000
    119 O2    c       0.000159     -0.000293      0.000301      0.000000
    120 O2    c       0.000064     -0.000143     -0.000345      0.000000
    121 O2    c      -0.000059      0.000025     -0.000019      0.000000
    122 O2    c      -0.003439      0.002869      0.000625      0.000000
    123 O2    c       0.000094     -0.000100     -0.000127      0.000000
    124 O2    c       0.000098     -0.000167     -0.000093      0.000000
    125 O2    c       0.000098     -0.000166     -0.000234      0.000000
    126 O2    c      -0.000093      0.000043     -0.000095      0.000000
    127 O3    c       0.001866     -0.002116     -0.004458      0.000000
    128 O2    c       0.000420     -0.000370     -0.000293      0.000000
    129 O2    c      -0.000127      0.000507     -0.000533      0.000000
    130 O2    c       0.001026     -0.000504     -0.000199      0.000000
    131 O2    c      -0.000111      0.000172     -0.000159      0.000000
    132 O2    c      -0.000410     -0.000460     -0.000206      0.000000
    133 O3    c       0.000239     -0.000856     -0.000009      0.000000
    134 O2    c      -0.000410      0.000163     -0.000091      0.000000
    135 O3    c       0.000788      0.000271      0.000055      0.000000
    136 O2    c      -0.000178      0.000539      0.000271      0.000000
    137 O2    c       0.000408     -0.000328      0.000323      0.000000
    138 O2    c       0.000107     -0.000069      0.000158      0.000000
    139 O3    c      -0.001478      0.001383      0.001181      0.000000
    140 O2    c       0.000024     -0.000583     -0.001110      0.000000
    141 O2    c       0.000568     -0.000015     -0.000860      0.000000
    142 O2    c       0.000140     -0.000344     -0.000367      0.000000
    143 O2    c      -0.000166      0.000063      0.000009      0.000000
    144 O2    c      -0.000092     -0.000025     -0.000044      0.000000
    145 O2    c       0.000655     -0.000164      0.000410      0.000000
    146 O2    c      -0.000109      0.000130      0.000105      0.000000
    147 O2    c      -0.000149      0.000334      0.000531      0.000000
    148 O2    c       0.000046      0.000293      0.000648      0.000000
    149 O2    c       0.000241     -0.000195      0.000242      0.000000
    150 O2    c       0.001665     -0.001488     -0.000592      0.000000
    151 O2    c      -0.000076     -0.000040     -0.000108      0.000000
    152 O2    c       0.000514     -0.000245      0.002446      0.000000
    153 O2    c      -0.000436      0.000680      0.003215      0.000000
    154 O2    c       0.000101      0.000164      0.000702      0.000000
    155 O2    c      -0.000244      0.000102      0.000011      0.000000
    156 O2    c      -0.000178      0.000608     -0.003084      0.000000
    157 O2    c      -0.000049     -0.000142     -0.000038      0.000000
    158 O2    c       0.000055     -0.000812      0.008316      0.000000
    159 O2    c       0.000248     -0.000111     -0.000531      0.000000
    160 O2    c       0.000109      0.000026      0.000169      0.000000
    161 O3    c       0.000446     -0.000799     -0.001615      0.000000
    162 O3    c      -0.000354      0.000182      0.000384      0.000000
    163 O2    c       0.000269     -0.000199     -0.000313      0.000000
    164 O3    c      -0.000214      0.000135      0.001488      0.000000
    165 O3    c      -0.000399     -0.000047      0.002042      0.000000
    166 O2    c      -0.000098      0.000270     -0.000055      0.000000
    167 O2    c      -0.000484     -0.000210      0.000165      0.000000
    168 O2    c       0.001048     -0.000747     -0.000007      0.000000
    169 O2    c      -0.000388      0.000231     -0.000398      0.000000
    170 O2    c      -0.000155      0.000014     -0.000994      0.000000
    171 O2    c       0.000102     -0.000270     -0.000331      0.000000
    172 O2    c       0.000073     -0.000064     -0.000314      0.000000
    173 O2    c      -0.000164     -0.000239     -0.000173      0.000000
    174 O2    c      -0.000430      0.000668     -0.000194      0.000000
    175 O2    c      -0.000116      0.000151     -0.000982      0.000000
    176 O2    c      -0.000476      0.000117      0.000101      0.000000
    177 O2    c       0.000097      0.000032      0.000264      0.000000
    178 O2    c       0.000028     -0.000280     -0.000197      0.000000
    179 O2    c      -0.000280     -0.000170      0.001875      0.000000
    180 O2    c      -0.000351      0.000260     -0.000494      0.000000
    181 F     c      -0.000004     -0.000097      0.000231      0.000000
    182 F     c      -0.000004      0.000051      0.000130      0.000000
    183 F     c       0.000039      0.000041      0.000047      0.000000
    184 F     c      -0.000021      0.000183      0.000127      0.000000
    185 F     c      -0.000777      0.000573      0.000280      0.000000
    186 F     c       0.000155     -0.000104      0.000158      0.000000
    187 O2    s       0.000070      0.000107      0.000627      0.000000
    188 O2    s      -0.000272      0.000186     -0.000088      0.000000
    189 O2    s      -0.000152     -0.000249      0.000467      0.000000
    190 O2    s      -0.000170      0.000189      0.000192      0.000000
    191 O2    s      -0.000072     -0.000071      0.000388      0.000000
    192 O2    s      -0.000046      0.000308     -0.000159      0.000000
    193 O2    s      -0.000317      0.000145     -0.000182      0.000000
    194 O2    s       0.000206     -0.000200      0.000124      0.000000
    195 O2    s       0.000483     -0.000027     -0.000741      0.000000
    196 O2    s      -0.000006      0.000122      0.000453      0.000000
    197 O2    s      -0.000374      0.000090      0.000836      0.000000
    198 O2    s      -0.000074     -0.000148      0.000165      0.000000
    199 O3    s       0.000120     -0.000718      0.000177      0.000000
    200 O2    s      -0.000096     -0.000159     -0.000532      0.000000
    201 O2    s      -0.000174      0.000094     -0.000691      0.000000
    202 O2    s       0.000065      0.000458     -0.000100      0.000000
    203 O2    s       0.000268     -0.000149     -0.000103      0.000000
    204 O2    s      -0.000121     -0.000112     -0.000039      0.000000
    205 O2    s       0.000152     -0.000066      0.000704      0.000000
    206 O2    s      -0.000411      0.000731      0.000560      0.000000
    207 O2    s      -0.000407     -0.000501      0.001282      0.000000
    208 O2    s      -0.000206      0.000095      0.000659      0.000000
    209 O2    s      -0.000171     -0.000107      0.000697      0.000000
    210 O2    s       0.000125     -0.000337      0.000196      0.000000
    211 O2    s      -0.000528      0.000776     -0.000642      0.000000
    212 O2    s       0.000290      0.000509     -0.000781      0.000000
    213 O2    s      -0.000268     -0.000350     -0.000517      0.000000
    214 O2    s       0.000146     -0.000165     -0.000653      0.000000
    215 O2    s      -0.000231      0.000053     -0.000291      0.000000
    216 O2    s       0.000093      0.000044     -0.000413      0.000000
    217 O2    s       0.000162      0.000100     -0.000065      0.000000
    218 O2    s      -0.000237      0.000225      0.001359      0.000000
    219 O2    s       0.000141      0.000013      0.000043      0.000000
    220 O2    s       0.000204     -0.000201     -0.000220      0.000000
    221 O2    s       0.000139      0.000069     -0.000200      0.000000
    222 O2    s      -0.000227     -0.000052     -0.000882      0.000000
    223 O2    s      -0.000171      0.000215      0.000719      0.000000
    224 O2    s       0.000291     -0.000596      0.000377      0.000000
    225 O2    s       0.000376      0.000229      0.000521      0.000000
    226 O2    s       0.000195     -0.000074     -0.001276      0.000000
    227 O2    s      -0.000120      0.000258      0.000302      0.000000
    228 O2    s       0.000034      0.000085     -0.001289      0.000000
    229 O3    s       0.000380     -0.000711     -0.001230      0.000000
    230 O2    s      -0.000221      0.000127      0.000589      0.000000
    231 O3    s       0.000192      0.000144      0.000214      0.000000
    232 O2    s       0.000038     -0.000039      0.000688      0.000000
    233 O2    s       0.000174     -0.000072      0.000901      0.000000
    234 O2    s      -0.000256      0.000040      0.000331      0.000000
    235 O2    s       0.000140     -0.000378     -0.000141      0.000000
    236 O2    s       0.000332      0.000019     -0.000003      0.000000
    237 O2    s      -0.000359      0.000202      0.000432      0.000000
    238 O2    s       0.000008      0.000290      0.000232      0.000000
    239 O3    s      -0.001836     -0.001103      0.003641      0.000000
    240 O2    s       0.000300     -0.000369     -0.000819      0.000000
    241 O2    s      -0.000003     -0.000019      0.000028      0.000000
    242 O2    s      -0.000011     -0.000053      0.000326      0.000000
    243 O2    s      -0.000109      0.000106      0.000545      0.000000
    244 O2    s      -0.000167      0.000236      0.000008      0.000000
    245 O2    s      -0.000126     -0.000177      0.000136      0.000000
    246 O2    s       0.000453     -0.000511      0.001167      0.000000
    247 O2    s      -0.000070      0.000112     -0.000443      0.000000
    248 O2    s       0.001151     -0.000231     -0.002651      0.000000
    249 O2    s       0.000033      0.000023     -0.000209      0.000000
    250 O2    s       0.000054      0.000015     -0.000436      0.000000
    251 O2    s       0.000101     -0.000167      0.000342      0.000000
    252 O2    s      -0.000212      0.000202     -0.000238      0.000000
    253 O3    s      -0.000960      0.001318      0.003751      0.000000
    254 O2    s      -0.000114     -0.000001     -0.000951      0.000000
    255 O2    s      -0.000007     -0.000344     -0.000733      0.000000
    256 O2    s      -0.000065      0.000219     -0.001263      0.000000
    257 O2    s       0.000031     -0.000208     -0.000192      0.000000
    258 O2    s       0.000052     -0.000213     -0.000977      0.000000
    259 O3    s      -0.000544      0.000674      0.001756      0.000000
    260 O2    s       0.000057      0.000017      0.000521      0.000000
    261 O3    s       0.000016     -0.000377      0.002216      0.000000
    262 O2    s       0.000197     -0.000038      0.001307      0.000000
    263 O2    s      -0.000242      0.000017      0.001240      0.000000
    264 O2    s      -0.001059      0.000279      0.002260      0.000000
    265 O3    s       0.000638     -0.000864     -0.004691      0.000000
    266 O2    s       0.000049      0.000808      0.000746      0.000000
    267 O2    s      -0.000568     -0.000346      0.000487      0.000000
    268 O2    s      -0.000385     -0.000204     -0.000127      0.000000
    269 O2    s       0.000223     -0.000011     -0.000531      0.000000
    270 O2    s      -0.000094      0.000218     -0.000527      0.000000
    271 O2    s      -0.000155      0.000546     -0.000809      0.000000
    272 O2    s       0.000225     -0.000273      0.000155      0.000000
    273 O2    s      -0.000190     -0.000114     -0.000620      0.000000
    274 O2    s      -0.000275      0.000086      0.000308      0.000000
    275 O2    s      -0.000091      0.000480      0.000819      0.000000
    276 O2    s      -0.000299     -0.000042      0.002947      0.000000
    277 O2    s       0.000159      0.000064      0.000269      0.000000
    278 O2    s       0.000191     -0.000069      0.000403      0.000000
    279 O2    s      -0.000023      0.000040      0.000143      0.000000
    280 O2    s       0.000004      0.000063     -0.000618      0.000000
    281 O2    s       0.000047     -0.000051     -0.000274      0.000000
    282 O2    s      -0.000102     -0.000394      0.000347      0.000000
    283 O2    s      -0.000249      0.000103     -0.000580      0.000000
    284 O2    s      -0.000184      0.002346     -0.002205      0.000000
    285 O2    s       0.000165     -0.000167     -0.000394      0.000000
    286 O2    s      -0.000103      0.000045     -0.000024      0.000000
    287 O3    s      -0.000343      0.000286      0.000206      0.000000
    288 O3    s       0.000324     -0.000103     -0.000477      0.000000
    289 O2    s      -0.000306      0.000118      0.001672      0.000000
    290 O3    s       0.000161     -0.000030     -0.000816      0.000000
    291 O3    s      -0.000144      0.000124     -0.000181      0.000000
    292 O2    s      -0.000152      0.000115      0.000355      0.000000
    293 O2    s       0.000121     -0.000334      0.000296      0.000000
    294 O2    s       0.000105      0.000548      0.003008      0.000000
    295 O2    s      -0.000069     -0.000217      0.000003      0.000000
    296 O2    s       0.000431     -0.001356     -0.002132      0.000000
    297 O2    s       0.000099      0.000093     -0.000069      0.000000
    298 O2    s      -0.000082      0.000046      0.000273      0.000000
    299 O2    s      -0.000234     -0.000215     -0.000808      0.000000
    300 O2    s      -0.000108      0.000398     -0.000691      0.000000
    301 O2    s      -0.000091      0.000247      0.000408      0.000000
    302 O2    s      -0.000045     -0.000166      0.000297      0.000000
    303 O2    s      -0.000117     -0.000231     -0.000519      0.000000
    304 O2    s      -0.000090      0.000125      0.000405      0.000000
    305 O2    s       0.001378      0.000031      0.000858      0.000000
    306 O2    s       0.000163     -0.000095     -0.000104      0.000000
    307 F     s       0.000150      0.000129     -0.000879      0.000000
    308 F     s      -0.000089      0.000179     -0.001684      0.000000
    309 F     s      -0.000100     -0.000162     -0.000133      0.000000
    310 F     s       0.000060     -0.000431     -0.000538      0.000000
    311 F     s      -0.000401     -0.000346     -0.003983      0.000000
    312 F     s      -0.000436      0.000264     -0.000557      0.000000
--------------------------------------------------------------------------------
  Maximum abs         0.003439      0.002869      0.008316      0.000000
--------------------------------------------------------------------------------


  Time to end of optimisation =       7.4386 seconds


  Peak dynamic memory used =      19.13 MB 


  Timing analysis for GULP :

--------------------------------------------------------------------------------
  Task / Subroutine                                          Time (Seconds)
--------------------------------------------------------------------------------
  Calculation of reciprocal space energy and derivatives          0.2911
  Calculation of real space energy and derivatives                6.2266
  Calculation of three-body energy and derivatives                0.6915
  Calculation of matrix inversion                                 0.1920
--------------------------------------------------------------------------------
  Total CPU time                                                  7.4386
--------------------------------------------------------------------------------


  Dump file written as out.res                                                 
  CIF file written as out.cif                                                 


  Job Finished at 06:49.20  1st December   2016                               

