********************************************************************************
*                       GENERAL UTILITY LATTICE PROGRAM                        *
*                                 Julian Gale                                  *
*                      Nanochemistry Research Institute                        *
*                           Department of Chemistry                            *
*                    Curtin University, Western Australia                      *
********************************************************************************
* Version = 4.2.0 * Last modified =  20th January 2014                         *
********************************************************************************
*  optimise     - perform optimisation run                                     *
*  conp         - constant pressure calculation                                *
*  qok          - running with non charge neutral cell is OK                   *
********************************************************************************

  Job Started  at 16:53.01 30th November   2016                               

  Number of CPUs =     1


  Total number of configurations input =   1

********************************************************************************
*  Input for Configuration =   1                                               *
********************************************************************************

  Formula = Ge3Si57O120F6                                               

  Number of irreducible atoms/shells =     312


  Total number atoms/shells =     312

  Dimensionality = 3               :  Bulk   


  Charge on solid   =  -6.000000 =>neutralising background added


  Cartesian lattice vectors (Angstroms) :

       11.981674    0.000000    0.000000
       -6.021085   10.357112    0.000000
       -0.047707    0.006548   29.504682

  Cell parameters (Angstroms/Degrees):

  a =      11.9817    alpha =  89.9424
  b =      11.9801    beta  =  90.0926
  c =      29.5047    gamma = 120.1715

  Initial cell volume =        3661.399274 Angs**3

  Temperature of configuration =  0.000     K 

  Pressure of configuration =         0.000 GPa 

  Fractional coordinates of asymmetric unit :

--------------------------------------------------------------------------------
   No.  Atomic       x           y          z         Charge      Occupancy
        Label      (Frac)      (Frac)     (Frac)        (e)         (Frac)  
--------------------------------------------------------------------------------
      1 Ge    c    0.699600    0.375700    0.033890     4.00000    1.000000    
      2 Si    c    0.625693 *  0.325577 *  0.367645 *   4.00000    1.000000    
      3 Si    c    0.676906 *  0.296555 *  0.699462 *   4.00000    1.000000    
      4 Si    c    0.296438 *  0.621190 *  0.533162 *   4.00000    1.000000    
      5 Si    c    0.381207 *  0.676060 *  0.865426 *   4.00000    1.000000    
      6 Si    c    0.321499 *  0.705036 *  0.200011 *   4.00000    1.000000    
      7 Si    c    0.377731 *  0.699222 *  0.299889 *   4.00000    1.000000    
      8 Si    c    0.328860 *  0.618584 *  0.965383 *   4.00000    1.000000    
      9 Si    c    0.297209 *  0.676481 *  0.633621 *   4.00000    1.000000    
     10 Si    c    0.622401 *  0.296620 *  0.799834 *   4.00000    1.000000    
     11 Si    c    0.675194 *  0.377688 *  0.468468 *   4.00000    1.000000    
     12 Si    c    0.694360 *  0.320493 *  0.135168 *   4.00000    1.000000    
     13 Si    c    0.528572 *  0.409522 *  0.965872 *   4.00000    1.000000    
     14 Si    c    0.584500 *  0.113162 *  0.303627 *   4.00000    1.000000    
     15 Si    c    0.886966 *  0.469465 *  0.634596 *   4.00000    1.000000    
     16 Si    c    0.467439 *  0.582278 *  0.467786 *   4.00000    1.000000    
     17 Si    c    0.417469 *  0.886161 *  0.800616 *   4.00000    1.000000    
     18 Si    c    0.113454 *  0.532096 *  0.133196 *   4.00000    1.000000    
     19 Si    c    0.420532 *  0.533237 *  0.366022 *   4.00000    1.000000    
     20 Si    c    0.117894 *  0.585212 *  0.029577 *   4.00000    1.000000    
     21 Si    c    0.469312 *  0.886049 *  0.699014 *   4.00000    1.000000    
     22 Si    c    0.583257 *  0.468231 *  0.864293 *   4.00000    1.000000    
     23 Si    c    0.886144 *  0.416496 *  0.533109 *   4.00000    1.000000    
     24 Si    c    0.528948 *  0.112432 *  0.202527 *   4.00000    1.000000    
     25 Si    c    0.302988 *  0.398551 *  0.849762 *   4.00000    1.000000    
     26 Si    c    0.601301 *  0.906026 *  0.185352 *   4.00000    1.000000    
     27 Si    c    0.095079 *  0.697273 *  0.518530 *   4.00000    1.000000    
     28 Si    c    0.701109 *  0.603358 *  0.353235 *   4.00000    1.000000    
     29 Si    c    0.398594 *  0.095240 *  0.685160 *   4.00000    1.000000    
     30 Si    c    0.901809 *  0.299976 *  0.015294 *   4.00000    1.000000    
     31 Si    c    0.395927 *  0.300218 *  0.481278 *   4.00000    1.000000    
     32 Si    c    0.899158 *  0.603801 *  0.147941 *   4.00000    1.000000    
     33 Si    c    0.699119 *  0.095604 *  0.814584 *   4.00000    1.000000    
     34 Si    c    0.605701 *  0.693038 *  0.980764 *   4.00000    1.000000    
     35 Si    c    0.095816 *  0.397626 *  0.648675 *   4.00000    1.000000    
     36 Si    c    0.303893 *  0.900903 *  0.317375 *   4.00000    1.000000    
     37 Si    c    0.251112 *  0.337345 *  0.949776 *   4.00000    1.000000    
     38 Si    c    0.658261 *  0.910657 *  0.285885 *   4.00000    1.000000    
     39 Si    c    0.088430 *  0.748732 *  0.618984 *   4.00000    1.000000    
     40 Si    c    0.746692 *  0.658584 *  0.454105 *   4.00000    1.000000    
     41 Si    c    0.340277 *  0.087613 *  0.785564 *   4.00000    1.000000    
     42 Si    c    0.910171 *  0.250933 *  0.117863 *   4.00000    1.000000    
     43 Si    c    0.345419 *  0.255297 *  0.380320 *   4.00000    1.000000    
     44 Ge    c    0.907803 *  0.654220 *  0.045865 *   4.00000    1.000000    
     45 Si    c    0.748627 *  0.087801 *  0.714006 *   4.00000    1.000000    
     46 Si    c    0.661735 *  0.747018 *  0.880083 *   4.00000    1.000000    
     47 Si    c    0.087594 *  0.339886 *  0.548110 *   4.00000    1.000000    
     48 Si    c    0.248913 *  0.912584 *  0.217370 *   4.00000    1.000000    
     49 Si    c    0.972269 *  0.120944 *  0.965672 *   4.00000    1.000000    
     50 Si    c    0.875274 *  0.849060 *  0.300347 *   4.00000    1.000000    
     51 Si    c    0.151018 *  0.029111 *  0.634572 *   4.00000    1.000000    
     52 Si    c    0.024669 *  0.877191 *  0.469818 *   4.00000    1.000000    
     53 Si    c    0.122626 *  0.149952 *  0.799912 *   4.00000    1.000000    
     54 Si    c    0.847374 *  0.970382 *  0.133425 *   4.00000    1.000000    
     55 Ge    c    0.122966 *  0.971801 *  0.366908 *   4.00000    1.000000    
     56 Si    c    0.853399 *  0.879642 *  0.032206 *   4.00000    1.000000    
     57 Si    c    0.028277 *  0.149436 *  0.699247 *   4.00000    1.000000    
     58 Si    c    0.879096 *  0.027220 *  0.864955 *   4.00000    1.000000    
     59 Si    c    0.149415 *  0.122222 *  0.533814 *   4.00000    1.000000    
     60 Si    c    0.968879 *  0.849845 *  0.199648 *   4.00000    1.000000    
     61 O2    c    0.925637 *  0.004535 *  0.000400 *   0.87073    1.000000    
     62 O3    c    0.997535 *  0.934238 *  0.330666 *   1.33043    1.000000    
     63 O2    c    0.069976 *  0.069194 *  0.667015 *   0.87073    1.000000    
     64 O2    c    0.066328 *  0.996901 *  0.503355 *   0.87073    1.000000    
     65 O2    c    0.001431 *  0.070489 *  0.832691 *   0.87073    1.000000    
     66 O2    c    0.928548 *  0.928601 *  0.165589 *   0.87073    1.000000    
     67 O2    c    0.341735 *  0.577175 *  0.332607 *   0.87073    1.000000    
     68 O2    c    0.420205 *  0.760806 *  0.666425 *   0.87073    1.000000    
     69 O2    c    0.246904 *  0.657356 *  0.999164 *   0.87073    1.000000    
     70 O2    c    0.660756 *  0.420317 *  0.832046 *   0.87073    1.000000    
     71 O2    c    0.580365 *  0.239970 *  0.171341 *   0.87073    1.000000    
     72 O2    c    0.759233 *  0.339008 *  0.501230 *   0.87073    1.000000    
     73 O3    c    0.566823 *  0.327378 *  0.997687 *   1.33043    1.000000    
     74 O2    c    0.761567 *  0.420205 *  0.666898 *   0.87073    1.000000    
     75 O2    c    0.663580 *  0.238974 *  0.335738 *   0.87073    1.000000    
     76 O2    c    0.418938 *  0.658597 *  0.500255 *   0.87073    1.000000    
     77 O2    c    0.237473 *  0.583766 *  0.166204 *   0.87073    1.000000    
     78 O2    c    0.341999 *  0.760970 *  0.833137 *   0.87073    1.000000    
     79 O2    c    0.126675 *  0.209944 *  0.970223 *   0.87073    1.000000    
     80 O2    c    0.782321 *  0.909266 *  0.306375 *   0.87073    1.000000    
     81 O2    c    0.087361 *  0.874467 *  0.638824 *   0.87073    1.000000    
     82 O2    c    0.870642 *  0.783719 *  0.475779 *   0.87073    1.000000    
     83 O2    c    0.213750 *  0.087045 *  0.805457 *   0.87073    1.000000    
     84 O2    c    0.909901 *  0.125571 *  0.138446 *   0.87073    1.000000    
     85 O3    c    0.222361 *  0.134539 *  0.358226 *   1.33043    1.000000    
     86 O3    c    0.927603 *  0.803537 *  0.027457 *   1.33043    1.000000    
     87 O2    c    0.874082 *  0.086759 *  0.693770 *   0.87073    1.000000    
     88 O2    c    0.788011 *  0.872964 *  0.859569 *   0.87073    1.000000    
     89 O2    c    0.086968 *  0.213537 *  0.527956 *   0.87073    1.000000    
     90 O2    c    0.124353 *  0.915590 *  0.197185 *   0.87073    1.000000    
     91 O2    c    0.922050 *  0.860565 *  0.249021 *   0.87073    1.000000    
     92 O2    c    0.140949 *  0.074222 *  0.584672 *   0.87073    1.000000    
     93 O2    c    0.930484 *  0.064468 *  0.915672 *   0.87073    1.000000    
     94 O2    c    0.068025 *  0.135430 *  0.749591 *   0.87073    1.000000    
     95 O2    c    0.856312 *  0.931354 *  0.082814 *   0.87073    1.000000    
     96 O3    c    0.059705 *  0.934715 *  0.420196 *   1.33043    1.000000    
     97 O2    c    0.907682 *  0.207232 *  0.976883 *   0.87073    1.000000    
     98 O2    c    0.799278 *  0.698415 *  0.314607 *   0.87073    1.000000    
     99 O2    c    0.302261 *  0.097645 *  0.646887 *   0.87073    1.000000    
    100 O2    c    0.096045 *  0.795555 *  0.480147 *   0.87073    1.000000    
    101 O2    c    0.205321 *  0.302139 *  0.811067 *   0.87073    1.000000    
    102 O2    c    0.696532 *  0.903139 *  0.146912 *   0.87073    1.000000    
    103 O3    c    0.208376 *  0.894233 *  0.356749 *   1.33043    1.000000    
    104 O2    c    0.701718 *  0.787847 *  0.019766 *   0.87073    1.000000    
    105 O2    c    0.097982 *  0.301216 *  0.686975 *   0.87073    1.000000    
    106 O2    c    0.797427 *  0.097066 *  0.852873 *   0.87073    1.000000    
    107 O2    c    0.299595 *  0.202243 *  0.519614 *   0.87073    1.000000    
    108 O2    c    0.903735 *  0.698110 *  0.188563 *   0.87073    1.000000    
    109 O2    c    0.321302 *  0.643445 *  0.249376 *   0.87073    1.000000    
    110 O2    c    0.354729 *  0.678434 *  0.583276 *   0.87073    1.000000    
    111 O2    c    0.324286 *  0.676364 *  0.915664 *   0.87073    1.000000    
    112 O2    c    0.678907 *  0.354312 *  0.749636 *   0.87073    1.000000    
    113 O3    c    0.628704 *  0.311289 *  0.086998 *   1.33043    1.000000    
    114 O2    c    0.679379 *  0.323328 *  0.418193 *   0.87073    1.000000    
    115 O2    c    0.371690 *  0.324851 *  0.966963 *   0.87073    1.000000    
    116 O2    c    0.670351 *  0.042963 *  0.305143 *   0.87073    1.000000    
    117 O2    c    0.956041 *  0.625895 *  0.637320 *   0.87073    1.000000    
    118 O2    c    0.623701 *  0.668523 *  0.471321 *   0.87073    1.000000    
    119 O2    c    0.330261 *  0.955025 *  0.803728 *   0.87073    1.000000    
    120 O2    c    0.041478 *  0.375782 *  0.135789 *   0.87073    1.000000    
    121 O2    c    0.334788 *  0.377705 *  0.362893 *   0.87073    1.000000    
    122 O3    c    0.054593 *  0.674179 *  0.026647 *   1.33043    1.000000    
    123 O2    c    0.625663 *  0.955031 *  0.695895 *   0.87073    1.000000    
    124 O2    c    0.670150 *  0.624659 *  0.861018 *   0.87073    1.000000    
    125 O2    c    0.955070 *  0.329455 *  0.529652 *   0.87073    1.000000    
    126 O2    c    0.372660 *  0.044144 *  0.198837 *   0.87073    1.000000    
    127 O3    c    0.766382 *  0.290474 *  0.007926 *   1.33043    1.000000    
    128 O2    c    0.701313 *  0.469390 *  0.345602 *   0.87073    1.000000    
    129 O2    c    0.533277 *  0.228797 *  0.677243 *   0.87073    1.000000    
    130 O2    c    0.228559 *  0.696443 *  0.510632 *   0.87073    1.000000    
    131 O2    c    0.305691 *  0.533788 *  0.841981 *   0.87073    1.000000    
    132 O2    c    0.464358 *  0.774535 *  0.177354 *   0.87073    1.000000    
    133 O2    c    0.302498 *  0.765874 *  0.322434 *   0.87073    1.000000    
    134 O2    c    0.472052 *  0.694384 *  0.987737 *   0.87073    1.000000    
    135 O2    c    0.229513 *  0.532717 *  0.655684 *   0.87073    1.000000    
    136 O2    c    0.698139 *  0.229067 *  0.822126 *   0.87073    1.000000    
    137 O2    c    0.530545 *  0.301997 *  0.489650 *   0.87073    1.000000    
    138 O2    c    0.766777 *  0.467349 *  0.155050 *   0.87073    1.000000    
    139 O1    c    0.769080 *  0.540668 *  0.020949 *   1.73396    1.000000    
    140 O2    c    0.470368 *  0.252265 *  0.361488 *   0.87073    1.000000    
    141 O2    c    0.750607 *  0.214480 *  0.694295 *   0.87073    1.000000    
    142 O2    c    0.214580 *  0.464970 *  0.528529 *   0.87073    1.000000    
    143 O2    c    0.537586 *  0.751334 *  0.861018 *   0.87073    1.000000    
    144 O2    c    0.244724 *  0.784612 *  0.197405 *   0.87073    1.000000    
    145 O2    c    0.533257 *  0.782751 *  0.304528 *   0.87073    1.000000    
    146 O2    c    0.250647 *  0.462189 *  0.970322 *   0.87073    1.000000    
    147 O2    c    0.214953 *  0.750006 *  0.638426 *   0.87073    1.000000    
    148 O2    c    0.466247 *  0.214056 *  0.804924 *   0.87073    1.000000    
    149 O2    c    0.747550 *  0.533414 *  0.473664 *   0.87073    1.000000    
    150 O2    c    0.786832 *  0.257181 *  0.135726 *   0.87073    1.000000    
    151 O2    c    0.229472 *  0.322574 *  0.895510 *   0.87073    1.000000    
    152 O2    c    0.675518 *  0.909806 *  0.231608 *   0.87073    1.000000    
    153 O2    c    0.090783 *  0.767912 *  0.564698 *   0.87073    1.000000    
    154 O2    c    0.770843 *  0.677541 *  0.399859 *   0.87073    1.000000    
    155 O2    c    0.323217 *  0.089937 *  0.731303 *   0.87073    1.000000    
    156 O2    c    0.910477 *  0.239488 *  0.063681 *   0.87073    1.000000    
    157 O2    c    0.323753 *  0.229282 *  0.434546 *   0.87073    1.000000    
    158 O3    c    0.902992 *  0.682129 *  0.104074 *   1.33043    1.000000    
    159 O2    c    0.768847 *  0.090958 *  0.768220 *   0.87073    1.000000    
    160 O2    c    0.680827 *  0.763528 *  0.934382 *   0.87073    1.000000    
    161 O2    c    0.089689 *  0.322542 *  0.602318 *   0.87073    1.000000    
    162 O2    c    0.231574 *  0.910923 *  0.271902 *   0.87073    1.000000    
    163 O2    c    0.584843 *  0.551159 *  0.989052 *   0.87073    1.000000    
    164 O2    c    0.443711 *  0.026360 *  0.326693 *   0.87073    1.000000    
    165 O2    c    0.971281 *  0.412637 *  0.657569 *   0.87073    1.000000    
    166 O2    c    0.408346 *  0.439169 *  0.489500 *   0.87073    1.000000    
    167 O2    c    0.559298 *  0.970550 *  0.823320 *   0.87073    1.000000    
    168 O2    c    0.022444 *  0.583884 *  0.152676 *   0.87073    1.000000    
    169 O2    c    0.563069 *  0.591955 *  0.343912 *   0.87073    1.000000    
    170 O2    c    0.023896 *  0.443545 *  0.008076 *   0.87073    1.000000    
    171 O2    c    0.411636 *  0.969579 *  0.675980 *   0.87073    1.000000    
    172 O2    c    0.441736 *  0.410859 *  0.841312 *   0.87073    1.000000    
    173 O2    c    0.969369 *  0.557583 *  0.509618 *   0.87073    1.000000    
    174 O2    c    0.588871 *  0.032821 *  0.177847 *   0.87073    1.000000    
    175 O2    c    0.582521 *  0.166088 *  0.253093 *   0.87073    1.000000    
    176 O2    c    0.833552 *  0.416090 *  0.583870 *   0.87073    1.000000    
    177 O2    c    0.583848 *  0.415529 *  0.914853 *   0.87073    1.000000    
    178 O2    c    0.416402 *  0.832933 *  0.749766 *   0.87073    1.000000    
    179 O2    c    0.160031 *  0.579144 *  0.081884 *   0.87073    1.000000    
    180 O2    c    0.417876 *  0.585774 *  0.416643 *   0.87073    1.000000    
    181 F     c    0.449890 *  0.905079 *  0.250679 *   0.56000    1.000000    
    182 F     c    0.095336 *  0.547899 *  0.582955 *   0.56000    1.000000    
    183 F     c    0.450038 *  0.547285 *  0.914446 *   0.56000    1.000000    
    184 F     c    0.548479 *  0.095443 *  0.749329 *   0.56000    1.000000    
    185 F     c    0.875868 *  0.462515 *  0.073508 *   0.56000    1.000000    
    186 F     c    0.548456 *  0.452270 *  0.416749 *   0.56000    1.000000    
    187 O2    s    0.922989 *  0.004201 *  0.999901 *  -2.87073    1.000000    
    188 O3    s    0.995080 *  0.928162 *  0.330509 *  -3.33043    1.000000    
    189 O2    s    0.074378 *  0.073659 *  0.666982 *  -2.87073    1.000000    
    190 O2    s    0.071086 *  0.997746 *  0.503075 *  -2.87073    1.000000    
    191 O2    s    0.001297 *  0.074528 *  0.832631 *  -2.87073    1.000000    
    192 O2    s    0.924071 *  0.924634 *  0.165781 *  -2.87073    1.000000    
    193 O2    s    0.353566 *  0.585406 *  0.332607 *  -2.87073    1.000000    
    194 O2    s    0.412553 *  0.764958 *  0.666370 *  -2.87073    1.000000    
    195 O2    s    0.241601 *  0.645711 *  0.998919 *  -2.87073    1.000000    
    196 O2    s    0.648844 *  0.412425 *  0.832011 *  -2.87073    1.000000    
    197 O2    s    0.586898 *  0.235022 *  0.170808 *  -2.87073    1.000000    
    198 O2    s    0.763537 *  0.350934 *  0.501102 *  -2.87073    1.000000    
    199 O3    s    0.572659 *  0.339313 *  0.997109 *  -3.33043    1.000000    
    200 O2    s    0.765886 *  0.412639 *  0.666901 *  -2.87073    1.000000    
    201 O2    s    0.651607 *  0.234830 *  0.335684 *  -2.87073    1.000000    
    202 O2    s    0.411417 *  0.646876 *  0.500268 *  -2.87073    1.000000    
    203 O2    s    0.232907 *  0.590606 *  0.166162 *  -2.87073    1.000000    
    204 O2    s    0.353838 *  0.765297 *  0.833066 *  -2.87073    1.000000    
    205 O2    s    0.122958 *  0.213573 *  0.967635 *  -2.87073    1.000000    
    206 O2    s    0.778920 *  0.902970 *  0.303560 *  -2.87073    1.000000    
    207 O2    s    0.094225 *  0.877842 *  0.636343 *  -2.87073    1.000000    
    208 O2    s    0.873925 *  0.780490 *  0.472916 *  -2.87073    1.000000    
    209 O2    s    0.217201 *  0.093742 *  0.802842 *  -2.87073    1.000000    
    210 O2    s    0.903500 *  0.122797 *  0.135798 *  -2.87073    1.000000    
    211 O3    s    0.226525 *  0.133196 *  0.361165 *  -3.33043    1.000000    
    212 O3    s    0.918114 *  0.801153 *  0.029267 *  -3.33043    1.000000    
    213 O2    s    0.877517 *  0.093521 *  0.696407 *  -2.87073    1.000000    
    214 O2    s    0.784718 *  0.876425 *  0.862227 *  -2.87073    1.000000    
    215 O2    s    0.093649 *  0.216900 *  0.530626 *  -2.87073    1.000000    
    216 O2    s    0.120930 *  0.908402 *  0.199504 *  -2.87073    1.000000    
    217 O2    s    0.922158 *  0.858021 *  0.249106 *  -2.87073    1.000000    
    218 O2    s    0.143051 *  0.074560 *  0.584525 *  -2.87073    1.000000    
    219 O2    s    0.929380 *  0.066621 *  0.915564 *  -2.87073    1.000000    
    220 O2    s    0.069664 *  0.138653 *  0.749555 *  -2.87073    1.000000    
    221 O2    s    0.854956 *  0.930360 *  0.083283 *  -2.87073    1.000000    
    222 O3    s    0.061520 *  0.931789 *  0.420826 *  -3.33043    1.000000    
    223 O2    s    0.914102 *  0.207708 *  0.979721 *  -2.87073    1.000000    
    224 O2    s    0.797243 *  0.704526 *  0.317079 *  -2.87073    1.000000    
    225 O2    s    0.295920 *  0.090034 *  0.649494 *  -2.87073    1.000000    
    226 O2    s    0.088533 *  0.794148 *  0.482922 *  -2.87073    1.000000    
    227 O2    s    0.206437 *  0.295716 *  0.813808 *  -2.87073    1.000000    
    228 O2    s    0.702594 *  0.910523 *  0.149461 *  -2.87073    1.000000    
    229 O3    s    0.210616 *  0.901215 *  0.353777 *  -3.33043    1.000000    
    230 O2    s    0.707273 *  0.787399 *  0.017001 *  -2.87073    1.000000    
    231 O2    s    0.090389 *  0.295053 *  0.684345 *  -2.87073    1.000000    
    232 O2    s    0.796007 *  0.089525 *  0.850230 *  -2.87073    1.000000    
    233 O2    s    0.293548 *  0.203849 *  0.517156 *  -2.87073    1.000000    
    234 O2    s    0.910226 *  0.704770 *  0.185673 *  -2.87073    1.000000    
    235 O2    s    0.327008 *  0.655323 *  0.249452 *  -2.87073    1.000000    
    236 O2    s    0.342959 *  0.672397 *  0.583253 *  -2.87073    1.000000    
    237 O2    s    0.330502 *  0.670465 *  0.915597 *  -2.87073    1.000000    
    238 O2    s    0.672930 *  0.342488 *  0.749615 *  -2.87073    1.000000    
    239 O3    s    0.640421 *  0.316954 *  0.087903 *  -3.33043    1.000000    
    240 O2    s    0.673447 *  0.329103 *  0.418114 *  -2.87073    1.000000    
    241 O2    s    0.374505 *  0.334907 *  0.964942 *  -2.87073    1.000000    
    242 O2    s    0.660178 *  0.036384 *  0.302959 *  -2.87073    1.000000    
    243 O2    s    0.962798 *  0.622658 *  0.635112 *  -2.87073    1.000000    
    244 O2    s    0.620469 *  0.658530 *  0.469126 *  -2.87073    1.000000    
    245 O2    s    0.340245 *  0.961804 *  0.801503 *  -2.87073    1.000000    
    246 O2    s    0.035243 *  0.378904 *  0.133662 *  -2.87073    1.000000    
    247 O2    s    0.345070 *  0.381313 *  0.365088 *  -2.87073    1.000000    
    248 O3    s    0.049761 *  0.663502 *  0.028429 *  -3.33043    1.000000    
    249 O2    s    0.622449 *  0.961834 *  0.698119 *  -2.87073    1.000000    
    250 O2    s    0.660323 *  0.621407 *  0.863360 *  -2.87073    1.000000    
    251 O2    s    0.961829 *  0.339493 *  0.531939 *  -2.87073    1.000000    
    252 O2    s    0.375799 *  0.037406 *  0.201160 *  -2.87073    1.000000    
    253 O3    s    0.775620 *  0.297798 *  0.010677 *  -3.33043    1.000000    
    254 O2    s    0.693519 *  0.468556 *  0.348705 *  -2.87073    1.000000    
    255 O2    s    0.533889 *  0.221708 *  0.680395 *  -2.87073    1.000000    
    256 O2    s    0.221521 *  0.688832 *  0.513787 *  -2.87073    1.000000    
    257 O2    s    0.313135 *  0.534084 *  0.845223 *  -2.87073    1.000000    
    258 O2    s    0.463909 *  0.781120 *  0.180558 *  -2.87073    1.000000    
    259 O2    s    0.310554 *  0.773198 *  0.319477 *  -2.87073    1.000000    
    260 O2    s    0.471106 *  0.686392 *  0.984654 *  -2.87073    1.000000    
    261 O2    s    0.222377 *  0.533260 *  0.652641 *  -2.87073    1.000000    
    262 O2    s    0.690480 *  0.221978 *  0.819019 *  -2.87073    1.000000    
    263 O2    s    0.531385 *  0.309634 *  0.486553 *  -2.87073    1.000000    
    264 O2    s    0.773285 *  0.466786 *  0.152256 *  -2.87073    1.000000    
    265 O1    s    0.775707 *  0.538540 *  0.023795 *  -3.73396    1.000000    
    266 O2    s    0.473404 *  0.260421 *  0.364123 *  -2.87073    1.000000    
    267 O2    s    0.742638 *  0.209234 *  0.696927 *  -2.87073    1.000000    
    268 O2    s    0.209295 *  0.467758 *  0.531100 *  -2.87073    1.000000    
    269 O2    s    0.534695 *  0.742939 *  0.863510 *  -2.87073    1.000000    
    270 O2    s    0.253204 *  0.789939 *  0.199771 *  -2.87073    1.000000    
    271 O2    s    0.530380 *  0.787974 *  0.302011 *  -2.87073    1.000000    
    272 O2    s    0.258828 *  0.465040 *  0.967647 *  -2.87073    1.000000    
    273 O2    s    0.209713 *  0.742104 *  0.635846 *  -2.87073    1.000000    
    274 O2    s    0.468827 *  0.208822 *  0.802325 *  -2.87073    1.000000    
    275 O2    s    0.739726 *  0.530635 *  0.471013 *  -2.87073    1.000000    
    276 O2    s    0.790916 *  0.263080 *  0.133711 *  -2.87073    1.000000    
    277 O2    s    0.239410 *  0.332076 *  0.896440 *  -2.87073    1.000000    
    278 O2    s    0.665810 *  0.909493 *  0.232462 *  -2.87073    1.000000    
    279 O2    s    0.090972 *  0.758467 *  0.565592 *  -2.87073    1.000000    
    280 O2    s    0.761177 *  0.667921 *  0.400646 *  -2.87073    1.000000    
    281 O2    s    0.332941 *  0.090245 *  0.732209 *  -2.87073    1.000000    
    282 O2    s    0.909575 *  0.246897 *  0.064677 *  -2.87073    1.000000    
    283 O2    s    0.333414 *  0.239206 *  0.433846 *  -2.87073    1.000000    
    284 O3    s    0.902844 *  0.671789 *  0.104311 *  -3.33043    1.000000    
    285 O2    s    0.759406 *  0.091103 *  0.767316 *  -2.87073    1.000000    
    286 O2    s    0.671041 *  0.754480 *  0.933438 *  -2.87073    1.000000    
    287 O2    s    0.090103 *  0.332258 *  0.601411 *  -2.87073    1.000000    
    288 O2    s    0.240577 *  0.910162 *  0.270807 *  -2.87073    1.000000    
    289 O2    s    0.581092 *  0.552159 *  0.985776 *  -2.87073    1.000000    
    290 O2    s    0.443543 *  0.021919 *  0.323287 *  -2.87073    1.000000    
    291 O2    s    0.976091 *  0.417134 *  0.654208 *  -2.87073    1.000000    
    292 O2    s    0.413360 *  0.439224 *  0.486331 *  -2.87073    1.000000    
    293 O2    s    0.559589 *  0.975435 *  0.819987 *  -2.87073    1.000000    
    294 O2    s    0.019124 *  0.580244 *  0.150049 *  -2.87073    1.000000    
    295 O2    s    0.563035 *  0.586887 *  0.347239 *  -2.87073    1.000000    
    296 O2    s    0.020582 *  0.443152 *  0.011091 *  -2.87073    1.000000    
    297 O2    s    0.416428 *  0.974561 *  0.679375 *  -2.87073    1.000000    
    298 O2    s    0.441586 *  0.415683 *  0.844621 *  -2.87073    1.000000    
    299 O2    s    0.974379 *  0.557902 *  0.513013 *  -2.87073    1.000000    
    300 O2    s    0.583905 *  0.027284 *  0.181181 *  -2.87073    1.000000    
    301 O2    s    0.577082 *  0.154915 *  0.253077 *  -2.87073    1.000000    
    302 O2    s    0.844578 *  0.421672 *  0.583835 *  -2.87073    1.000000    
    303 O2    s    0.578231 *  0.420481 *  0.914709 *  -2.87073    1.000000    
    304 O2    s    0.422003 *  0.843929 *  0.749735 *  -2.87073    1.000000    
    305 O2    s    0.150847 *  0.574692 *  0.082141 *  -2.87073    1.000000    
    306 O2    s    0.423239 *  0.580026 *  0.416669 *  -2.87073    1.000000    
    307 F     s    0.449558 *  0.904778 *  0.250604 *  -1.56000    1.000000    
    308 F     s    0.095751 *  0.548124 *  0.582882 *  -1.56000    1.000000    
    309 F     s    0.449372 *  0.547690 *  0.914373 *  -1.56000    1.000000    
    310 F     s    0.548704 *  0.095916 *  0.749275 *  -1.56000    1.000000    
    311 F     s    0.871342 *  0.463499 *  0.072046 *  -1.56000    1.000000    
    312 F     s    0.548600 *  0.452017 *  0.416671 *  -1.56000    1.000000    
--------------------------------------------------------------------------------



********************************************************************************
*  General input information                                                   *
********************************************************************************

  Species output for all configurations : 

--------------------------------------------------------------------------------
  Species    Type    Atomic    Atomic    Charge       Radii (Angs)     Library
                     Number     Mass       (e)     Cova   Ionic  VDW   Symbol
--------------------------------------------------------------------------------
    Si       Core       14      28.09   4.000000   1.200  0.000  2.100          
    O1       Core        8      16.00   1.733957   0.730  0.000  1.360          
    O1       Shell       8       0.00  -3.733957   0.730  0.000  1.360          
    O2       Core        8      16.00   0.870733   0.730  0.000  1.360          
    O2       Shell       8       0.00  -2.870733   0.730  0.000  1.360          
    O3       Core        8      16.00   1.330431   0.730  0.000  1.360          
    O3       Shell       8       0.00  -3.330431   0.730  0.000  1.360          
    F        Core        9      19.00   0.560000   0.710  0.000  1.300          
    F        Shell       9       0.00  -1.560000   0.710  0.000  1.300          
    Ge       Core       32      72.61   4.000000   1.170  0.000  1.750          
--------------------------------------------------------------------------------


  Lattice summation method               =    Ewald          (3-D)
                                         =    Parry          (2-D)
                                         =    Saunders et al (1-D)
  Accuracy factor for lattice sums       =   12.000


  Time limit = Infinity

  Maximum range for interatomic potentials =        16.000000 Angstroms

  Taper potentials to zero over   1.0000 Angstroms using polynomial

  General interatomic potentials :

--------------------------------------------------------------------------------
Atom  Types   Potential         A         B         C         D     Cutoffs(Ang)
  1     2                                                            Min    Max 
--------------------------------------------------------------------------------
Si   c O1   s Buckingham    0.132E+04 0.318      10.1      0.00     0.000 16.000
Si   c O2   s Buckingham    0.132E+04 0.318      10.1      0.00     0.000 16.000
Si   c O3   s Buckingham    0.132E+04 0.318      10.1      0.00     0.000 16.000
Ge   c O1   s Buckingham    0.150E+04 0.326      16.8      0.00     0.000 16.000
Ge   c O2   s Buckingham    0.150E+04 0.326      16.8      0.00     0.000 16.000
Ge   c O3   s Buckingham    0.150E+04 0.326      16.8      0.00     0.000 16.000
O1   s O1   s Buckingham    0.228E+05 0.149      10.9      0.00     0.000 16.000
O1   s O2   s Buckingham    0.228E+05 0.149      10.9      0.00     0.000 16.000
O1   s O3   s Buckingham    0.228E+05 0.149      10.9      0.00     0.000 16.000
O2   s O2   s Buckingham    0.228E+05 0.149      10.9      0.00     0.000 16.000
O2   s O3   s Buckingham    0.228E+05 0.149      10.9      0.00     0.000 16.000
O3   s O3   s Buckingham    0.228E+05 0.149      10.9      0.00     0.000 16.000
Si   c F    s Buckingham     977.     0.282      0.00      0.00     0.000 16.000
Ge   c F    s Buckingham     681.     0.320      0.00      0.00     0.000 16.000
F    s F    s Buckingham     540.     0.262      0.00      0.00     0.000 16.000
O1   s F    s Buckingham    0.168E+04 0.268      0.00      0.00     0.000 16.000
O2   s F    s Buckingham    0.168E+04 0.268      0.00      0.00     0.000 16.000
O3   s F    s Buckingham    0.168E+04 0.268      0.00      0.00     0.000 16.000
O2   c O2   s Spring (c-s)   76.0      0.00      0.00      0.00     0.000  0.800
O3   c O3   s Spring (c-s)   128.      0.00      0.00      0.00     0.000  0.800
O1   c O1   s Spring (c-s)   180.      0.00      0.00      0.00     0.000  0.800
F    c F    s Spring (c-s)   33.5      0.00      0.00      0.00     0.000  0.800
--------------------------------------------------------------------------------

  General Three-body potentials :

  Harmonic form:

--------------------------------------------------------------------------------
Atom    Atom    Atom           Force Constants            Theta     Cutoffs  
  1       2       3     (eVrad**-2/eVrad**-3/eVrad**-4)   (deg)  1-2  1-3  2-3
--------------------------------------------------------------------------------
Si    c O1    s O1    s  1.261        0.0000    0.0000   109.470 0.00 0.00 0.00
                                                                 1.90 1.90 3.50
Si    c O1    s O2    s  1.261        0.0000    0.0000   109.470 0.00 0.00 0.00
                                                                 1.90 1.90 3.50
Si    c O2    s O2    s  1.261        0.0000    0.0000   109.470 0.00 0.00 0.00
                                                                 1.90 1.90 3.50
--------------------------------------------------------------------------------

********************************************************************************
*  Output for configuration   1                                                *
********************************************************************************


  Components of energy : 

--------------------------------------------------------------------------------
  Interatomic potentials     =        2060.80586163 eV
  Three-body potentials      =           0.44445595 eV
  Monopole - monopole (real) =       -6610.35486387 eV
  Monopole - monopole (recip)=       -3170.36264383 eV
  Monopole - monopole (total)=       -9780.71750770 eV
  Neutralising energy        =          -6.45732901 eV
--------------------------------------------------------------------------------
  Total lattice energy       =       -7725.92451912 eV
--------------------------------------------------------------------------------
  Total lattice energy       =         -745433.6145 kJ/(mole unit cells)
--------------------------------------------------------------------------------


  Number of variables =      939

  Maximum number of calculations  =          1000
  Maximum Hessian update interval =            10
  Maximum step size               =   1.000000000
  Maximum parameter tolerance     =   0.000010000
  Maximum function  tolerance     =   0.000010000
  Maximum gradient  tolerance     =   0.001000000
  Maximum gradient  component     =   0.010000000

  Symmetry not applied to optimisation

  Cell parameters to be optimised using strains

  Newton-Raphson optimiser to be used

  BFGS hessian update to be used

  Dumpfile to be written after every cycle

  Start of bulk optimisation :

  Cycle:      0 Energy:     -7725.924519  Gnorm:      0.007364  CPU:    1.044
  ** Hessian calculated **
  Cycle:      1 Energy:     -7725.924640  Gnorm:      0.001817  CPU:    2.630
  Cycle:      2 Energy:     -7725.924703  Gnorm:      0.003478  CPU:    4.022
  Cycle:      3 Energy:     -7725.925015  Gnorm:      0.006073  CPU:    6.078
  Cycle:      4 Energy:     -7725.925642  Gnorm:      0.005735  CPU:    8.134
  Cycle:      5 Energy:     -7725.926458  Gnorm:      0.005361  CPU:   10.190
  Cycle:      6 Energy:     -7725.927182  Gnorm:      0.005585  CPU:   11.914
  Cycle:      7 Energy:     -7725.927761  Gnorm:      0.006844  CPU:   13.638
  Cycle:      8 Energy:     -7725.928454  Gnorm:      0.007835  CPU:   15.030
  Cycle:      9 Energy:     -7725.929402  Gnorm:      0.010931  CPU:   16.423
  Cycle:     10 Energy:     -7725.930512  Gnorm:      0.008854  CPU:   17.815
  ** Hessian calculated **
  Cycle:     11 Energy:     -7725.930991  Gnorm:      0.005647  CPU:   20.059
  Cycle:     12 Energy:     -7725.931445  Gnorm:      0.006621  CPU:   21.452
  Cycle:     13 Energy:     -7725.931963  Gnorm:      0.005159  CPU:   22.990
  Cycle:     14 Energy:     -7725.932229  Gnorm:      0.005319  CPU:   24.383
  Cycle:     15 Energy:     -7725.932518  Gnorm:      0.006371  CPU:   25.775
  Cycle:     16 Energy:     -7725.933028  Gnorm:      0.006701  CPU:   27.168
  Cycle:     17 Energy:     -7725.933381  Gnorm:      0.005273  CPU:   28.560
  Cycle:     18 Energy:     -7725.933650  Gnorm:      0.004994  CPU:   29.952
  Cycle:     19 Energy:     -7725.933892  Gnorm:      0.004696  CPU:   31.345
  Cycle:     20 Energy:     -7725.934051  Gnorm:      0.003526  CPU:   32.737
  ** Hessian calculated **
  Cycle:     21 Energy:     -7725.934145  Gnorm:      0.002856  CPU:   35.154
  Cycle:     22 Energy:     -7725.934285  Gnorm:      0.003924  CPU:   36.546
  Cycle:     23 Energy:     -7725.934435  Gnorm:      0.003337  CPU:   37.939
  Cycle:     24 Energy:     -7725.934626  Gnorm:      0.004614  CPU:   39.488
  Cycle:     25 Energy:     -7725.934872  Gnorm:      0.004467  CPU:   40.880
  Cycle:     26 Energy:     -7725.935040  Gnorm:      0.003813  CPU:   42.272
  Cycle:     27 Energy:     -7725.935203  Gnorm:      0.004287  CPU:   43.665
  Cycle:     28 Energy:     -7725.935486  Gnorm:      0.005300  CPU:   45.057
  Cycle:     29 Energy:     -7725.935779  Gnorm:      0.004729  CPU:   46.449
  Cycle:     30 Energy:     -7725.936125  Gnorm:      0.007202  CPU:   47.841
  ** Hessian calculated **
  Cycle:     31 Energy:     -7725.936403  Gnorm:      0.004290  CPU:   50.085
  Cycle:     32 Energy:     -7725.936639  Gnorm:      0.004951  CPU:   51.478
  Cycle:     33 Energy:     -7725.936901  Gnorm:      0.004052  CPU:   52.870
  Cycle:     34 Energy:     -7725.937055  Gnorm:      0.003644  CPU:   54.262
  Cycle:     35 Energy:     -7725.937195  Gnorm:      0.003977  CPU:   55.654
  Cycle:     36 Energy:     -7725.937418  Gnorm:      0.004281  CPU:   57.186
  Cycle:     37 Energy:     -7725.937622  Gnorm:      0.003450  CPU:   58.578
  Cycle:     38 Energy:     -7725.937788  Gnorm:      0.003858  CPU:   59.970
  Cycle:     39 Energy:     -7725.937931  Gnorm:      0.002883  CPU:   61.362
  Cycle:     40 Energy:     -7725.938033  Gnorm:      0.003616  CPU:   62.754
  ** Hessian calculated **
  Cycle:     41 Energy:     -7725.938122  Gnorm:      0.002670  CPU:   64.998
  Cycle:     42 Energy:     -7725.938246  Gnorm:      0.003878  CPU:   66.391
  Cycle:     43 Energy:     -7725.938390  Gnorm:      0.003195  CPU:   67.945
  Cycle:     44 Energy:     -7725.938564  Gnorm:      0.004179  CPU:   69.337
  Cycle:     45 Energy:     -7725.938763  Gnorm:      0.003970  CPU:   70.729
  Cycle:     46 Energy:     -7725.938906  Gnorm:      0.003591  CPU:   72.121
  Cycle:     47 Energy:     -7725.939059  Gnorm:      0.004051  CPU:   73.514
  Cycle:     48 Energy:     -7725.939315  Gnorm:      0.004850  CPU:   74.906
  Cycle:     49 Energy:     -7725.939554  Gnorm:      0.004431  CPU:   76.298
  Cycle:     50 Energy:     -7725.939839  Gnorm:      0.007048  CPU:   77.690
  ** Hessian calculated **
  Cycle:     51 Energy:     -7725.940101  Gnorm:      0.004186  CPU:   80.100
  Cycle:     52 Energy:     -7725.940321  Gnorm:      0.004691  CPU:   81.492
  Cycle:     53 Energy:     -7725.940562  Gnorm:      0.003870  CPU:   82.884
  Cycle:     54 Energy:     -7725.940706  Gnorm:      0.003488  CPU:   84.423
  Cycle:     55 Energy:     -7725.940840  Gnorm:      0.003826  CPU:   85.814
  Cycle:     56 Energy:     -7725.941042  Gnorm:      0.004077  CPU:   87.207
  Cycle:     57 Energy:     -7725.941226  Gnorm:      0.003289  CPU:   88.599
  Cycle:     58 Energy:     -7725.941376  Gnorm:      0.003753  CPU:   90.132
  Cycle:     59 Energy:     -7725.941506  Gnorm:      0.002831  CPU:   91.525
  Cycle:     60 Energy:     -7725.941601  Gnorm:      0.003566  CPU:   92.917
  ** Hessian calculated **
  Cycle:     61 Energy:     -7725.941688  Gnorm:      0.002636  CPU:   95.161
  Cycle:     62 Energy:     -7725.941807  Gnorm:      0.003739  CPU:   96.553
  Cycle:     63 Energy:     -7725.941946  Gnorm:      0.003044  CPU:   97.945
  Cycle:     64 Energy:     -7725.942116  Gnorm:      0.004068  CPU:   99.338
  Cycle:     65 Energy:     -7725.942310  Gnorm:      0.003780  CPU:  100.730
  Cycle:     66 Energy:     -7725.942441  Gnorm:      0.003439  CPU:  102.205
  Cycle:     67 Energy:     -7725.942583  Gnorm:      0.003931  CPU:  103.598
  Cycle:     68 Energy:     -7725.942822  Gnorm:      0.004639  CPU:  104.990
  Cycle:     69 Energy:     -7725.943043  Gnorm:      0.004302  CPU:  106.383
  Cycle:     70 Energy:     -7725.943312  Gnorm:      0.006951  CPU:  107.775
  ** Hessian calculated **
  Cycle:     71 Energy:     -7725.943565  Gnorm:      0.004084  CPU:  110.019
  Cycle:     72 Energy:     -7725.943776  Gnorm:      0.004557  CPU:  111.411
  Cycle:     73 Energy:     -7725.944004  Gnorm:      0.003722  CPU:  112.953
  Cycle:     74 Energy:     -7725.944142  Gnorm:      0.003379  CPU:  114.344
  Cycle:     75 Energy:     -7725.944270  Gnorm:      0.003680  CPU:  115.737
  Cycle:     76 Energy:     -7725.944460  Gnorm:      0.003939  CPU:  117.129
  Cycle:     77 Energy:     -7725.944633  Gnorm:      0.003119  CPU:  118.521
  Cycle:     78 Energy:     -7725.944774  Gnorm:      0.003616  CPU:  119.913
  Cycle:     79 Energy:     -7725.944896  Gnorm:      0.002715  CPU:  121.305
  Cycle:     80 Energy:     -7725.944987  Gnorm:      0.003523  CPU:  122.697
  ** Hessian calculated **
  Cycle:     81 Energy:     -7725.945073  Gnorm:      0.002591  CPU:  125.079
  Cycle:     82 Energy:     -7725.945188  Gnorm:      0.003635  CPU:  126.471
  Cycle:     83 Energy:     -7725.945322  Gnorm:      0.002931  CPU:  127.863
  Cycle:     84 Energy:     -7725.945485  Gnorm:      0.003991  CPU:  129.386
  Cycle:     85 Energy:     -7725.945670  Gnorm:      0.003640  CPU:  130.777
  Cycle:     86 Energy:     -7725.945795  Gnorm:      0.003350  CPU:  132.169
  Cycle:     87 Energy:     -7725.945930  Gnorm:      0.003815  CPU:  133.561
  Cycle:     88 Energy:     -7725.946154  Gnorm:      0.004488  CPU:  134.954
  Cycle:     89 Energy:     -7725.946364  Gnorm:      0.004179  CPU:  136.346
  Cycle:     90 Energy:     -7725.946621  Gnorm:      0.006826  CPU:  137.738
  ** Hessian calculated **
  Cycle:     91 Energy:     -7725.946866  Gnorm:      0.003984  CPU:  139.982
  Cycle:     92 Energy:     -7725.947068  Gnorm:      0.004436  CPU:  141.374
  Cycle:     93 Energy:     -7725.947283  Gnorm:      0.003601  CPU:  142.766
  Cycle:     94 Energy:     -7725.947415  Gnorm:      0.003284  CPU:  144.158
  Cycle:     95 Energy:     -7725.947537  Gnorm:      0.003541  CPU:  145.551
  Cycle:     96 Energy:     -7725.947717  Gnorm:      0.003850  CPU:  147.107
  Cycle:     97 Energy:     -7725.947882  Gnorm:      0.003007  CPU:  148.500
  Cycle:     98 Energy:     -7725.948016  Gnorm:      0.003495  CPU:  149.892
  Cycle:     99 Energy:     -7725.948132  Gnorm:      0.002648  CPU:  151.284
  Cycle:    100 Energy:     -7725.948219  Gnorm:      0.003458  CPU:  152.676
  ** Hessian calculated **
  Cycle:    101 Energy:     -7725.948302  Gnorm:      0.002543  CPU:  154.920
  Cycle:    102 Energy:     -7725.948413  Gnorm:      0.003528  CPU:  156.312
  Cycle:    103 Energy:     -7725.948541  Gnorm:      0.002838  CPU:  157.800
  Cycle:    104 Energy:     -7725.948698  Gnorm:      0.003913  CPU:  159.192
  Cycle:    105 Energy:     -7725.948873  Gnorm:      0.003508  CPU:  160.584
  Cycle:    106 Energy:     -7725.948992  Gnorm:      0.003263  CPU:  161.976
  Cycle:    107 Energy:     -7725.949121  Gnorm:      0.003690  CPU:  163.368
  Cycle:    108 Energy:     -7725.949331  Gnorm:      0.004357  CPU:  164.760
  Cycle:    109 Energy:     -7725.949531  Gnorm:      0.004056  CPU:  166.152
  Cycle:    110 Energy:     -7725.949776  Gnorm:      0.006663  CPU:  167.544
  ** Hessian calculated **
  Cycle:    111 Energy:     -7725.953004  Gnorm:      0.006665  CPU:  171.297
  Cycle:    112 Energy:     -7725.957946  Gnorm:      0.006667  CPU:  173.684
  Cycle:    113 Energy:     -7725.964753  Gnorm:      0.006614  CPU:  176.071
  Cycle:    114 Energy:     -7725.972180  Gnorm:      0.006457  CPU:  178.126
  Cycle:    115 Energy:     -7725.983097  Gnorm:      0.006094  CPU:  180.513
  Cycle:    116 Energy:     -7725.994960  Gnorm:      0.005528  CPU:  182.568
  Cycle:    117 Energy:     -7726.008488  Gnorm:      0.004626  CPU:  184.624
  Cycle:    118 Energy:     -7726.022613  Gnorm:      0.003317  CPU:  186.680
  Cycle:    119 Energy:     -7726.030959  Gnorm:      0.001740  CPU:  188.405
  Cycle:    120 Energy:     -7726.032088  Gnorm:      0.001369  CPU:  189.798
  ** Hessian calculated **
  Cycle:    121 Energy:     -7726.032103  Gnorm:      0.000645  CPU:  192.043
  Cycle:    122 Energy:     -7726.032112  Gnorm:      0.000899  CPU:  193.435
  Cycle:    123 Energy:     -7726.032121  Gnorm:      0.000729  CPU:  194.828
  Cycle:    124 Energy:     -7726.032131  Gnorm:      0.000965  CPU:  196.221
  Cycle:    125 Energy:     -7726.032140  Gnorm:      0.000602  CPU:  197.614
  Cycle:    126 Energy:     -7726.032144  Gnorm:      0.000611  CPU:  199.170
  Cycle:    127 Energy:     -7726.032149  Gnorm:      0.000626  CPU:  200.563
  Cycle:    128 Energy:     -7726.032154  Gnorm:      0.000592  CPU:  201.955
  Cycle:    129 Energy:     -7726.032158  Gnorm:      0.000564  CPU:  203.348
  Cycle:    130 Energy:     -7726.032161  Gnorm:      0.000474  CPU:  204.741
  ** Hessian calculated **
  Cycle:    131 Energy:     -7726.032162  Gnorm:      0.000321  CPU:  206.986
  Cycle:    132 Energy:     -7726.032164  Gnorm:      0.000374  CPU:  208.379
  Cycle:    133 Energy:     -7726.032165  Gnorm:      0.000294  CPU:  209.925
  Cycle:    134 Energy:     -7726.032167  Gnorm:      0.000323  CPU:  211.318
  Cycle:    135 Energy:     -7726.032168  Gnorm:      0.000280  CPU:  212.711
  Cycle:    136 Energy:     -7726.032170  Gnorm:      0.000351  CPU:  214.104
  Cycle:    137 Energy:     -7726.032171  Gnorm:      0.000257  CPU:  215.497
  Cycle:    138 Energy:     -7726.032172  Gnorm:      0.000267  CPU:  216.890
  Cycle:    139 Energy:     -7726.032173  Gnorm:      0.000264  CPU:  218.283
  Cycle:    140 Energy:     -7726.032174  Gnorm:      0.000325  CPU:  219.676
  ** Hessian calculated **
  Cycle:    141 Energy:     -7726.032175  Gnorm:      0.000201  CPU:  222.075
  Cycle:    142 Energy:     -7726.032176  Gnorm:      0.000203  CPU:  223.468
  Cycle:    143 Energy:     -7726.032176  Gnorm:      0.000186  CPU:  224.860
  Cycle:    144 Energy:     -7726.032177  Gnorm:      0.000211  CPU:  226.416
  Cycle:    145 Energy:     -7726.032177  Gnorm:      0.000180  CPU:  227.809
  Cycle:    146 Energy:     -7726.032178  Gnorm:      0.000185  CPU:  229.202
  Cycle:    147 Energy:     -7726.032178  Gnorm:      0.000170  CPU:  230.595
  Cycle:    148 Energy:     -7726.032179  Gnorm:      0.000204  CPU:  231.988
  Cycle:    149 Energy:     -7726.032179  Gnorm:      0.000177  CPU:  233.381
  Cycle:    150 Energy:     -7726.032180  Gnorm:      0.000222  CPU:  234.774
  ** Hessian calculated **
  Cycle:    151 Energy:     -7726.032180  Gnorm:      0.000154  CPU:  237.019
  Cycle:    152 Energy:     -7726.032180  Gnorm:      0.000180  CPU:  238.412
  Cycle:    153 Energy:     -7726.032181  Gnorm:      0.000133  CPU:  239.804
  Cycle:    154 Energy:     -7726.032181  Gnorm:      0.000157  CPU:  241.197
  Cycle:    155 Energy:     -7726.032181  Gnorm:      0.000135  CPU:  242.590
  Cycle:    156 Energy:     -7726.032182  Gnorm:      0.000164  CPU:  244.121
  Cycle:    157 Energy:     -7726.032182  Gnorm:      0.000131  CPU:  245.514
  Cycle:    158 Energy:     -7726.032182  Gnorm:      0.000143  CPU:  246.907
  Cycle:    159 Energy:     -7726.032183  Gnorm:      0.000145  CPU:  248.300
  Cycle:    160 Energy:     -7726.032183  Gnorm:      0.000202  CPU:  249.692
  ** Hessian calculated **
  Cycle:    161 Energy:     -7726.032183  Gnorm:      0.000130  CPU:  251.937
  Cycle:    162 Energy:     -7726.032184  Gnorm:      0.000129  CPU:  253.330
  Cycle:    163 Energy:     -7726.032184  Gnorm:      0.000117  CPU:  254.853
  Cycle:    164 Energy:     -7726.032184  Gnorm:      0.000135  CPU:  256.246
  Cycle:    165 Energy:     -7726.032184  Gnorm:      0.000114  CPU:  257.639
  Cycle:    166 Energy:     -7726.032185  Gnorm:      0.000121  CPU:  259.032
  Cycle:    167 Energy:     -7726.032185  Gnorm:      0.000105  CPU:  260.425
  Cycle:    168 Energy:     -7726.032185  Gnorm:      0.000137  CPU:  261.817
  Cycle:    169 Energy:     -7726.032185  Gnorm:      0.000113  CPU:  263.210
  Cycle:    170 Energy:     -7726.032185  Gnorm:      0.000156  CPU:  264.603
  ** Hessian calculated **
  Cycle:    171 Energy:     -7726.032185  Gnorm:      0.000107  CPU:  267.003
  Cycle:    172 Energy:     -7726.032186  Gnorm:      0.000136  CPU:  268.396
  Cycle:    173 Energy:     -7726.032186  Gnorm:      0.000091  CPU:  269.789
  Cycle:    174 Energy:     -7726.032186  Gnorm:      0.000115  CPU:  271.352
  Cycle:    175 Energy:     -7726.032186  Gnorm:      0.000097  CPU:  272.745
  Cycle:    176 Energy:     -7726.032186  Gnorm:      0.000115  CPU:  274.138
  Cycle:    177 Energy:     -7726.032186  Gnorm:      0.000094  CPU:  275.530
  Cycle:    178 Energy:     -7726.032187  Gnorm:      0.000103  CPU:  276.923
  Cycle:    179 Energy:     -7726.032187  Gnorm:      0.000108  CPU:  278.316
  Cycle:    180 Energy:     -7726.032187  Gnorm:      0.000151  CPU:  279.709
  ** Hessian calculated **
  Cycle:    181 Energy:     -7726.032187  Gnorm:      0.000099  CPU:  281.954
  Cycle:    182 Energy:     -7726.032187  Gnorm:      0.000096  CPU:  283.347
  Cycle:    183 Energy:     -7726.032187  Gnorm:      0.000092  CPU:  284.740
  Cycle:    184 Energy:     -7726.032188  Gnorm:      0.000102  CPU:  286.133
  Cycle:    185 Energy:     -7726.032188  Gnorm:      0.000086  CPU:  287.526
  Cycle:    186 Energy:     -7726.032188  Gnorm:      0.000095  CPU:  289.084
  Cycle:    187 Energy:     -7726.032188  Gnorm:      0.000079  CPU:  290.477
  Cycle:    188 Energy:     -7726.032188  Gnorm:      0.000109  CPU:  291.870
  Cycle:    189 Energy:     -7726.032188  Gnorm:      0.000086  CPU:  293.262
  Cycle:    190 Energy:     -7726.032188  Gnorm:      0.000129  CPU:  294.655
  ** Hessian calculated **
  Cycle:    191 Energy:     -7726.032189  Gnorm:      0.000128  CPU:  296.900
  Cycle:    192 Energy:     -7726.032189  Gnorm:      0.000128  CPU:  298.293
  Cycle:    193 Energy:     -7726.032189  Gnorm:      0.000127  CPU:  299.841
  Cycle:    194 Energy:     -7726.032190  Gnorm:      0.000126  CPU:  301.234
  Cycle:    195 Energy:     -7726.032191  Gnorm:      0.000124  CPU:  302.627
  Cycle:    196 Energy:     -7726.032192  Gnorm:      0.000122  CPU:  304.020
  Cycle:    197 Energy:     -7726.032195  Gnorm:      0.000118  CPU:  305.532
  Cycle:    198 Energy:     -7726.032198  Gnorm:      0.000113  CPU:  306.925
  Cycle:    199 Energy:     -7726.032202  Gnorm:      0.000104  CPU:  308.318
  Cycle:    200 Energy:     -7726.032208  Gnorm:      0.000092  CPU:  309.710
  ** Hessian calculated **
  Cycle:    201 Energy:     -7726.032216  Gnorm:      0.000073  CPU:  312.140
  Cycle:    202 Energy:     -7726.032224  Gnorm:      0.000044  CPU:  313.533


  **** Optimisation achieved ****


  Final energy =   -7726.03222907 eV
  Final Gnorm  =       0.00000207

  Components of energy : 

--------------------------------------------------------------------------------
  Interatomic potentials     =        2061.18522205 eV
  Three-body potentials      =           0.45318281 eV
  Monopole - monopole (real) =       -6611.36637819 eV
  Monopole - monopole (recip)=       -3169.84797086 eV
  Monopole - monopole (total)=       -9781.21434905 eV
  Neutralising energy        =          -6.45628488 eV
--------------------------------------------------------------------------------
  Total lattice energy       =       -7726.03222907 eV
--------------------------------------------------------------------------------
  Total lattice energy       =         -745444.0069 kJ/(mole unit cells)
--------------------------------------------------------------------------------

  Final fractional coordinates of atoms :

--------------------------------------------------------------------------------
   No.  Atomic        x           y          z          Radius
        Label       (Frac)      (Frac)     (Frac)       (Angs) 
--------------------------------------------------------------------------------
     1  Ge    c     0.699600    0.375700    0.033890    0.000000
     2  Si    c     0.604753    0.312116    0.366457    0.000000
     3  Si    c     0.659551    0.282398    0.698734    0.000000
     4  Si    c     0.273867    0.605576    0.531480    0.000000
     5  Si    c     0.365547    0.661100    0.863505    0.000000
     6  Si    c     0.299978    0.693960    0.198705    0.000000
     7  Si    c     0.356212    0.686170    0.298610    0.000000
     8  Si    c     0.312742    0.606154    0.963631    0.000000
     9  Si    c     0.278668    0.662498    0.632035    0.000000
    10  Si    c     0.605974    0.281806    0.799392    0.000000
    11  Si    c     0.653557    0.363820    0.467550    0.000000
    12  Si    c     0.671437    0.307628    0.133119    0.000000
    13  Si    c     0.518819    0.400660    0.966420    0.000000
    14  Si    c     0.563668    0.099633    0.302733    0.000000
    15  Si    c     0.868835    0.456012    0.633961    0.000000
    16  Si    c     0.444670    0.566916    0.466141    0.000000
    17  Si    c     0.401087    0.871158    0.798892    0.000000
    18  Si    c     0.092951    0.521182    0.131179    0.000000
    19  Si    c     0.398770    0.518569    0.364125    0.000000
    20  Si    c     0.102620    0.576911    0.027668    0.000000
    21  Si    c     0.452504    0.872747    0.697086    0.000000
    22  Si    c     0.569477    0.455109    0.863966    0.000000
    23  Si    c     0.864938    0.402140    0.532316    0.000000
    24  Si    c     0.507690    0.100827    0.201395    0.000000
    25  Si    c     0.288818    0.384452    0.848710    0.000000
    26  Si    c     0.579690    0.894680    0.184124    0.000000
    27  Si    c     0.072942    0.682383    0.517204    0.000000
    28  Si    c     0.679728    0.589036    0.351950    0.000000
    29  Si    c     0.381330    0.081214    0.683653    0.000000
    30  Si    c     0.886902    0.290656    0.011871    0.000000
    31  Si    c     0.373817    0.285887    0.479747    0.000000
    32  Si    c     0.877176    0.592377    0.144712    0.000000
    33  Si    c     0.682619    0.080730    0.813362    0.000000
    34  Si    c     0.589887    0.682582    0.979198    0.000000
    35  Si    c     0.077997    0.384230    0.647557    0.000000
    36  Si    c     0.283068    0.887463    0.316432    0.000000
    37  Si    c     0.240140    0.326735    0.949116    0.000000
    38  Si    c     0.636895    0.897326    0.284833    0.000000
    39  Si    c     0.069490    0.734698    0.617918    0.000000
    40  Si    c     0.724261    0.643671    0.453052    0.000000
    41  Si    c     0.324040    0.072363    0.784282    0.000000
    42  Si    c     0.889018    0.240162    0.115180    0.000000
    43  Si    c     0.324034    0.241417    0.378546    0.000000
    44  Ge    c     0.897752    0.658835    0.041477    0.000000
    45  Si    c     0.731780    0.074381    0.712622    0.000000
    46  Si    c     0.646602    0.733392    0.878465    0.000000
    47  Si    c     0.066092    0.324816    0.546832    0.000000
    48  Si    c     0.227482    0.900561    0.216359    0.000000
    49  Si    c     0.960254    0.114123    0.963341    0.000000
    50  Si    c     0.853364    0.834395    0.298855    0.000000
    51  Si    c     0.132758    0.014881    0.633144    0.000000
    52  Si    c     0.002175    0.862179    0.468367    0.000000
    53  Si    c     0.107463    0.135794    0.798526    0.000000
    54  Si    c     0.826912    0.961296    0.132461    0.000000
    55  Ge    c     0.101685    0.957761    0.365509    0.000000
    56  Si    c     0.836107    0.876356    0.030761    0.000000
    57  Si    c     0.011795    0.136458    0.697839    0.000000
    58  Si    c     0.863983    0.013050    0.863433    0.000000
    59  Si    c     0.127679    0.107306    0.532362    0.000000
    60  Si    c     0.946887    0.837630    0.197852    0.000000
    61  O2    c     0.905207    0.002470    0.000164    0.000000
    62  O3    c     0.977697    0.920649    0.328299    0.000000
    63  O2    c     0.052649    0.056013    0.665500    0.000000
    64  O2    c     0.044768    0.982687    0.501537    0.000000
    65  O2    c     0.985734    0.056415    0.830998    0.000000
    66  O2    c     0.908732    0.920087    0.164674    0.000000
    67  O2    c     0.320256    0.563268    0.330751    0.000000
    68  O2    c     0.403046    0.747805    0.664372    0.000000
    69  O2    c     0.230934    0.646198    0.996987    0.000000
    70  O2    c     0.645294    0.404939    0.831884    0.000000
    71  O2    c     0.559940    0.228407    0.170349    0.000000
    72  O2    c     0.737124    0.324920    0.500586    0.000000
    73  O3    c     0.561905    0.324942    0.998469    0.000000
    74  O2    c     0.744136    0.406696    0.666543    0.000000
    75  O2    c     0.642888    0.225362    0.334868    0.000000
    76  O2    c     0.395694    0.642911    0.498314    0.000000
    77  O2    c     0.215459    0.572515    0.165011    0.000000
    78  O2    c     0.325901    0.745323    0.830982    0.000000
    79  O2    c     0.114872    0.198235    0.968962    0.000000
    80  O2    c     0.760763    0.894794    0.305209    0.000000
    81  O2    c     0.069366    0.860645    0.637730    0.000000
    82  O2    c     0.848199    0.769012    0.474764    0.000000
    83  O2    c     0.197414    0.071731    0.804063    0.000000
    84  O2    c     0.889579    0.116012    0.136509    0.000000
    85  O3    c     0.200596    0.120190    0.356742    0.000000
    86  O3    c     0.918621    0.807697    0.025124    0.000000
    87  O2    c     0.857483    0.073976    0.692403    0.000000
    88  O2    c     0.773422    0.859053    0.858170    0.000000
    89  O2    c     0.064480    0.197952    0.526966    0.000000
    90  O2    c     0.102478    0.903490    0.196314    0.000000
    91  O2    c     0.896411    0.842732    0.247161    0.000000
    92  O2    c     0.120836    0.058372    0.583065    0.000000
    93  O2    c     0.917673    0.051343    0.914115    0.000000
    94  O2    c     0.052852    0.122656    0.748124    0.000000
    95  O2    c     0.835877    0.920833    0.082002    0.000000
    96  O3    c     0.035888    0.918336    0.418448    0.000000
    97  O2    c     0.900695    0.205577    0.972446    0.000000
    98  O2    c     0.778449    0.684598    0.313633    0.000000
    99  O2    c     0.284405    0.083607    0.645358    0.000000
   100  O2    c     0.073338    0.780552    0.478892    0.000000
   101  O2    c     0.190872    0.287241    0.810136    0.000000
   102  O2    c     0.675924    0.893582    0.145742    0.000000
   103  O3    c     0.188155    0.881213    0.355918    0.000000
   104  O2    c     0.686274    0.778920    0.018104    0.000000
   105  O2    c     0.081315    0.287993    0.685675    0.000000
   106  O2    c     0.781234    0.081782    0.851671    0.000000
   107  O2    c     0.277614    0.187993    0.518018    0.000000
   108  O2    c     0.881884    0.687611    0.184840    0.000000
   109  O2    c     0.300063    0.631467    0.247877    0.000000
   110  O2    c     0.334212    0.663313    0.581457    0.000000
   111  O2    c     0.307052    0.661442    0.913490    0.000000
   112  O2    c     0.661472    0.339271    0.749072    0.000000
   113  O3    c     0.609293    0.302559    0.085054    0.000000
   114  O2    c     0.658298    0.310142    0.417187    0.000000
   115  O2    c     0.361000    0.315439    0.966782    0.000000
   116  O2    c     0.649732    0.029733    0.304024    0.000000
   117  O2    c     0.937713    0.612113    0.636619    0.000000
   118  O2    c     0.601006    0.653202    0.470049    0.000000
   119  O2    c     0.313714    0.939707    0.802185    0.000000
   120  O2    c     0.018964    0.365405    0.133936    0.000000
   121  O2    c     0.313261    0.363300    0.360793    0.000000
   122  O3    c     0.043172    0.669624    0.026233    0.000000
   123  O2    c     0.609027    0.942123    0.693996    0.000000
   124  O2    c     0.655489    0.611252    0.859799    0.000000
   125  O2    c     0.933109    0.314628    0.528685    0.000000
   126  O2    c     0.351081    0.031910    0.197740    0.000000
   127  O3    c     0.752047    0.280802    0.004338    0.000000
   128  O2    c     0.680349    0.455564    0.344354    0.000000
   129  O2    c     0.516011    0.214793    0.676095    0.000000
   130  O2    c     0.205986    0.680926    0.509022    0.000000
   131  O2    c     0.291114    0.518946    0.840115    0.000000
   132  O2    c     0.442494    0.763731    0.175718    0.000000
   133  O2    c     0.280689    0.752155    0.321300    0.000000
   134  O2    c     0.456407    0.684425    0.985846    0.000000
   135  O2    c     0.211857    0.519325    0.654313    0.000000
   136  O2    c     0.681777    0.213733    0.821245    0.000000
   137  O2    c     0.508601    0.288010    0.488397    0.000000
   138  O2    c     0.747324    0.455384    0.152878    0.000000
   139  O1    c     0.765381    0.539571    0.016530    0.000000
   140  O2    c     0.449281    0.238720    0.359895    0.000000
   141  O2    c     0.733831    0.201174    0.693272    0.000000
   142  O2    c     0.192205    0.449584    0.526790    0.000000
   143  O2    c     0.522215    0.737204    0.859101    0.000000
   144  O2    c     0.222408    0.772655    0.196199    0.000000
   145  O2    c     0.511833    0.770022    0.303602    0.000000
   146  O2    c     0.236779    0.450285    0.969453    0.000000
   147  O2    c     0.196466    0.735835    0.637040    0.000000
   148  O2    c     0.449747    0.198290    0.804156    0.000000
   149  O2    c     0.725424    0.519129    0.472826    0.000000
   150  O2    c     0.763933    0.243486    0.132653    0.000000
   151  O2    c     0.216568    0.310489    0.894829    0.000000
   152  O2    c     0.653375    0.896793    0.230464    0.000000
   153  O2    c     0.069875    0.752917    0.563545    0.000000
   154  O2    c     0.748829    0.662698    0.398791    0.000000
   155  O2    c     0.306526    0.075420    0.729963    0.000000
   156  O2    c     0.893923    0.229891    0.060841    0.000000
   157  O2    c     0.302009    0.215304    0.432823    0.000000
   158  O3    c     0.879234    0.667474    0.100157    0.000000
   159  O2    c     0.752143    0.076498    0.766915    0.000000
   160  O2    c     0.665894    0.751628    0.932830    0.000000
   161  O2    c     0.070339    0.308860    0.601112    0.000000
   162  O2    c     0.210649    0.898620    0.270980    0.000000
   163  O2    c     0.570408    0.542667    0.988746    0.000000
   164  O2    c     0.423335    0.012191    0.325946    0.000000
   165  O2    c     0.953920    0.399692    0.656766    0.000000
   166  O2    c     0.385640    0.424193    0.487886    0.000000
   167  O2    c     0.542885    0.955604    0.821897    0.000000
   168  O2    c     0.001986    0.574854    0.148641    0.000000
   169  O2    c     0.541525    0.577308    0.342198    0.000000
   170  O2    c     0.005608    0.437255    0.006143    0.000000
   171  O2    c     0.394518    0.956114    0.674151    0.000000
   172  O2    c     0.427675    0.396715    0.840781    0.000000
   173  O2    c     0.947173    0.542665    0.508547    0.000000
   174  O2    c     0.567292    0.021162    0.176897    0.000000
   175  O2    c     0.560656    0.152693    0.252255    0.000000
   176  O2    c     0.813870    0.402325    0.583266    0.000000
   177  O2    c     0.571819    0.406265    0.914883    0.000000
   178  O2    c     0.400060    0.819124    0.747829    0.000000
   179  O2    c     0.142235    0.567185    0.079997    0.000000
   180  O2    c     0.395572    0.570393    0.414805    0.000000
   181  F     c     0.427341    0.891224    0.249595    0.000000
   182  F     c     0.075334    0.533474    0.581646    0.000000
   183  F     c     0.435184    0.536146    0.913262    0.000000
   184  F     c     0.531698    0.080657    0.747892    0.000000
   185  F     c     0.850276    0.441514    0.071115    0.000000
   186  F     c     0.526600    0.437925    0.415234    0.000000
   187  O2    s     0.903626    0.000952    0.999399    0.000000
   188  O3    s     0.974820    0.914381    0.328310    0.000000
   189  O2    s     0.057062    0.060378    0.665482    0.000000
   190  O2    s     0.049396    0.983361    0.501337    0.000000
   191  O2    s     0.985686    0.060436    0.831005    0.000000
   192  O2    s     0.903927    0.915677    0.164747    0.000000
   193  O2    s     0.332041    0.571497    0.330810    0.000000
   194  O2    s     0.395283    0.751802    0.664375    0.000000
   195  O2    s     0.225535    0.634709    0.996862    0.000000
   196  O2    s     0.633505    0.397310    0.831780    0.000000
   197  O2    s     0.566003    0.223217    0.169736    0.000000
   198  O2    s     0.741552    0.336844    0.500404    0.000000
   199  O3    s     0.566725    0.336705    0.997438    0.000000
   200  O2    s     0.748416    0.399088    0.666468    0.000000
   201  O2    s     0.630895    0.221234    0.334771    0.000000
   202  O2    s     0.388309    0.631190    0.498373    0.000000
   203  O2    s     0.211014    0.579376    0.164846    0.000000
   204  O2    s     0.337746    0.749825    0.830969    0.000000
   205  O2    s     0.110930    0.202203    0.966365    0.000000
   206  O2    s     0.757339    0.888632    0.302375    0.000000
   207  O2    s     0.076081    0.863935    0.635222    0.000000
   208  O2    s     0.851505    0.765758    0.471855    0.000000
   209  O2    s     0.200969    0.078563    0.801462    0.000000
   210  O2    s     0.883012    0.112859    0.133894    0.000000
   211  O3    s     0.204848    0.118938    0.359657    0.000000
   212  O3    s     0.908522    0.803439    0.026937    0.000000
   213  O2    s     0.860932    0.080668    0.695037    0.000000
   214  O2    s     0.770064    0.862574    0.860788    0.000000
   215  O2    s     0.071323    0.201422    0.529552    0.000000
   216  O2    s     0.099019    0.896270    0.198523    0.000000
   217  O2    s     0.897395    0.841213    0.247288    0.000000
   218  O2    s     0.122962    0.059020    0.582952    0.000000
   219  O2    s     0.916477    0.054154    0.913998    0.000000
   220  O2    s     0.054351    0.125711    0.748097    0.000000
   221  O2    s     0.834874    0.920656    0.082233    0.000000
   222  O3    s     0.038084    0.915801    0.419127    0.000000
   223  O2    s     0.905751    0.204717    0.975646    0.000000
   224  O2    s     0.776227    0.690571    0.316022    0.000000
   225  O2    s     0.278076    0.076001    0.647961    0.000000
   226  O2    s     0.065920    0.779173    0.481633    0.000000
   227  O2    s     0.191926    0.280935    0.812820    0.000000
   228  O2    s     0.681944    0.900834    0.148298    0.000000
   229  O3    s     0.190262    0.888061    0.352888    0.000000
   230  O2    s     0.692150    0.779259    0.015443    0.000000
   231  O2    s     0.073651    0.281872    0.683055    0.000000
   232  O2    s     0.779944    0.074379    0.849006    0.000000
   233  O2    s     0.271559    0.189529    0.515576    0.000000
   234  O2    s     0.888404    0.694048    0.182180    0.000000
   235  O2    s     0.305735    0.643374    0.247997    0.000000
   236  O2    s     0.322409    0.657336    0.581487    0.000000
   237  O2    s     0.313514    0.655779    0.913523    0.000000
   238  O2    s     0.655605    0.327554    0.749038    0.000000
   239  O3    s     0.621711    0.307919    0.086750    0.000000
   240  O2    s     0.652316    0.315822    0.417093    0.000000
   241  O2    s     0.363373    0.325193    0.964773    0.000000
   242  O2    s     0.639499    0.023138    0.301875    0.000000
   243  O2    s     0.944430    0.608911    0.634379    0.000000
   244  O2    s     0.597829    0.643248    0.467833    0.000000
   245  O2    s     0.323717    0.946537    0.799971    0.000000
   246  O2    s     0.013202    0.368613    0.131709    0.000000
   247  O2    s     0.323490    0.366921    0.363039    0.000000
   248  O3    s     0.037848    0.659495    0.027563    0.000000
   249  O2    s     0.605761    0.948810    0.696268    0.000000
   250  O2    s     0.645778    0.608097    0.862182    0.000000
   251  O2    s     0.939995    0.324666    0.530956    0.000000
   252  O2    s     0.354262    0.025286    0.200061    0.000000
   253  O3    s     0.762965    0.288410    0.007253    0.000000
   254  O2    s     0.672524    0.454700    0.347450    0.000000
   255  O2    s     0.516580    0.207670    0.679249    0.000000
   256  O2    s     0.198985    0.673381    0.512202    0.000000
   257  O2    s     0.298488    0.519370    0.843437    0.000000
   258  O2    s     0.442154    0.770245    0.178989    0.000000
   259  O2    s     0.288859    0.759541    0.318355    0.000000
   260  O2    s     0.455446    0.676151    0.982816    0.000000
   261  O2    s     0.204622    0.519800    0.651280    0.000000
   262  O2    s     0.674093    0.206732    0.818143    0.000000
   263  O2    s     0.509458    0.295635    0.485295    0.000000
   264  O2    s     0.753655    0.455440    0.150047    0.000000
   265  O1    s     0.772611    0.539352    0.019678    0.000000
   266  O2    s     0.452266    0.246818    0.362551    0.000000
   267  O2    s     0.725807    0.195823    0.695896    0.000000
   268  O2    s     0.186966    0.452319    0.529417    0.000000
   269  O2    s     0.519404    0.728822    0.861624    0.000000
   270  O2    s     0.231047    0.778061    0.198577    0.000000
   271  O2    s     0.508968    0.775150    0.301036    0.000000
   272  O2    s     0.244979    0.453309    0.966746    0.000000
   273  O2    s     0.191158    0.727981    0.634472    0.000000
   274  O2    s     0.452410    0.193244    0.801532    0.000000
   275  O2    s     0.717621    0.516326    0.470141    0.000000
   276  O2    s     0.768530    0.249605    0.130772    0.000000
   277  O2    s     0.226592    0.319970    0.895691    0.000000
   278  O2    s     0.643799    0.896637    0.231317    0.000000
   279  O2    s     0.070150    0.743581    0.564430    0.000000
   280  O2    s     0.739153    0.653091    0.399553    0.000000
   281  O2    s     0.316246    0.075699    0.730846    0.000000
   282  O2    s     0.892730    0.236999    0.061841    0.000000
   283  O2    s     0.311680    0.225211    0.432147    0.000000
   284  O3    s     0.880316    0.658908    0.100386    0.000000
   285  O2    s     0.742705    0.076713    0.766014    0.000000
   286  O2    s     0.656000    0.742559    0.931904    0.000000
   287  O2    s     0.070682    0.318464    0.600196    0.000000
   288  O2    s     0.219594    0.897772    0.269861    0.000000
   289  O2    s     0.567118    0.543943    0.985431    0.000000
   290  O2    s     0.423101    0.007913    0.322498    0.000000
   291  O2    s     0.958617    0.404078    0.653387    0.000000
   292  O2    s     0.390715    0.424258    0.484720    0.000000
   293  O2    s     0.543185    0.960506    0.818555    0.000000
   294  O2    s     0.998529    0.570750    0.146304    0.000000
   295  O2    s     0.541472    0.572276    0.345546    0.000000
   296  O2    s     0.003476    0.437018    0.009061    0.000000
   297  O2    s     0.399317    0.961047    0.677567    0.000000
   298  O2    s     0.427472    0.401639    0.844051    0.000000
   299  O2    s     0.952310    0.543076    0.511937    0.000000
   300  O2    s     0.562325    0.015653    0.180202    0.000000
   301  O2    s     0.555382    0.141692    0.252188    0.000000
   302  O2    s     0.824907    0.407868    0.583192    0.000000
   303  O2    s     0.566306    0.410961    0.914577    0.000000
   304  O2    s     0.405611    0.830070    0.747825    0.000000
   305  O2    s     0.133021    0.563244    0.080183    0.000000
   306  O2    s     0.400959    0.564697    0.414846    0.000000
   307  F     s     0.426900    0.890776    0.249524    0.000000
   308  F     s     0.075766    0.533693    0.581558    0.000000
   309  F     s     0.434446    0.536704    0.913179    0.000000
   310  F     s     0.531909    0.081073    0.747818    0.000000
   311  F     s     0.841012    0.438892    0.068710    0.000000
   312  F     s     0.526731    0.437671    0.415148    0.000000
--------------------------------------------------------------------------------

  Final Cartesian lattice vectors (Angstroms) :

       11.976005   -0.014963   -0.019612
       -6.031171   10.389232    0.005047
       -0.095988   -0.007076   29.463195


  Final cell parameters and derivatives :

--------------------------------------------------------------------------------
       a           11.976031 Angstrom     dE/de1(xx)     0.000287 eV/strain
       b           12.012959 Angstrom     dE/de2(yy)     0.000282 eV/strain
       c           29.463352 Angstrom     dE/de3(zz)     0.000257 eV/strain
       alpha       89.894116 Degrees      dE/de4(yz)     0.000007 eV/strain
       beta        90.280475 Degrees      dE/de5(xz)     0.000037 eV/strain
       gamma      120.207664 Degrees      dE/de6(xy)    -0.000020 eV/strain
--------------------------------------------------------------------------------

  Primitive cell volume =          3663.175948 Angs**3

  Density of cell =      1.746597 g/cm**3

  Non-primitive cell volume =          3663.175948 Angs**3


  Final internal derivatives :

--------------------------------------------------------------------------------
   No.  Atomic          a             b             c           Radius
        Label          (eV)          (eV)          (eV)        (eV/Angs)
--------------------------------------------------------------------------------
      1 Ge    c       0.000000      0.000000      0.000000      0.000000
      2 Si    c      -0.000007     -0.000009      0.000068      0.000000
      3 Si    c       0.000060     -0.000093     -0.000046      0.000000
      4 Si    c       0.000002      0.000046      0.000057      0.000000
      5 Si    c      -0.000043      0.000044      0.000000      0.000000
      6 Si    c       0.000012      0.000044      0.000067      0.000000
      7 Si    c      -0.000045      0.000063     -0.000003      0.000000
      8 Si    c       0.000028      0.000044     -0.000083      0.000000
      9 Si    c      -0.000060      0.000049     -0.000065      0.000000
     10 Si    c       0.000031     -0.000027     -0.000158      0.000000
     11 Si    c      -0.000016     -0.000008     -0.000045      0.000000
     12 Si    c       0.000103     -0.000090     -0.000037      0.000000
     13 Si    c      -0.000248      0.000248     -0.000484      0.000000
     14 Si    c       0.000011     -0.000005     -0.000058      0.000000
     15 Si    c       0.000052     -0.000066     -0.000004      0.000000
     16 Si    c       0.000028     -0.000003     -0.000034      0.000000
     17 Si    c      -0.000028      0.000067     -0.000023      0.000000
     18 Si    c      -0.000029      0.000015     -0.000013      0.000000
     19 Si    c       0.000014     -0.000012      0.000092      0.000000
     20 Si    c      -0.000080     -0.000031     -0.000150      0.000000
     21 Si    c      -0.000027      0.000013      0.000040      0.000000
     22 Si    c       0.000026     -0.000014     -0.000055      0.000000
     23 Si    c       0.000061     -0.000051      0.000066      0.000000
     24 Si    c       0.000008      0.000004      0.000051      0.000000
     25 Si    c      -0.000003      0.000031     -0.000040      0.000000
     26 Si    c      -0.000030      0.000038     -0.000030      0.000000
     27 Si    c       0.000072     -0.000038      0.000041      0.000000
     28 Si    c      -0.000012      0.000019      0.000031      0.000000
     29 Si    c       0.000060     -0.000044     -0.000022      0.000000
     30 Si    c       0.000064      0.000015     -0.000064      0.000000
     31 Si    c       0.000029     -0.000011     -0.000057      0.000000
     32 Si    c       0.000024     -0.000109      0.000100      0.000000
     33 Si    c      -0.000048      0.000063      0.000072      0.000000
     34 Si    c      -0.000055      0.000071      0.000071      0.000000
     35 Si    c      -0.000064      0.000044      0.000019      0.000000
     36 Si    c       0.000020     -0.000025     -0.000046      0.000000
     37 Si    c      -0.000068     -0.000013      0.000044      0.000000
     38 Si    c      -0.000073      0.000066     -0.000042      0.000000
     39 Si    c       0.000070     -0.000053     -0.000055      0.000000
     40 Si    c      -0.000034      0.000018     -0.000001      0.000000
     41 Si    c       0.000024     -0.000014     -0.000053      0.000000
     42 Si    c      -0.000062     -0.000020      0.000166      0.000000
     43 Si    c       0.000043     -0.000020      0.000018      0.000000
     44 Ge    c       0.000067      0.000037     -0.000038      0.000000
     45 Si    c       0.000006      0.000019      0.000115      0.000000
     46 Si    c       0.000012      0.000028     -0.000032      0.000000
     47 Si    c      -0.000046      0.000014      0.000125      0.000000
     48 Si    c       0.000020     -0.000028     -0.000015      0.000000
     49 Si    c       0.000011     -0.000016     -0.000132      0.000000
     50 Si    c       0.000032      0.000002      0.000031      0.000000
     51 Si    c       0.000016     -0.000010     -0.000036      0.000000
     52 Si    c      -0.000021      0.000037     -0.000075      0.000000
     53 Si    c      -0.000053     -0.000010      0.000074      0.000000
     54 Si    c       0.000023      0.000013     -0.000014      0.000000
     55 Ge    c      -0.000002     -0.000015     -0.000037      0.000000
     56 Si    c      -0.000042      0.000137      0.000026      0.000000
     57 Si    c      -0.000008      0.000015     -0.000078      0.000000
     58 Si    c       0.000023      0.000049      0.000073      0.000000
     59 Si    c      -0.000020      0.000019     -0.000013      0.000000
     60 Si    c       0.000031      0.000002     -0.000025      0.000000
     61 O2    c      -0.000004      0.000059     -0.000148      0.000000
     62 O3    c       0.000045     -0.000024      0.000030      0.000000
     63 O2    c      -0.000015      0.000003      0.000017      0.000000
     64 O2    c      -0.000012      0.000013      0.000010      0.000000
     65 O2    c      -0.000021      0.000020     -0.000001      0.000000
     66 O2    c       0.000013      0.000019      0.000019      0.000000
     67 O2    c      -0.000032      0.000033     -0.000041      0.000000
     68 O2    c      -0.000002      0.000015      0.000005      0.000000
     69 O2    c       0.000037      0.000013     -0.000129      0.000000
     70 O2    c       0.000010      0.000001      0.000011      0.000000
     71 O2    c       0.000005      0.000035      0.000030      0.000000
     72 O2    c       0.000014     -0.000016      0.000020      0.000000
     73 O3    c       0.000058     -0.000334      0.000327      0.000000
     74 O2    c       0.000025     -0.000010     -0.000008      0.000000
     75 O2    c       0.000021     -0.000013     -0.000017      0.000000
     76 O2    c       0.000000     -0.000001      0.000036      0.000000
     77 O2    c      -0.000022      0.000007     -0.000059      0.000000
     78 O2    c      -0.000009     -0.000004      0.000069      0.000000
     79 O2    c       0.000027     -0.000001      0.000051      0.000000
     80 O2    c       0.000025      0.000004      0.000029      0.000000
     81 O2    c       0.000005      0.000008      0.000030      0.000000
     82 O2    c      -0.000016      0.000028     -0.000000      0.000000
     83 O2    c       0.000055     -0.000009      0.000022      0.000000
     84 O2    c       0.000015     -0.000027      0.000027      0.000000
     85 O3    c       0.000024     -0.000013      0.000056      0.000000
     86 O3    c       0.000287     -0.000218      0.000008      0.000000
     87 O2    c      -0.000000      0.000017     -0.000014      0.000000
     88 O2    c       0.000031     -0.000020      0.000026      0.000000
     89 O2    c       0.000009     -0.000002      0.000029      0.000000
     90 O2    c       0.000047     -0.000010     -0.000045      0.000000
     91 O2    c       0.000012      0.000001      0.000105      0.000000
     92 O2    c      -0.000013      0.000005      0.000061      0.000000
     93 O2    c       0.000026     -0.000009      0.000059      0.000000
     94 O2    c       0.000015      0.000018      0.000055      0.000000
     95 O2    c      -0.000092      0.000062      0.000320      0.000000
     96 O3    c       0.000018      0.000006      0.000065      0.000000
     97 O2    c      -0.000015      0.000050     -0.000092      0.000000
     98 O2    c       0.000027     -0.000032      0.000026      0.000000
     99 O2    c      -0.000008     -0.000009     -0.000002      0.000000
    100 O2    c       0.000037     -0.000024      0.000021      0.000000
    101 O2    c      -0.000030      0.000048     -0.000025      0.000000
    102 O2    c       0.000000      0.000015      0.000037      0.000000
    103 O3    c       0.000020      0.000007      0.000032      0.000000
    104 O2    c      -0.000103     -0.000017     -0.000136      0.000000
    105 O2    c      -0.000021      0.000000      0.000001      0.000000
    106 O2    c      -0.000021      0.000036     -0.000004      0.000000
    107 O2    c       0.000004     -0.000008      0.000025      0.000000
    108 O2    c       0.000036      0.000033      0.000089      0.000000
    109 O2    c      -0.000029      0.000034      0.000001      0.000000
    110 O2    c      -0.000026      0.000017      0.000069      0.000000
    111 O2    c      -0.000005      0.000018      0.000031      0.000000
    112 O2    c       0.000024     -0.000002      0.000006      0.000000
    113 O3    c      -0.000239     -0.000029     -0.000226      0.000000
    114 O2    c      -0.000001     -0.000000     -0.000002      0.000000
    115 O2    c       0.000028      0.000030      0.000065      0.000000
    116 O2    c      -0.000008      0.000005      0.000017      0.000000
    117 O2    c       0.000040     -0.000017      0.000024      0.000000
    118 O2    c       0.000039     -0.000005      0.000013      0.000000
    119 O2    c       0.000021     -0.000013      0.000007      0.000000
    120 O2    c       0.000012      0.000018      0.000065      0.000000
    121 O2    c       0.000007     -0.000019      0.000034      0.000000
    122 O3    c      -0.000125      0.000023      0.000094      0.000000
    123 O2    c      -0.000024      0.000031     -0.000023      0.000000
    124 O2    c       0.000055     -0.000037     -0.000035      0.000000
    125 O2    c       0.000006      0.000028      0.000004      0.000000
    126 O2    c       0.000008      0.000009      0.000022      0.000000
    127 O3    c      -0.000064     -0.000057     -0.000246      0.000000
    128 O2    c       0.000015     -0.000004     -0.000019      0.000000
    129 O2    c       0.000035     -0.000013      0.000005      0.000000
    130 O2    c      -0.000025      0.000003      0.000033      0.000000
    131 O2    c      -0.000041      0.000033      0.000014      0.000000
    132 O2    c       0.000026      0.000009      0.000030      0.000000
    133 O2    c       0.000020     -0.000013     -0.000057      0.000000
    134 O2    c       0.000056      0.000007      0.000024      0.000000
    135 O2    c      -0.000017      0.000021     -0.000018      0.000000
    136 O2    c       0.000012      0.000023     -0.000024      0.000000
    137 O2    c      -0.000018      0.000006      0.000005      0.000000
    138 O2    c      -0.000020      0.000153     -0.000126      0.000000
    139 O1    c      -0.000043      0.000025     -0.000028      0.000000
    140 O2    c      -0.000003     -0.000005     -0.000005      0.000000
    141 O2    c      -0.000022      0.000018      0.000022      0.000000
    142 O2    c      -0.000006      0.000002      0.000012      0.000000
    143 O2    c      -0.000033      0.000037      0.000004      0.000000
    144 O2    c       0.000034      0.000012      0.000018      0.000000
    145 O2    c      -0.000027      0.000042      0.000001      0.000000
    146 O2    c      -0.000013      0.000021     -0.000021      0.000000
    147 O2    c       0.000003     -0.000022      0.000013      0.000000
    148 O2    c       0.000032     -0.000040      0.000030      0.000000
    149 O2    c      -0.000001      0.000023      0.000007      0.000000
    150 O2    c      -0.000117      0.000006      0.000115      0.000000
    151 O2    c       0.000003      0.000021     -0.000075      0.000000
    152 O2    c      -0.000026      0.000017     -0.000054      0.000000
    153 O2    c       0.000033     -0.000051     -0.000023      0.000000
    154 O2    c      -0.000010      0.000023     -0.000006      0.000000
    155 O2    c       0.000019     -0.000024      0.000052      0.000000
    156 O2    c      -0.000064     -0.000011     -0.000250      0.000000
    157 O2    c       0.000014     -0.000021      0.000014      0.000000
    158 O3    c       0.000095     -0.000054     -0.000386      0.000000
    159 O2    c      -0.000009      0.000030     -0.000013      0.000000
    160 O2    c       0.000014      0.000026      0.000091      0.000000
    161 O2    c      -0.000010      0.000026     -0.000019      0.000000
    162 O2    c       0.000029      0.000002      0.000009      0.000000
    163 O2    c       0.000012     -0.000007      0.000101      0.000000
    164 O2    c       0.000047     -0.000018     -0.000012      0.000000
    165 O2    c      -0.000003      0.000015     -0.000008      0.000000
    166 O2    c       0.000004      0.000000      0.000018      0.000000
    167 O2    c      -0.000031      0.000024      0.000002      0.000000
    168 O2    c      -0.000090      0.000053     -0.000072      0.000000
    169 O2    c       0.000026     -0.000006      0.000018      0.000000
    170 O2    c      -0.000023      0.000050      0.000024      0.000000
    171 O2    c      -0.000007     -0.000022      0.000025      0.000000
    172 O2    c       0.000037     -0.000032     -0.000041      0.000000
    173 O2    c       0.000021     -0.000017      0.000020      0.000000
    174 O2    c       0.000028      0.000006      0.000037      0.000000
    175 O2    c       0.000022      0.000019      0.000031      0.000000
    176 O2    c       0.000037     -0.000018     -0.000006      0.000000
    177 O2    c       0.000023      0.000000     -0.000043      0.000000
    178 O2    c      -0.000015      0.000010      0.000013      0.000000
    179 O2    c      -0.000000      0.000007      0.000138      0.000000
    180 O2    c       0.000008     -0.000005      0.000009      0.000000
    181 F     c      -0.000001      0.000009      0.000030      0.000000
    182 F     c      -0.000009      0.000009     -0.000002      0.000000
    183 F     c      -0.000003      0.000005      0.000025      0.000000
    184 F     c       0.000003      0.000001      0.000006      0.000000
    185 F     c      -0.000066      0.000034     -0.000020      0.000000
    186 F     c      -0.000003      0.000004      0.000003      0.000000
    187 O2    s       0.000033      0.000013      0.000260      0.000000
    188 O3    s      -0.000026      0.000007     -0.000037      0.000000
    189 O2    s      -0.000012      0.000017      0.000007      0.000000
    190 O2    s       0.000032     -0.000015      0.000001      0.000000
    191 O2    s       0.000038     -0.000016     -0.000051      0.000000
    192 O2    s       0.000022      0.000023      0.000036      0.000000
    193 O2    s       0.000057     -0.000041     -0.000024      0.000000
    194 O2    s       0.000040     -0.000037      0.000039      0.000000
    195 O2    s      -0.000009      0.000014      0.000042      0.000000
    196 O2    s      -0.000001      0.000040      0.000027      0.000000
    197 O2    s      -0.000059     -0.000039      0.000087      0.000000
    198 O2    s       0.000001      0.000026     -0.000016      0.000000
    199 O3    s       0.000039      0.000291     -0.000074      0.000000
    200 O2    s      -0.000059      0.000054     -0.000006      0.000000
    201 O2    s       0.000007      0.000003      0.000020      0.000000
    202 O2    s      -0.000001      0.000008     -0.000010      0.000000
    203 O2    s      -0.000037     -0.000004     -0.000100      0.000000
    204 O2    s       0.000022     -0.000001     -0.000077      0.000000
    205 O2    s       0.000126      0.000013     -0.000026      0.000000
    206 O2    s       0.000054     -0.000038     -0.000075      0.000000
    207 O2    s      -0.000035      0.000003     -0.000016      0.000000
    208 O2    s       0.000049     -0.000027      0.000019      0.000000
    209 O2    s      -0.000017      0.000006     -0.000048      0.000000
    210 O2    s       0.000002     -0.000002     -0.000047      0.000000
    211 O3    s      -0.000028      0.000042     -0.000111      0.000000
    212 O3    s      -0.000029      0.000120     -0.000186      0.000000
    213 O2    s       0.000006     -0.000039      0.000014      0.000000
    214 O2    s      -0.000018      0.000004     -0.000083      0.000000
    215 O2    s       0.000009      0.000006     -0.000041      0.000000
    216 O2    s       0.000014      0.000009      0.000019      0.000000
    217 O2    s      -0.000071      0.000016      0.000002      0.000000
    218 O2    s       0.000032     -0.000009     -0.000054      0.000000
    219 O2    s      -0.000008     -0.000023     -0.000337      0.000000
    220 O2    s       0.000015     -0.000020     -0.000076      0.000000
    221 O2    s       0.000117      0.000003     -0.000142      0.000000
    222 O3    s       0.000022      0.000002     -0.000017      0.000000
    223 O2    s      -0.000085      0.000006     -0.000064      0.000000
    224 O2    s      -0.000032      0.000001     -0.000072      0.000000
    225 O2    s      -0.000021      0.000036     -0.000019      0.000000
    226 O2    s      -0.000011      0.000014      0.000014      0.000000
    227 O2    s       0.000042     -0.000014     -0.000031      0.000000
    228 O2    s      -0.000016     -0.000021     -0.000063      0.000000
    229 O3    s       0.000020     -0.000009      0.000041      0.000000
    230 O2    s      -0.000036      0.000047      0.000049      0.000000
    231 O2    s       0.000051     -0.000014      0.000020      0.000000
    232 O2    s       0.000012     -0.000008     -0.000008      0.000000
    233 O2    s       0.000007      0.000009      0.000021      0.000000
    234 O2    s      -0.000089     -0.000002     -0.000057      0.000000
    235 O2    s       0.000067     -0.000081      0.000033      0.000000
    236 O2    s       0.000057     -0.000033     -0.000033      0.000000
    237 O2    s      -0.000000     -0.000008     -0.000045      0.000000
    238 O2    s      -0.000042      0.000042      0.000084      0.000000
    239 O3    s      -0.000133     -0.000009     -0.000001      0.000000
    240 O2    s       0.000020      0.000008     -0.000012      0.000000
    241 O2    s       0.000036     -0.000021     -0.000086      0.000000
    242 O2    s       0.000051      0.000008      0.000083      0.000000
    243 O2    s      -0.000096      0.000063     -0.000003      0.000000
    244 O2    s      -0.000018      0.000014     -0.000023      0.000000
    245 O2    s      -0.000031      0.000025      0.000052      0.000000
    246 O2    s       0.000053      0.000038     -0.000167      0.000000
    247 O2    s      -0.000015      0.000018     -0.000078      0.000000
    248 O3    s      -0.000085     -0.000002     -0.000079      0.000000
    249 O2    s       0.000034     -0.000063      0.000024      0.000000
    250 O2    s      -0.000044      0.000069     -0.000035      0.000000
    251 O2    s      -0.000008     -0.000023     -0.000057      0.000000
    252 O2    s      -0.000008      0.000013      0.000008      0.000000
    253 O3    s      -0.000033      0.000026     -0.000252      0.000000
    254 O2    s       0.000007      0.000009     -0.000051      0.000000
    255 O2    s      -0.000061      0.000059     -0.000005      0.000000
    256 O2    s       0.000015      0.000025     -0.000068      0.000000
    257 O2    s       0.000065     -0.000038     -0.000062      0.000000
    258 O2    s       0.000036     -0.000001     -0.000073      0.000000
    259 O2    s      -0.000020      0.000023      0.000096      0.000000
    260 O2    s      -0.000029      0.000032     -0.000052      0.000000
    261 O2    s       0.000069     -0.000049      0.000070      0.000000
    262 O2    s       0.000024     -0.000029      0.000119      0.000000
    263 O2    s       0.000027      0.000004      0.000026      0.000000
    264 O2    s       0.000048      0.000014      0.000016      0.000000
    265 O1    s       0.000099     -0.000051      0.000080      0.000000
    266 O2    s      -0.000002      0.000022     -0.000009      0.000000
    267 O2    s      -0.000019      0.000058     -0.000043      0.000000
    268 O2    s       0.000048     -0.000034     -0.000061      0.000000
    269 O2    s       0.000041     -0.000021     -0.000066      0.000000
    270 O2    s      -0.000047     -0.000013     -0.000076      0.000000
    271 O2    s       0.000104     -0.000102      0.000022      0.000000
    272 O2    s       0.000034      0.000020      0.000022      0.000000
    273 O2    s       0.000009      0.000029      0.000027      0.000000
    274 O2    s      -0.000046      0.000085      0.000014      0.000000
    275 O2    s       0.000034     -0.000016      0.000045      0.000000
    276 O2    s       0.000109     -0.000006      0.000120      0.000000
    277 O2    s       0.000012      0.000009     -0.000001      0.000000
    278 O2    s       0.000077     -0.000037      0.000078      0.000000
    279 O2    s      -0.000063      0.000091      0.000053      0.000000
    280 O2    s       0.000030     -0.000017     -0.000019      0.000000
    281 O2    s      -0.000066      0.000062      0.000065      0.000000
    282 O2    s       0.000054     -0.000067     -0.000136      0.000000
    283 O2    s      -0.000020      0.000035     -0.000006      0.000000
    284 O3    s       0.000054     -0.000026     -0.000168      0.000000
    285 O2    s       0.000056     -0.000057     -0.000130      0.000000
    286 O2    s      -0.000006      0.000020     -0.000088      0.000000
    287 O2    s       0.000044     -0.000056     -0.000106      0.000000
    288 O2    s      -0.000033      0.000019     -0.000050      0.000000
    289 O2    s       0.000024     -0.000031     -0.000165      0.000000
    290 O2    s      -0.000010      0.000047      0.000058      0.000000
    291 O2    s       0.000016     -0.000026      0.000019      0.000000
    292 O2    s      -0.000015      0.000024      0.000026      0.000000
    293 O2    s       0.000050     -0.000040      0.000019      0.000000
    294 O2    s      -0.000043     -0.000077     -0.000120      0.000000
    295 O2    s      -0.000022      0.000016     -0.000074      0.000000
    296 O2    s      -0.000053      0.000016      0.000321      0.000000
    297 O2    s       0.000001      0.000022     -0.000063      0.000000
    298 O2    s      -0.000022      0.000056      0.000034      0.000000
    299 O2    s      -0.000042      0.000040     -0.000077      0.000000
    300 O2    s      -0.000015     -0.000012     -0.000024      0.000000
    301 O2    s      -0.000008     -0.000011      0.000052      0.000000
    302 O2    s      -0.000066      0.000050      0.000037      0.000000
    303 O2    s       0.000002      0.000055      0.000114      0.000000
    304 O2    s       0.000042     -0.000032     -0.000011      0.000000
    305 O2    s      -0.000079      0.000010     -0.000093      0.000000
    306 O2    s      -0.000022      0.000021     -0.000020      0.000000
    307 F     s       0.000006      0.000006     -0.000046      0.000000
    308 F     s       0.000016     -0.000013     -0.000005      0.000000
    309 F     s       0.000003      0.000007     -0.000027      0.000000
    310 F     s      -0.000001     -0.000002     -0.000008      0.000000
    311 F     s       0.000164      0.000071     -0.000058      0.000000
    312 F     s       0.000006     -0.000005     -0.000003      0.000000
--------------------------------------------------------------------------------
  Maximum abs         0.000287      0.000334      0.000484      0.000000
--------------------------------------------------------------------------------


  Time to end of optimisation =     314.9952 seconds


  Peak dynamic memory used =      19.13 MB 


  Timing analysis for GULP :

--------------------------------------------------------------------------------
  Task / Subroutine                                          Time (Seconds)
--------------------------------------------------------------------------------
  Calculation of reciprocal space energy and derivatives          9.9124
  Calculation of real space energy and derivatives              266.6915
  Calculation of three-body energy and derivatives               31.6727
  Calculation of matrix inversion                                 4.1006
  Global summation overhead                                       0.0002
--------------------------------------------------------------------------------
  Total CPU time                                                314.9953
--------------------------------------------------------------------------------


  Dump file written as out.res                                                 
  CIF file written as out.cif                                                 


  Job Finished at 16:58.16 30th November   2016                               

