********************************************************************************
*                       GENERAL UTILITY LATTICE PROGRAM                        *
*                                 Julian Gale                                  *
*                      Nanochemistry Research Institute                        *
*                           Department of Chemistry                            *
*                    Curtin University, Western Australia                      *
********************************************************************************
* Version = 4.2.0 * Last modified =  20th January 2014                         *
********************************************************************************
*  optimise     - perform optimisation run                                     *
*  conp         - constant pressure calculation                                *
*  qok          - running with non charge neutral cell is OK                   *
********************************************************************************

  Job Started  at 15:11.13 30th November   2016                               

  Number of CPUs =     1


  Total number of configurations input =   1

********************************************************************************
*  Input for Configuration =   1                                               *
********************************************************************************

  Formula = Ge3Si57O120F6                                               

  Number of irreducible atoms/shells =     312


  Total number atoms/shells =     312

  Dimensionality = 3               :  Bulk   


  Charge on solid   =  -6.000000 =>neutralising background added


  Cartesian lattice vectors (Angstroms) :

       11.917977    0.000000    0.000000
       -5.981360   10.396280    0.000000
       -0.014706   -0.253048   29.519532

  Cell parameters (Angstroms/Degrees):

  a =      11.9180    alpha =  90.4115
  b =      11.9941    beta  =  90.0285
  c =      29.5206    gamma = 119.9134

  Initial cell volume =        3657.547372 Angs**3

  Temperature of configuration =  0.000     K 

  Pressure of configuration =         0.000 GPa 

  Fractional coordinates of asymmetric unit :

--------------------------------------------------------------------------------
   No.  Atomic       x           y          z         Charge      Occupancy
        Label      (Frac)      (Frac)     (Frac)        (e)         (Frac)  
--------------------------------------------------------------------------------
      1 Ge    c    0.699600    0.375700    0.033890     4.00000    1.000000    
      2 Si    c    0.620829 *  0.324616 *  0.364707 *   4.00000    1.000000    
      3 Si    c    0.682339 *  0.303549 *  0.695528 *   4.00000    1.000000    
      4 Si    c    0.294691 *  0.620098 *  0.530240 *   4.00000    1.000000    
      5 Si    c    0.374951 *  0.674624 *  0.863927 *   4.00000    1.000000    
      6 Si    c    0.320509 *  0.703245 *  0.197459 *   4.00000    1.000000    
      7 Si    c    0.376369 *  0.699899 *  0.297844 *   4.00000    1.000000    
      8 Si    c    0.323265 *  0.624042 *  0.964166 *   4.00000    1.000000    
      9 Si    c    0.289467 *  0.671417 *  0.630434 *   4.00000    1.000000    
     10 Si    c    0.626381 *  0.301088 *  0.797667 *   4.00000    1.000000    
     11 Si    c    0.674850 *  0.381074 *  0.464894 *   4.00000    1.000000    
     12 Si    c    0.687886 *  0.318687 *  0.132702 *   4.00000    1.000000    
     13 Si    c    0.531787 *  0.418939 *  0.965865 *   4.00000    1.000000    
     14 Si    c    0.582782 *  0.111081 *  0.301707 *   4.00000    1.000000    
     15 Si    c    0.883187 *  0.475110 *  0.630368 *   4.00000    1.000000    
     16 Si    c    0.467272 *  0.583414 *  0.464621 *   4.00000    1.000000    
     17 Si    c    0.416479 *  0.883845 *  0.799078 *   4.00000    1.000000    
     18 Si    c    0.109779 *  0.531587 *  0.130244 *   4.00000    1.000000    
     19 Si    c    0.415513 *  0.529287 *  0.362917 *   4.00000    1.000000    
     20 Si    c    0.106818 *  0.581330 *  0.027214 *   4.00000    1.000000    
     21 Si    c    0.469228 *  0.877845 *  0.695794 *   4.00000    1.000000    
     22 Si    c    0.579076 *  0.466296 *  0.864057 *   4.00000    1.000000    
     23 Si    c    0.885953 *  0.420258 *  0.529260 *   4.00000    1.000000    
     24 Si    c    0.528975 *  0.113031 *  0.200629 *   4.00000    1.000000    
     25 Si    c    0.297534 *  0.397018 *  0.850269 *   4.00000    1.000000    
     26 Si    c    0.599737 *  0.904908 *  0.184370 *   4.00000    1.000000    
     27 Si    c    0.094948 *  0.699249 *  0.515005 *   4.00000    1.000000    
     28 Si    c    0.697484 *  0.600837 *  0.349490 *   4.00000    1.000000    
     29 Si    c    0.399503 *  0.092400 *  0.680537 *   4.00000    1.000000    
     30 Si    c    0.893105 *  0.295378 *  0.011877 *   4.00000    1.000000    
     31 Si    c    0.395488 *  0.303270 *  0.479086 *   4.00000    1.000000    
     32 Si    c    0.894044 *  0.602781 *  0.143395 *   4.00000    1.000000    
     33 Si    c    0.701757 *  0.097997 *  0.817896 *   4.00000    1.000000    
     34 Si    c    0.602996 *  0.701595 *  0.978418 *   4.00000    1.000000    
     35 Si    c    0.087438 *  0.395152 *  0.645739 *   4.00000    1.000000    
     36 Si    c    0.300798 *  0.901956 *  0.314360 *   4.00000    1.000000    
     37 Si    c    0.251606 *  0.343901 *  0.950681 *   4.00000    1.000000    
     38 Si    c    0.658810 *  0.909361 *  0.284573 *   4.00000    1.000000    
     39 Si    c    0.086248 *  0.751761 *  0.615309 *   4.00000    1.000000    
     40 Si    c    0.747485 *  0.661143 *  0.450020 *   4.00000    1.000000    
     41 Si    c    0.339867 *  0.086425 *  0.782127 *   4.00000    1.000000    
     42 Si    c    0.904707 *  0.250127 *  0.114467 *   4.00000    1.000000    
     43 Si    c    0.338600 *  0.251593 *  0.378374 *   4.00000    1.000000    
     44 Si    c    0.900272 *  0.659000 *  0.041145 *   4.00000    1.000000    
     45 Ge    c    0.733491 *  0.088883 *  0.718105 *   4.00000    1.000000    
     46 Si    c    0.655904 *  0.744758 *  0.877431 *   4.00000    1.000000    
     47 Si    c    0.085384 *  0.340026 *  0.544849 *   4.00000    1.000000    
     48 Si    c    0.249127 *  0.911768 *  0.214073 *   4.00000    1.000000    
     49 Si    c    0.978185 *  0.121725 *  0.966857 *   4.00000    1.000000    
     50 Si    c    0.877040 *  0.846675 *  0.298797 *   4.00000    1.000000    
     51 Si    c    0.149066 *  0.031225 *  0.631203 *   4.00000    1.000000    
     52 Si    c    0.027842 *  0.879412 *  0.464937 *   4.00000    1.000000    
     53 Si    c    0.123224 *  0.152605 *  0.796577 *   4.00000    1.000000    
     54 Si    c    0.847019 *  0.972645 *  0.132724 *   4.00000    1.000000    
     55 Si    c    0.120949 *  0.971147 *  0.364318 *   4.00000    1.000000    
     56 Si    c    0.850078 *  0.882183 *  0.031570 *   4.00000    1.000000    
     57 Si    c    0.019878 *  0.147929 *  0.696853 *   4.00000    1.000000    
     58 Ge    c    0.879831 *  0.025465 *  0.865404 *   4.00000    1.000000    
     59 Si    c    0.148984 *  0.123174 *  0.530269 *   4.00000    1.000000    
     60 Si    c    0.968961 *  0.851380 *  0.197169 *   4.00000    1.000000    
     61 O2    c    0.934371 *  0.010882 *  0.003848 *   0.87073    1.000000    
     62 O2    c    0.000308 *  0.928098 *  0.330777 *   0.87073    1.000000    
     63 O2    c    0.071025 *  0.074922 *  0.663461 *   0.87073    1.000000    
     64 O2    c    0.069619 *  0.000574 *  0.497831 *   0.87073    1.000000    
     65 O3    c    0.003833 *  0.067774 *  0.828074 *   1.33043    1.000000    
     66 O2    c    0.930540 *  0.937114 *  0.166343 *   0.87073    1.000000    
     67 O2    c    0.338628 *  0.576973 *  0.329897 *   0.87073    1.000000    
     68 O2    c    0.410185 *  0.749945 *  0.664617 *   0.87073    1.000000    
     69 O2    c    0.235233 *  0.660036 *  0.996668 *   0.87073    1.000000    
     70 O2    c    0.657384 *  0.420489 *  0.830822 *   0.87073    1.000000    
     71 O2    c    0.579102 *  0.241173 *  0.170715 *   0.87073    1.000000    
     72 O2    c    0.759464 *  0.342198 *  0.497129 *   0.87073    1.000000    
     73 O3    c    0.568594 *  0.337591 *  0.998220 *   1.33043    1.000000    
     74 O2    c    0.757169 *  0.428206 *  0.662678 *   0.87073    1.000000    
     75 O2    c    0.660306 *  0.237273 *  0.333635 *   0.87073    1.000000    
     76 O2    c    0.417925 *  0.659028 *  0.497353 *   0.87073    1.000000    
     77 O2    c    0.234567 *  0.582389 *  0.163241 *   0.87073    1.000000    
     78 O2    c    0.337220 *  0.759600 *  0.831084 *   0.87073    1.000000    
     79 O2    c    0.131489 *  0.218391 *  0.973139 *   0.87073    1.000000    
     80 O2    c    0.785472 *  0.909461 *  0.304595 *   0.87073    1.000000    
     81 O2    c    0.085420 *  0.877211 *  0.635655 *   0.87073    1.000000    
     82 O2    c    0.873197 *  0.788260 *  0.470175 *   0.87073    1.000000    
     83 O2    c    0.218016 *  0.092367 *  0.802150 *   0.87073    1.000000    
     84 O2    c    0.908569 *  0.127181 *  0.135147 *   0.87073    1.000000    
     85 O2    c    0.211957 *  0.124643 *  0.358375 *   0.87073    1.000000    
     86 O2    c    0.917723 *  0.796123 *  0.024697 *   0.87073    1.000000    
     87 O3    c    0.869708 *  0.081435 *  0.695380 *   1.33043    1.000000    
     88 O3    c    0.780485 *  0.863040 *  0.855705 *   1.33043    1.000000    
     89 O2    c    0.084709 *  0.213213 *  0.524751 *   0.87073    1.000000    
     90 O2    c    0.123734 *  0.913373 *  0.193447 *   0.87073    1.000000    
     91 O2    c    0.926420 *  0.857166 *  0.247913 *   0.87073    1.000000    
     92 O2    c    0.138958 *  0.072610 *  0.580684 *   0.87073    1.000000    
     93 O3    c    0.947036 *  0.055018 *  0.918491 *   1.33043    1.000000    
     94 O2    c    0.078514 *  0.144898 *  0.745569 *   0.87073    1.000000    
     95 O2    c    0.854579 *  0.923133 *  0.083443 *   0.87073    1.000000    
     96 O2    c    0.066722 *  0.933125 *  0.414576 *   0.87073    1.000000    
     97 O2    c    0.905488 *  0.203333 *  0.974031 *   0.87073    1.000000    
     98 O2    c    0.796083 *  0.696083 *  0.311171 *   0.87073    1.000000    
     99 O2    c    0.301944 *  0.095469 *  0.643092 *   0.87073    1.000000    
    100 O2    c    0.097503 *  0.797123 *  0.476507 *   0.87073    1.000000    
    101 O2    c    0.200245 *  0.302302 *  0.811416 *   0.87073    1.000000    
    102 O2    c    0.696034 *  0.903967 *  0.145793 *   0.87073    1.000000    
    103 O2    c    0.203388 *  0.900880 *  0.352994 *   0.87073    1.000000    
    104 O2    c    0.699655 *  0.801617 *  0.016631 *   0.87073    1.000000    
    105 O2    c    0.085854 *  0.299711 *  0.684127 *   0.87073    1.000000    
    106 O3    c    0.787106 *  0.098567 *  0.860436 *   1.33043    1.000000    
    107 O2    c    0.300421 *  0.206179 *  0.517504 *   0.87073    1.000000    
    108 O2    c    0.898599 *  0.702038 *  0.181903 *   0.87073    1.000000    
    109 O2    c    0.319929 *  0.643768 *  0.247081 *   0.87073    1.000000    
    110 O2    c    0.351761 *  0.676271 *  0.580634 *   0.87073    1.000000    
    111 O2    c    0.318498 *  0.678142 *  0.914013 *   0.87073    1.000000    
    112 O2    c    0.680324 *  0.354435 *  0.747268 *   0.87073    1.000000    
    113 O3    c    0.615692 *  0.304922 *  0.085673 *   1.33043    1.000000    
    114 O2    c    0.677401 *  0.324673 *  0.414807 *   0.87073    1.000000    
    115 O2    c    0.374756 *  0.334346 *  0.966928 *   0.87073    1.000000    
    116 O2    c    0.669734 *  0.041345 *  0.303817 *   0.87073    1.000000    
    117 O2    c    0.952340 *  0.630841 *  0.632946 *   0.87073    1.000000    
    118 O2    c    0.623992 *  0.671259 *  0.467529 *   0.87073    1.000000    
    119 O2    c    0.331527 *  0.955709 *  0.800175 *   0.87073    1.000000    
    120 O2    c    0.037151 *  0.375948 *  0.131606 *   0.87073    1.000000    
    121 O2    c    0.328278 *  0.373236 *  0.359746 *   0.87073    1.000000    
    122 O2    c    0.034289 *  0.664548 *  0.025381 *   0.87073    1.000000    
    123 O3    c    0.621470 *  0.939577 *  0.692310 *   1.33043    1.000000    
    124 O2    c    0.663622 *  0.620796 *  0.859776 *   0.87073    1.000000    
    125 O2    c    0.954099 *  0.332191 *  0.525767 *   0.87073    1.000000    
    126 O2    c    0.372171 *  0.043525 *  0.196412 *   0.87073    1.000000    
    127 O3    c    0.758240 *  0.285877 *  0.002522 *   1.33043    1.000000    
    128 O2    c    0.696401 *  0.466313 *  0.341728 *   0.87073    1.000000    
    129 O2    c    0.534751 *  0.225567 *  0.675655 *   0.87073    1.000000    
    130 O2    c    0.227919 *  0.696150 *  0.507452 *   0.87073    1.000000    
    131 O2    c    0.299877 *  0.531486 *  0.841416 *   0.87073    1.000000    
    132 O2    c    0.464283 *  0.772276 *  0.175355 *   0.87073    1.000000    
    133 O2    c    0.300496 *  0.767650 *  0.320276 *   0.87073    1.000000    
    134 O2    c    0.467802 *  0.701658 *  0.985953 *   0.87073    1.000000    
    135 O2    c    0.222177 *  0.529087 *  0.652309 *   0.87073    1.000000    
    136 O2    c    0.700664 *  0.233161 *  0.820146 *   0.87073    1.000000    
    137 O2    c    0.530923 *  0.305344 *  0.486693 *   0.87073    1.000000    
    138 O2    c    0.762181 *  0.467958 *  0.151239 *   0.87073    1.000000    
    139 O3    c    0.772989 *  0.546310 *  0.019967 *   1.33043    1.000000    
    140 O2    c    0.464180 *  0.249746 *  0.358864 *   0.87073    1.000000    
    141 O3    c    0.764008 *  0.232140 *  0.690302 *   1.33043    1.000000    
    142 O2    c    0.213380 *  0.464132 *  0.525745 *   0.87073    1.000000    
    143 O2    c    0.531061 *  0.749489 *  0.858461 *   0.87073    1.000000    
    144 O2    c    0.244837 *  0.783949 *  0.193887 *   0.87073    1.000000    
    145 O2    c    0.532751 *  0.782538 *  0.302956 *   0.87073    1.000000    
    146 O2    c    0.249785 *  0.469172 *  0.970225 *   0.87073    1.000000    
    147 O2    c    0.211495 *  0.750275 *  0.635354 *   0.87073    1.000000    
    148 O2    c    0.471611 *  0.208989 *  0.799158 *   0.87073    1.000000    
    149 O2    c    0.748083 *  0.536758 *  0.470011 *   0.87073    1.000000    
    150 O2    c    0.781245 *  0.254794 *  0.134013 *   0.87073    1.000000    
    151 O2    c    0.224272 *  0.325099 *  0.896488 *   0.87073    1.000000    
    152 O2    c    0.675617 *  0.908133 *  0.230282 *   0.87073    1.000000    
    153 O2    c    0.090544 *  0.771191 *  0.561055 *   0.87073    1.000000    
    154 O2    c    0.768078 *  0.676487 *  0.395788 *   0.87073    1.000000    
    155 O2    c    0.329122 *  0.084461 *  0.727958 *   0.87073    1.000000    
    156 O2    c    0.901314 *  0.233977 *  0.060294 *   0.87073    1.000000    
    157 O2    c    0.321110 *  0.233039 *  0.432528 *   0.87073    1.000000    
    158 O2    c    0.896168 *  0.669720 *  0.096346 *   0.87073    1.000000    
    159 O3    c    0.782222 *  0.090707 *  0.775540 *   1.33043    1.000000    
    160 O2    c    0.676412 *  0.769728 *  0.931806 *   0.87073    1.000000    
    161 O2    c    0.083179 *  0.321606 *  0.598919 *   0.87073    1.000000    
    162 O2    c    0.230543 *  0.909113 *  0.268301 *   0.87073    1.000000    
    163 O2    c    0.586609 *  0.562275 *  0.987417 *   0.87073    1.000000    
    164 O2    c    0.441180 *  0.025280 *  0.324219 *   0.87073    1.000000    
    165 O2    c    0.966345 *  0.417560 *  0.653467 *   0.87073    1.000000    
    166 O2    c    0.410112 *  0.442806 *  0.487313 *   0.87073    1.000000    
    167 O2    c    0.556744 *  0.974625 *  0.822125 *   0.87073    1.000000    
    168 O2    c    0.017355 *  0.582927 *  0.149688 *   0.87073    1.000000    
    169 O2    c    0.557706 *  0.587301 *  0.340248 *   0.87073    1.000000    
    170 O2    c    0.017245 *  0.439363 *  0.005985 *   0.87073    1.000000    
    171 O2    c    0.418998 *  0.970258 *  0.673545 *   0.87073    1.000000    
    172 O2    c    0.435040 *  0.404027 *  0.842223 *   0.87073    1.000000    
    173 O2    c    0.968588 *  0.560467 *  0.505902 *   0.87073    1.000000    
    174 O2    c    0.588182 *  0.031753 *  0.176294 *   0.87073    1.000000    
    175 O2    c    0.581632 *  0.164239 *  0.251444 *   0.87073    1.000000    
    176 O2    c    0.830915 *  0.420768 *  0.579566 *   0.87073    1.000000    
    177 O2    c    0.584632 *  0.418633 *  0.914780 *   0.87073    1.000000    
    178 O2    c    0.419314 *  0.835038 *  0.748016 *   0.87073    1.000000    
    179 O2    c    0.154008 *  0.578657 *  0.078841 *   0.87073    1.000000    
    180 O2    c    0.414376 *  0.582718 *  0.413627 *   0.87073    1.000000    
    181 F     c    0.450247 *  0.903036 *  0.248226 *   0.56000    1.000000    
    182 F     c    0.093981 *  0.551263 *  0.579154 *   0.56000    1.000000    
    183 F     c    0.447832 *  0.550525 *  0.912985 *   0.56000    1.000000    
    184 F     c    0.586448 *  0.092510 *  0.743341 *   0.56000    1.000000    
    185 F     c    0.853813 *  0.435196 *  0.070236 *   0.56000    1.000000    
    186 F     c    0.547087 *  0.452424 *  0.413353 *   0.56000    1.000000    
    187 O2    s    0.929594 *  0.008519 *  0.002898 *  -2.87073    1.000000    
    188 O2    s    0.999896 *  0.923726 *  0.330922 *  -2.87073    1.000000    
    189 O2    s    0.074729 *  0.077507 *  0.663206 *  -2.87073    1.000000    
    190 O2    s    0.073788 *  0.000668 *  0.497759 *  -2.87073    1.000000    
    191 O3    s    0.005914 *  0.073269 *  0.827931 *  -3.33043    1.000000    
    192 O2    s    0.925652 *  0.931584 *  0.166062 *  -2.87073    1.000000    
    193 O2    s    0.350307 *  0.584798 *  0.329925 *  -2.87073    1.000000    
    194 O2    s    0.403731 *  0.755302 *  0.664327 *  -2.87073    1.000000    
    195 O2    s    0.230682 *  0.648179 *  0.996573 *  -2.87073    1.000000    
    196 O2    s    0.646073 *  0.412393 *  0.830668 *  -2.87073    1.000000    
    197 O2    s    0.585104 *  0.235663 *  0.169919 *  -2.87073    1.000000    
    198 O2    s    0.763679 *  0.354355 *  0.497069 *  -2.87073    1.000000    
    199 O3    s    0.574818 *  0.349052 *  0.997594 *  -3.33043    1.000000    
    200 O2    s    0.762372 *  0.420546 *  0.662710 *  -2.87073    1.000000    
    201 O2    s    0.648161 *  0.233005 *  0.333480 *  -2.87073    1.000000    
    202 O2    s    0.410473 *  0.647174 *  0.497312 *  -2.87073    1.000000    
    203 O2    s    0.230038 *  0.589087 *  0.163205 *  -2.87073    1.000000    
    204 O2    s    0.349244 *  0.763927 *  0.831087 *  -2.87073    1.000000    
    205 O2    s    0.127646 *  0.221189 *  0.970142 *  -2.87073    1.000000    
    206 O2    s    0.781975 *  0.902744 *  0.301912 *  -2.87073    1.000000    
    207 O2    s    0.092265 *  0.880449 *  0.633076 *  -2.87073    1.000000    
    208 O2    s    0.876544 *  0.784739 *  0.467554 *  -2.87073    1.000000    
    209 O2    s    0.221813 *  0.097904 *  0.799385 *  -2.87073    1.000000    
    210 O2    s    0.901710 *  0.123749 *  0.132770 *  -2.87073    1.000000    
    211 O2    s    0.215346 *  0.121453 *  0.361042 *  -2.87073    1.000000    
    212 O2    s    0.908636 *  0.791591 *  0.027071 *  -2.87073    1.000000    
    213 O3    s    0.877864 *  0.089511 *  0.697008 *  -3.33043    1.000000    
    214 O3    s    0.776003 *  0.864346 *  0.858668 *  -3.33043    1.000000    
    215 O2    s    0.091584 *  0.216671 *  0.527368 *  -2.87073    1.000000    
    216 O2    s    0.120154 *  0.906558 *  0.195959 *  -2.87073    1.000000    
    217 O2    s    0.925677 *  0.855321 *  0.247879 *  -2.87073    1.000000    
    218 O2    s    0.141245 *  0.073740 *  0.580592 *  -2.87073    1.000000    
    219 O3    s    0.944593 *  0.059588 *  0.919084 *  -3.33043    1.000000    
    220 O2    s    0.077398 *  0.146114 *  0.746265 *  -2.87073    1.000000    
    221 O2    s    0.853215 *  0.924337 *  0.083342 *  -2.87073    1.000000    
    222 O2    s    0.068517 *  0.931435 *  0.414511 *  -2.87073    1.000000    
    223 O2    s    0.911966 *  0.204044 *  0.977108 *  -2.87073    1.000000    
    224 O2    s    0.794689 *  0.702450 *  0.313747 *  -2.87073    1.000000    
    225 O2    s    0.296407 *  0.088510 *  0.645779 *  -2.87073    1.000000    
    226 O2    s    0.089834 *  0.795995 *  0.479161 *  -2.87073    1.000000    
    227 O2    s    0.202210 *  0.296293 *  0.813920 *  -2.87073    1.000000    
    228 O2    s    0.702253 *  0.911437 *  0.148392 *  -2.87073    1.000000    
    229 O2    s    0.204697 *  0.908390 *  0.350217 *  -2.87073    1.000000    
    230 O2    s    0.705678 *  0.799937 *  0.014299 *  -2.87073    1.000000    
    231 O2    s    0.079415 *  0.294689 *  0.681292 *  -2.87073    1.000000    
    232 O3    s    0.786496 *  0.092737 *  0.856879 *  -3.33043    1.000000    
    233 O2    s    0.294171 *  0.207414 *  0.514883 *  -2.87073    1.000000    
    234 O2    s    0.905567 *  0.707593 *  0.179526 *  -2.87073    1.000000    
    235 O2    s    0.325590 *  0.655374 *  0.247086 *  -2.87073    1.000000    
    236 O2    s    0.339626 *  0.670030 *  0.580475 *  -2.87073    1.000000    
    237 O2    s    0.324670 *  0.672282 *  0.914022 *  -2.87073    1.000000    
    238 O2    s    0.674978 *  0.343989 *  0.747459 *  -2.87073    1.000000    
    239 O3    s    0.628596 *  0.311059 *  0.086897 *  -3.33043    1.000000    
    240 O2    s    0.671244 *  0.330518 *  0.414748 *  -2.87073    1.000000    
    241 O2    s    0.377235 *  0.344219 *  0.964963 *  -2.87073    1.000000    
    242 O2    s    0.659611 *  0.034688 *  0.301581 *  -2.87073    1.000000    
    243 O2    s    0.959236 *  0.627406 *  0.630808 *  -2.87073    1.000000    
    244 O2    s    0.620785 *  0.661136 *  0.465371 *  -2.87073    1.000000    
    245 O2    s    0.341113 *  0.962184 *  0.798154 *  -2.87073    1.000000    
    246 O2    s    0.031069 *  0.379178 *  0.129704 *  -2.87073    1.000000    
    247 O2    s    0.338272 *  0.376564 *  0.362015 *  -2.87073    1.000000    
    248 O2    s    0.028483 *  0.655090 *  0.027160 *  -2.87073    1.000000    
    249 O3    s    0.613512 *  0.943720 *  0.694506 *  -3.33043    1.000000    
    250 O2    s    0.653719 *  0.617383 *  0.862122 *  -2.87073    1.000000    
    251 O2    s    0.960860 *  0.342121 *  0.528145 *  -2.87073    1.000000    
    252 O2    s    0.375253 *  0.036708 *  0.198721 *  -2.87073    1.000000    
    253 O3    s    0.768652 *  0.292787 *  0.005662 *  -3.33043    1.000000    
    254 O2    s    0.688766 *  0.465881 *  0.344919 *  -2.87073    1.000000    
    255 O2    s    0.535199 *  0.219195 *  0.678193 *  -2.87073    1.000000    
    256 O2    s    0.220678 *  0.688681 *  0.510612 *  -2.87073    1.000000    
    257 O2    s    0.307401 *  0.532241 *  0.844713 *  -2.87073    1.000000    
    258 O2    s    0.463445 *  0.778878 *  0.178601 *  -2.87073    1.000000    
    259 O2    s    0.308318 *  0.774787 *  0.317303 *  -2.87073    1.000000    
    260 O2    s    0.466725 *  0.693657 *  0.982893 *  -2.87073    1.000000    
    261 O2    s    0.214952 *  0.529802 *  0.649273 *  -2.87073    1.000000    
    262 O2    s    0.692991 *  0.226560 *  0.817510 *  -2.87073    1.000000    
    263 O2    s    0.531458 *  0.312976 *  0.483597 *  -2.87073    1.000000    
    264 O2    s    0.768885 *  0.467682 *  0.148552 *  -2.87073    1.000000    
    265 O3    s    0.782481 *  0.548046 *  0.023115 *  -3.33043    1.000000    
    266 O2    s    0.466857 *  0.257777 *  0.361527 *  -2.87073    1.000000    
    267 O3    s    0.753268 *  0.229004 *  0.692822 *  -3.33043    1.000000    
    268 O2    s    0.207954 *  0.466972 *  0.528244 *  -2.87073    1.000000    
    269 O2    s    0.527954 *  0.741061 *  0.861028 *  -2.87073    1.000000    
    270 O2    s    0.253248 *  0.789145 *  0.196385 *  -2.87073    1.000000    
    271 O2    s    0.530023 *  0.787735 *  0.300442 *  -2.87073    1.000000    
    272 O2    s    0.257718 *  0.472001 *  0.967527 *  -2.87073    1.000000    
    273 O2    s    0.205894 *  0.742261 *  0.632697 *  -2.87073    1.000000    
    274 O2    s    0.473719 *  0.205250 *  0.797117 *  -2.87073    1.000000    
    275 O2    s    0.740284 *  0.534086 *  0.467326 *  -2.87073    1.000000    
    276 O2    s    0.785485 *  0.260769 *  0.131721 *  -2.87073    1.000000    
    277 O2    s    0.234527 *  0.334427 *  0.897296 *  -2.87073    1.000000    
    278 O2    s    0.665833 *  0.907905 *  0.231205 *  -2.87073    1.000000    
    279 O2    s    0.090542 *  0.761620 *  0.561965 *  -2.87073    1.000000    
    280 O2    s    0.758482 *  0.666913 *  0.396627 *  -2.87073    1.000000    
    281 O2    s    0.337804 *  0.085502 *  0.728829 *  -2.87073    1.000000    
    282 O2    s    0.900818 *  0.241747 *  0.061385 *  -2.87073    1.000000    
    283 O2    s    0.330753 *  0.242373 *  0.431646 *  -2.87073    1.000000    
    284 O2    s    0.896219 *  0.661186 *  0.096058 *  -2.87073    1.000000    
    285 O3    s    0.771161 *  0.091234 *  0.775853 *  -3.33043    1.000000    
    286 O2    s    0.666748 *  0.760218 *  0.931083 *  -2.87073    1.000000    
    287 O2    s    0.083836 *  0.331225 *  0.597974 *  -2.87073    1.000000    
    288 O2    s    0.239817 *  0.908655 *  0.267315 *  -2.87073    1.000000    
    289 O2    s    0.582530 *  0.562860 *  0.984204 *  -2.87073    1.000000    
    290 O2    s    0.440870 *  0.020770 *  0.320790 *  -2.87073    1.000000    
    291 O2    s    0.970835 *  0.421511 *  0.650148 *  -2.87073    1.000000    
    292 O2    s    0.414686 *  0.442410 *  0.484030 *  -2.87073    1.000000    
    293 O2    s    0.556858 *  0.977877 *  0.819232 *  -2.87073    1.000000    
    294 O2    s    0.013984 *  0.579402 *  0.146925 *  -2.87073    1.000000    
    295 O2    s    0.557877 *  0.582528 *  0.343606 *  -2.87073    1.000000    
    296 O2    s    0.014013 *  0.439933 *  0.008864 *  -2.87073    1.000000    
    297 O2    s    0.421992 *  0.974738 *  0.676493 *  -2.87073    1.000000    
    298 O2    s    0.435426 *  0.409861 *  0.845371 *  -2.87073    1.000000    
    299 O2    s    0.973750 *  0.560821 *  0.509305 *  -2.87073    1.000000    
    300 O2    s    0.583117 *  0.026409 *  0.179675 *  -2.87073    1.000000    
    301 O2    s    0.576122 *  0.153164 *  0.251342 *  -2.87073    1.000000    
    302 O2    s    0.842075 *  0.426376 *  0.579614 *  -2.87073    1.000000    
    303 O2    s    0.578819 *  0.423722 *  0.914548 *  -2.87073    1.000000    
    304 O2    s    0.423947 *  0.844413 *  0.748286 *  -2.87073    1.000000    
    305 O2    s    0.144539 *  0.573922 *  0.079051 *  -2.87073    1.000000    
    306 O2    s    0.419890 *  0.577253 *  0.413599 *  -2.87073    1.000000    
    307 F     s    0.450047 *  0.902629 *  0.248098 *  -1.56000    1.000000    
    308 F     s    0.094609 *  0.551774 *  0.579058 *  -1.56000    1.000000    
    309 F     s    0.447295 *  0.550979 *  0.912829 *  -1.56000    1.000000    
    310 F     s    0.595388 *  0.092566 *  0.741933 *  -1.56000    1.000000    
    311 F     s    0.844462 *  0.431577 *  0.068183 *  -1.56000    1.000000    
    312 F     s    0.547383 *  0.452171 *  0.413250 *  -1.56000    1.000000    
--------------------------------------------------------------------------------



********************************************************************************
*  General input information                                                   *
********************************************************************************

  Species output for all configurations : 

--------------------------------------------------------------------------------
  Species    Type    Atomic    Atomic    Charge       Radii (Angs)     Library
                     Number     Mass       (e)     Cova   Ionic  VDW   Symbol
--------------------------------------------------------------------------------
    Si       Core       14      28.09   4.000000   1.200  0.000  2.100          
    O1       Core        8      16.00   1.733957   0.730  0.000  1.360          
    O1       Shell       8       0.00  -3.733957   0.730  0.000  1.360          
    O2       Core        8      16.00   0.870733   0.730  0.000  1.360          
    O2       Shell       8       0.00  -2.870733   0.730  0.000  1.360          
    O3       Core        8      16.00   1.330431   0.730  0.000  1.360          
    O3       Shell       8       0.00  -3.330431   0.730  0.000  1.360          
    F        Core        9      19.00   0.560000   0.710  0.000  1.300          
    F        Shell       9       0.00  -1.560000   0.710  0.000  1.300          
    Ge       Core       32      72.61   4.000000   1.170  0.000  1.750          
--------------------------------------------------------------------------------


  Lattice summation method               =    Ewald          (3-D)
                                         =    Parry          (2-D)
                                         =    Saunders et al (1-D)
  Accuracy factor for lattice sums       =   12.000


  Time limit = Infinity

  Maximum range for interatomic potentials =        16.000000 Angstroms

  Taper potentials to zero over   1.0000 Angstroms using polynomial

  General interatomic potentials :

--------------------------------------------------------------------------------
Atom  Types   Potential         A         B         C         D     Cutoffs(Ang)
  1     2                                                            Min    Max 
--------------------------------------------------------------------------------
Si   c O1   s Buckingham    0.132E+04 0.318      10.1      0.00     0.000 16.000
Si   c O2   s Buckingham    0.132E+04 0.318      10.1      0.00     0.000 16.000
Si   c O3   s Buckingham    0.132E+04 0.318      10.1      0.00     0.000 16.000
Ge   c O1   s Buckingham    0.150E+04 0.326      16.8      0.00     0.000 16.000
Ge   c O2   s Buckingham    0.150E+04 0.326      16.8      0.00     0.000 16.000
Ge   c O3   s Buckingham    0.150E+04 0.326      16.8      0.00     0.000 16.000
O1   s O1   s Buckingham    0.228E+05 0.149      10.9      0.00     0.000 16.000
O1   s O2   s Buckingham    0.228E+05 0.149      10.9      0.00     0.000 16.000
O1   s O3   s Buckingham    0.228E+05 0.149      10.9      0.00     0.000 16.000
O2   s O2   s Buckingham    0.228E+05 0.149      10.9      0.00     0.000 16.000
O2   s O3   s Buckingham    0.228E+05 0.149      10.9      0.00     0.000 16.000
O3   s O3   s Buckingham    0.228E+05 0.149      10.9      0.00     0.000 16.000
Si   c F    s Buckingham     977.     0.282      0.00      0.00     0.000 16.000
Ge   c F    s Buckingham     681.     0.320      0.00      0.00     0.000 16.000
F    s F    s Buckingham     540.     0.262      0.00      0.00     0.000 16.000
O1   s F    s Buckingham    0.168E+04 0.268      0.00      0.00     0.000 16.000
O2   s F    s Buckingham    0.168E+04 0.268      0.00      0.00     0.000 16.000
O3   s F    s Buckingham    0.168E+04 0.268      0.00      0.00     0.000 16.000
O2   c O2   s Spring (c-s)   76.0      0.00      0.00      0.00     0.000  0.800
O3   c O3   s Spring (c-s)   128.      0.00      0.00      0.00     0.000  0.800
O1   c O1   s Spring (c-s)   180.      0.00      0.00      0.00     0.000  0.800
F    c F    s Spring (c-s)   33.5      0.00      0.00      0.00     0.000  0.800
--------------------------------------------------------------------------------

  General Three-body potentials :

  Harmonic form:

--------------------------------------------------------------------------------
Atom    Atom    Atom           Force Constants            Theta     Cutoffs  
  1       2       3     (eVrad**-2/eVrad**-3/eVrad**-4)   (deg)  1-2  1-3  2-3
--------------------------------------------------------------------------------
Si    c O1    s O1    s  1.261        0.0000    0.0000   109.470 0.00 0.00 0.00
                                                                 1.90 1.90 3.50
Si    c O1    s O2    s  1.261        0.0000    0.0000   109.470 0.00 0.00 0.00
                                                                 1.90 1.90 3.50
Si    c O2    s O2    s  1.261        0.0000    0.0000   109.470 0.00 0.00 0.00
                                                                 1.90 1.90 3.50
--------------------------------------------------------------------------------

********************************************************************************
*  Output for configuration   1                                                *
********************************************************************************


  Components of energy : 

--------------------------------------------------------------------------------
  Interatomic potentials     =        2063.05096881 eV
  Three-body potentials      =           0.47353771 eV
  Monopole - monopole (real) =       -6612.44860616 eV
  Monopole - monopole (recip)=       -3171.13575187 eV
  Monopole - monopole (total)=       -9783.58435803 eV
  Neutralising energy        =          -6.45959503 eV
--------------------------------------------------------------------------------
  Total lattice energy       =       -7726.51944654 eV
--------------------------------------------------------------------------------
  Total lattice energy       =         -745491.0159 kJ/(mole unit cells)
--------------------------------------------------------------------------------


  Number of variables =      939

  Maximum number of calculations  =          1000
  Maximum Hessian update interval =            10
  Maximum step size               =   1.000000000
  Maximum parameter tolerance     =   0.000010000
  Maximum function  tolerance     =   0.000010000
  Maximum gradient  tolerance     =   0.001000000
  Maximum gradient  component     =   0.010000000

  Symmetry not applied to optimisation

  Cell parameters to be optimised using strains

  Newton-Raphson optimiser to be used

  BFGS hessian update to be used

  Dumpfile to be written after every cycle

  Start of bulk optimisation :

  Cycle:      0 Energy:     -7726.519447  Gnorm:      0.013653  CPU:    1.049
  ** Hessian calculated **
  Cycle:      1 Energy:     -7726.519818  Gnorm:      0.003482  CPU:    2.617
  Cycle:      2 Energy:     -7726.519955  Gnorm:      0.004499  CPU:    3.991
  Cycle:      3 Energy:     -7726.520526  Gnorm:      0.010106  CPU:    6.156
  Cycle:      4 Energy:     -7726.522227  Gnorm:      0.010426  CPU:    8.517
  Cycle:      5 Energy:     -7726.524499  Gnorm:      0.008520  CPU:   10.548
  Cycle:      6 Energy:     -7726.527334  Gnorm:      0.007931  CPU:   12.580
  Cycle:      7 Energy:     -7726.530441  Gnorm:      0.010200  CPU:   14.612
  Cycle:      8 Energy:     -7726.533140  Gnorm:      0.010976  CPU:   16.314
  Cycle:      9 Energy:     -7726.535629  Gnorm:      0.015440  CPU:   18.109
  Cycle:     10 Energy:     -7726.539221  Gnorm:      0.015703  CPU:   19.483
  ** Hessian calculated **
  Cycle:     11 Energy:     -7726.540830  Gnorm:      0.008413  CPU:   21.706
  Cycle:     12 Energy:     -7726.542469  Gnorm:      0.013592  CPU:   23.405
  Cycle:     13 Energy:     -7726.544711  Gnorm:      0.013094  CPU:   24.778
  Cycle:     14 Energy:     -7726.546486  Gnorm:      0.011557  CPU:   26.152
  Cycle:     15 Energy:     -7726.547614  Gnorm:      0.008193  CPU:   27.525
  Cycle:     16 Energy:     -7726.548282  Gnorm:      0.007097  CPU:   28.899
  Cycle:     17 Energy:     -7726.548911  Gnorm:      0.008400  CPU:   30.272
  Cycle:     18 Energy:     -7726.549731  Gnorm:      0.008348  CPU:   31.646
  Cycle:     19 Energy:     -7726.550503  Gnorm:      0.009202  CPU:   33.019
  Cycle:     20 Energy:     -7726.551122  Gnorm:      0.006625  CPU:   34.537
  ** Hessian calculated **
  Cycle:     21 Energy:     -7726.555470  Gnorm:      0.006516  CPU:   38.075
  Cycle:     22 Energy:     -7726.562239  Gnorm:      0.006344  CPU:   40.595
  Cycle:     23 Energy:     -7726.570582  Gnorm:      0.006125  CPU:   42.627
  Cycle:     24 Energy:     -7726.584190  Gnorm:      0.005747  CPU:   44.987
  Cycle:     25 Energy:     -7726.600541  Gnorm:      0.005258  CPU:   47.018
  Cycle:     26 Energy:     -7726.625344  Gnorm:      0.004414  CPU:   49.384
  Cycle:     27 Energy:     -7726.650983  Gnorm:      0.003353  CPU:   51.416
  Cycle:     28 Energy:     -7726.674514  Gnorm:      0.002066  CPU:   53.447
  Cycle:     29 Energy:     -7726.682720  Gnorm:      0.001055  CPU:   55.150
  Cycle:     30 Energy:     -7726.682746  Gnorm:      0.000112  CPU:   56.523
  ** Hessian calculated **
  Cycle:     31 Energy:     -7726.682746  Gnorm:      0.000064  CPU:   58.747
  Cycle:     32 Energy:     -7726.682746  Gnorm:      0.000066  CPU:   60.120
  Cycle:     33 Energy:     -7726.682746  Gnorm:      0.000057  CPU:   61.494
  Cycle:     34 Energy:     -7726.682746  Gnorm:      0.000058  CPU:   62.868
  Cycle:     35 Energy:     -7726.682746  Gnorm:      0.000044  CPU:   64.241
  Cycle:     36 Energy:     -7726.682746  Gnorm:      0.000045  CPU:   65.615
  Cycle:     37 Energy:     -7726.682746  Gnorm:      0.000059  CPU:   66.988
  Cycle:     38 Energy:     -7726.682746  Gnorm:      0.000051  CPU:   68.362
  Cycle:     39 Energy:     -7726.682746  Gnorm:      0.000052  CPU:   69.736
  Cycle:     40 Energy:     -7726.682746  Gnorm:      0.000047  CPU:   71.109
  ** Hessian calculated **
  Cycle:     41 Energy:     -7726.682747  Gnorm:      0.000046  CPU:   73.333
  Cycle:     42 Energy:     -7726.682747  Gnorm:      0.000045  CPU:   74.706
  Cycle:     43 Energy:     -7726.682747  Gnorm:      0.000043  CPU:   76.080
  Cycle:     44 Energy:     -7726.682747  Gnorm:      0.000040  CPU:   77.453


  **** Optimisation achieved ****


  Final energy =   -7726.68274690 eV
  Final Gnorm  =       0.00003558

  Components of energy : 

--------------------------------------------------------------------------------
  Interatomic potentials     =        2063.49964819 eV
  Three-body potentials      =           0.47786390 eV
  Monopole - monopole (real) =       -6614.39104794 eV
  Monopole - monopole (recip)=       -3169.81230805 eV
  Monopole - monopole (total)=       -9784.20335599 eV
  Neutralising energy        =          -6.45690300 eV
--------------------------------------------------------------------------------
  Total lattice energy       =       -7726.68274690 eV
--------------------------------------------------------------------------------
  Total lattice energy       =         -745506.7719 kJ/(mole unit cells)
--------------------------------------------------------------------------------

  Final fractional coordinates of atoms :

--------------------------------------------------------------------------------
   No.  Atomic        x           y          z          Radius
        Label       (Frac)      (Frac)     (Frac)       (Angs) 
--------------------------------------------------------------------------------
     1  Ge    c     0.699600    0.375700    0.033890    0.000000
     2  Si    c     0.589240    0.308026    0.363440    0.000000
     3  Si    c     0.658137    0.287062    0.694341    0.000000
     4  Si    c     0.262944    0.602945    0.529077    0.000000
     5  Si    c     0.355888    0.660524    0.863304    0.000000
     6  Si    c     0.293593    0.689085    0.197015    0.000000
     7  Si    c     0.346307    0.684434    0.297456    0.000000
     8  Si    c     0.307756    0.611702    0.963892    0.000000
     9  Si    c     0.261809    0.656145    0.629508    0.000000
    10  Si    c     0.604784    0.285242    0.796890    0.000000
    11  Si    c     0.644073    0.365396    0.463704    0.000000
    12  Si    c     0.663391    0.304462    0.131751    0.000000
    13  Si    c     0.522708    0.410444    0.965911    0.000000
    14  Si    c     0.551801    0.094795    0.300477    0.000000
    15  Si    c     0.856079    0.461289    0.629310    0.000000
    16  Si    c     0.435499    0.566247    0.463429    0.000000
    17  Si    c     0.395080    0.868627    0.798300    0.000000
    18  Si    c     0.085359    0.516103    0.130450    0.000000
    19  Si    c     0.383509    0.511623    0.361790    0.000000
    20  Si    c     0.092297    0.571362    0.027510    0.000000
    21  Si    c     0.445329    0.861914    0.694564    0.000000
    22  Si    c     0.562342    0.454149    0.863148    0.000000
    23  Si    c     0.855590    0.404863    0.528214    0.000000
    24  Si    c     0.499933    0.097254    0.199052    0.000000
    25  Si    c     0.280488    0.383872    0.849784    0.000000
    26  Si    c     0.571784    0.889667    0.183138    0.000000
    27  Si    c     0.063926    0.682931    0.514001    0.000000
    28  Si    c     0.665103    0.583489    0.348093    0.000000
    29  Si    c     0.375597    0.076467    0.679403    0.000000
    30  Si    c     0.881458    0.284872    0.010660    0.000000
    31  Si    c     0.364368    0.286770    0.477659    0.000000
    32  Si    c     0.870024    0.588140    0.143388    0.000000
    33  Si    c     0.680234    0.082009    0.817136    0.000000
    34  Si    c     0.588412    0.691974    0.976871    0.000000
    35  Si    c     0.059387    0.380309    0.644890    0.000000
    36  Si    c     0.270239    0.886184    0.313408    0.000000
    37  Si    c     0.240944    0.333504    0.950630    0.000000
    38  Si    c     0.628155    0.893198    0.283738    0.000000
    39  Si    c     0.058408    0.736987    0.614415    0.000000
    40  Si    c     0.716010    0.645085    0.448664    0.000000
    41  Si    c     0.318603    0.071432    0.781356    0.000000
    42  Si    c     0.881345    0.236038    0.113943    0.000000
    43  Si    c     0.306842    0.234596    0.376921    0.000000
    44  Si    c     0.890533    0.656173    0.041268    0.000000
    45  Ge    c     0.709131    0.072495    0.717041    0.000000
    46  Si    c     0.637167    0.731772    0.875625    0.000000
    47  Si    c     0.054368    0.323514    0.543899    0.000000
    48  Si    c     0.220742    0.896252    0.212825    0.000000
    49  Si    c     0.967104    0.112015    0.965499    0.000000
    50  Si    c     0.845646    0.829465    0.298037    0.000000
    51  Si    c     0.124677    0.017111    0.630435    0.000000
    52  Si    c     0.996273    0.863318    0.464194    0.000000
    53  Si    c     0.103722    0.140295    0.795837    0.000000
    54  Si    c     0.820420    0.958469    0.132136    0.000000
    55  Si    c     0.089759    0.954745    0.363491    0.000000
    56  Si    c     0.834561    0.874927    0.030808    0.000000
    57  Si    c     0.996693    0.134739    0.696438    0.000000
    58  Ge    c     0.860470    0.011895    0.864729    0.000000
    59  Si    c     0.118650    0.106872    0.529426    0.000000
    60  Si    c     0.940424    0.835127    0.196718    0.000000
    61  O2    c     0.921013    0.003289    0.003395    0.000000
    62  O2    c     0.967763    0.909599    0.330515    0.000000
    63  O2    c     0.049469    0.063137    0.663090    0.000000
    64  O2    c     0.037293    0.983254    0.497632    0.000000
    65  O3    c     0.983906    0.055739    0.827068    0.000000
    66  O2    c     0.901273    0.920014    0.165809    0.000000
    67  O2    c     0.307130    0.560793    0.329149    0.000000
    68  O2    c     0.383441    0.734021    0.663365    0.000000
    69  O2    c     0.220986    0.647991    0.997088    0.000000
    70  O2    c     0.638075    0.405630    0.829726    0.000000
    71  O2    c     0.551867    0.225285    0.168806    0.000000
    72  O2    c     0.728922    0.327184    0.496157    0.000000
    73  O3    c     0.565842    0.335002    0.997810    0.000000
    74  O2    c     0.730503    0.412667    0.661918    0.000000
    75  O2    c     0.628849    0.220708    0.332401    0.000000
    76  O2    c     0.385860    0.641606    0.496077    0.000000
    77  O2    c     0.208856    0.566297    0.163753    0.000000
    78  O2    c     0.316648    0.744714    0.830493    0.000000
    79  O2    c     0.120316    0.206344    0.972339    0.000000
    80  O2    c     0.754486    0.892730    0.303785    0.000000
    81  O2    c     0.059364    0.863124    0.634828    0.000000
    82  O2    c     0.841465    0.772327    0.468657    0.000000
    83  O2    c     0.196882    0.078093    0.801156    0.000000
    84  O2    c     0.882416    0.112544    0.135292    0.000000
    85  O2    c     0.180316    0.107826    0.356986    0.000000
    86  O2    c     0.907453    0.792946    0.025643    0.000000
    87  O3    c     0.846459    0.065544    0.695055    0.000000
    88  O3    c     0.762173    0.850263    0.854211    0.000000
    89  O2    c     0.053517    0.196313    0.524185    0.000000
    90  O2    c     0.094984    0.897674    0.192463    0.000000
    91  O2    c     0.897311    0.841263    0.247379    0.000000
    92  O2    c     0.113112    0.058537    0.579996    0.000000
    93  O3    c     0.931704    0.043581    0.917425    0.000000
    94  O2    c     0.058913    0.135350    0.744894    0.000000
    95  O2    c     0.831508    0.913348    0.082493    0.000000
    96  O2    c     0.037225    0.918779    0.414066    0.000000
    97  O2    c     0.896592    0.195934    0.972557    0.000000
    98  O2    c     0.763653    0.678774    0.309774    0.000000
    99  O2    c     0.277452    0.079125    0.642011    0.000000
   100  O2    c     0.065454    0.780551    0.475588    0.000000
   101  O2    c     0.182115    0.289025    0.811285    0.000000
   102  O2    c     0.668981    0.889747    0.144608    0.000000
   103  O2    c     0.172521    0.884923    0.351990    0.000000
   104  O2    c     0.686299    0.793684    0.014370    0.000000
   105  O2    c     0.058773    0.285655    0.683376    0.000000
   106  O3    c     0.765871    0.083044    0.859824    0.000000
   107  O2    c     0.269248    0.189345    0.515894    0.000000
   108  O2    c     0.871477    0.685790    0.181907    0.000000
   109  O2    c     0.291994    0.629246    0.246580    0.000000
   110  O2    c     0.321353    0.659781    0.579283    0.000000
   111  O2    c     0.300114    0.664286    0.913626    0.000000
   112  O2    c     0.657145    0.337247    0.746252    0.000000
   113  O3    c     0.602223    0.298706    0.083598    0.000000
   114  O2    c     0.646497    0.308969    0.413565    0.000000
   115  O2    c     0.365053    0.326123    0.967133    0.000000
   116  O2    c     0.639076    0.025381    0.302545    0.000000
   117  O2    c     0.924249    0.616692    0.632056    0.000000
   118  O2    c     0.592054    0.654414    0.466180    0.000000
   119  O2    c     0.310262    0.940775    0.799409    0.000000
   120  O2    c     0.012498    0.360914    0.131931    0.000000
   121  O2    c     0.296161    0.355970    0.358242    0.000000
   122  O2    c     0.023873    0.658852    0.026437    0.000000
   123  O3    c     0.597390    0.923452    0.690807    0.000000
   124  O2    c     0.645563    0.608295    0.857937    0.000000
   125  O2    c     0.923384    0.316354    0.524710    0.000000
   126  O2    c     0.343239    0.027658    0.194656    0.000000
   127  O3    c     0.748943    0.279709    0.001597    0.000000
   128  O2    c     0.664368    0.449287    0.340303    0.000000
   129  O2    c     0.510663    0.209017    0.674451    0.000000
   130  O2    c     0.196306    0.678943    0.506080    0.000000
   131  O2    c     0.281193    0.517502    0.840968    0.000000
   132  O2    c     0.436539    0.757602    0.174253    0.000000
   133  O2    c     0.269804    0.752026    0.319512    0.000000
   134  O2    c     0.452856    0.691062    0.985024    0.000000
   135  O2    c     0.194380    0.513717    0.651030    0.000000
   136  O2    c     0.678872    0.216928    0.819264    0.000000
   137  O2    c     0.500061    0.289363    0.485329    0.000000
   138  O2    c     0.738389    0.453475    0.150691    0.000000
   139  O3    c     0.766951    0.543149    0.018548    0.000000
   140  O2    c     0.432678    0.232906    0.357531    0.000000
   141  O3    c     0.739494    0.215374    0.688799    0.000000
   142  O2    c     0.182043    0.447246    0.524666    0.000000
   143  O2    c     0.511809    0.736013    0.856875    0.000000
   144  O2    c     0.216481    0.768496    0.192710    0.000000
   145  O2    c     0.502427    0.767558    0.302703    0.000000
   146  O2    c     0.236227    0.457201    0.970316    0.000000
   147  O2    c     0.183164    0.734246    0.634395    0.000000
   148  O2    c     0.450097    0.193474    0.798554    0.000000
   149  O2    c     0.716518    0.520735    0.468628    0.000000
   150  O2    c     0.756884    0.240417    0.132492    0.000000
   151  O2    c     0.211014    0.313294    0.896573    0.000000
   152  O2    c     0.645549    0.891430    0.229427    0.000000
   153  O2    c     0.061349    0.755746    0.560106    0.000000
   154  O2    c     0.735643    0.659477    0.394344    0.000000
   155  O2    c     0.306924    0.069283    0.727160    0.000000
   156  O2    c     0.883853    0.222324    0.059658    0.000000
   157  O2    c     0.289811    0.216644    0.431133    0.000000
   158  O2    c     0.875596    0.657544    0.096384    0.000000
   159  O3    c     0.759368    0.074518    0.774498    0.000000
   160  O2    c     0.659627    0.759246    0.929888    0.000000
   161  O2    c     0.052836    0.305959    0.598036    0.000000
   162  O2    c     0.201328    0.893959    0.267075    0.000000
   163  O2    c     0.574973    0.554622    0.986345    0.000000
   164  O2    c     0.410583    0.008968    0.323143    0.000000
   165  O2    c     0.939526    0.404439    0.652735    0.000000
   166  O2    c     0.378802    0.425924    0.486141    0.000000
   167  O2    c     0.535234    0.959213    0.821285    0.000000
   168  O2    c     0.992868    0.567706    0.149702    0.000000
   169  O2    c     0.525232    0.569612    0.338753    0.000000
   170  O2    c     0.002643    0.430687    0.005726    0.000000
   171  O2    c     0.394915    0.954311    0.672431    0.000000
   172  O2    c     0.418075    0.391528    0.841529    0.000000
   173  O2    c     0.937332    0.544859    0.504798    0.000000
   174  O2    c     0.559899    0.016268    0.175130    0.000000
   175  O2    c     0.550553    0.147789    0.250096    0.000000
   176  O2    c     0.801836    0.406228    0.578707    0.000000
   177  O2    c     0.571200    0.409753    0.913968    0.000000
   178  O2    c     0.397326    0.819925    0.747093    0.000000
   179  O2    c     0.134163    0.564257    0.079447    0.000000
   180  O2    c     0.381998    0.564825    0.412477    0.000000
   181  F     c     0.419883    0.886896    0.246943    0.000000
   182  F     c     0.063085    0.535473    0.577746    0.000000
   183  F     c     0.431946    0.540550    0.912125    0.000000
   184  F     c     0.563368    0.076041    0.742258    0.000000
   185  F     c     0.843354    0.428565    0.070572    0.000000
   186  F     c     0.514837    0.435511    0.411771    0.000000
   187  O2    s     0.916174    0.000632    0.002325    0.000000
   188  O2    s     0.967677    0.905627    0.330549    0.000000
   189  O2    s     0.052700    0.065278    0.662777    0.000000
   190  O2    s     0.041726    0.983581    0.497425    0.000000
   191  O3    s     0.986119    0.061121    0.826978    0.000000
   192  O2    s     0.896679    0.914867    0.165514    0.000000
   193  O2    s     0.318955    0.568606    0.329171    0.000000
   194  O2    s     0.377207    0.739399    0.663105    0.000000
   195  O2    s     0.216162    0.636309    0.996955    0.000000
   196  O2    s     0.626802    0.397712    0.829615    0.000000
   197  O2    s     0.557995    0.220088    0.168119    0.000000
   198  O2    s     0.733099    0.339200    0.496056    0.000000
   199  O3    s     0.570604    0.346229    0.996869    0.000000
   200  O2    s     0.735934    0.405069    0.661877    0.000000
   201  O2    s     0.616750    0.216453    0.332235    0.000000
   202  O2    s     0.378498    0.629772    0.496045    0.000000
   203  O2    s     0.204265    0.573313    0.163571    0.000000
   204  O2    s     0.328684    0.749114    0.830458    0.000000
   205  O2    s     0.116276    0.209287    0.969403    0.000000
   206  O2    s     0.750984    0.886040    0.301100    0.000000
   207  O2    s     0.066170    0.866238    0.632264    0.000000
   208  O2    s     0.844836    0.768777    0.466140    0.000000
   209  O2    s     0.200818    0.083745    0.798439    0.000000
   210  O2    s     0.875788    0.109197    0.132759    0.000000
   211  O2    s     0.183735    0.104675    0.359689    0.000000
   212  O2    s     0.897935    0.787574    0.027793    0.000000
   213  O3    s     0.854527    0.073870    0.696636    0.000000
   214  O3    s     0.757657    0.851584    0.857206    0.000000
   215  O2    s     0.060489    0.199869    0.526730    0.000000
   216  O2    s     0.091467    0.890821    0.195006    0.000000
   217  O2    s     0.896397    0.839241    0.247325    0.000000
   218  O2    s     0.115030    0.059396    0.579875    0.000000
   219  O3    s     0.929458    0.048183    0.918106    0.000000
   220  O2    s     0.057395    0.135835    0.745592    0.000000
   221  O2    s     0.830576    0.914289    0.082433    0.000000
   222  O2    s     0.038592    0.916656    0.413934    0.000000
   223  O2    s     0.902484    0.196379    0.975772    0.000000
   224  O2    s     0.762388    0.685156    0.312412    0.000000
   225  O2    s     0.271971    0.072449    0.644713    0.000000
   226  O2    s     0.057928    0.779525    0.478246    0.000000
   227  O2    s     0.184059    0.283115    0.813688    0.000000
   228  O2    s     0.675130    0.897077    0.147252    0.000000
   229  O2    s     0.173833    0.892417    0.349235    0.000000
   230  O2    s     0.692275    0.792048    0.012301    0.000000
   231  O2    s     0.052625    0.280678    0.680553    0.000000
   232  O3    s     0.765437    0.077330    0.856264    0.000000
   233  O2    s     0.263075    0.190679    0.513357    0.000000
   234  O2    s     0.878635    0.691495    0.179476    0.000000
   235  O2    s     0.297658    0.640982    0.246630    0.000000
   236  O2    s     0.309353    0.653613    0.579209    0.000000
   237  O2    s     0.306477    0.658598    0.913630    0.000000
   238  O2    s     0.651825    0.326939    0.746456    0.000000
   239  O3    s     0.614866    0.304214    0.085502    0.000000
   240  O2    s     0.640292    0.314701    0.413509    0.000000
   241  O2    s     0.367014    0.335461    0.965137    0.000000
   242  O2    s     0.628935    0.018679    0.300350    0.000000
   243  O2    s     0.931243    0.613230    0.629911    0.000000
   244  O2    s     0.588957    0.644364    0.464042    0.000000
   245  O2    s     0.319787    0.947209    0.797388    0.000000
   246  O2    s     0.006555    0.364207    0.129916    0.000000
   247  O2    s     0.306197    0.359288    0.360548    0.000000
   248  O2    s     0.017649    0.649422    0.028051    0.000000
   249  O3    s     0.589308    0.927403    0.693042    0.000000
   250  O2    s     0.635802    0.604951    0.860369    0.000000
   251  O2    s     0.930141    0.326212    0.527083    0.000000
   252  O2    s     0.346480    0.021026    0.197014    0.000000
   253  O3    s     0.760011    0.286580    0.004764    0.000000
   254  O2    s     0.656752    0.448867    0.343511    0.000000
   255  O2    s     0.511010    0.202633    0.677002    0.000000
   256  O2    s     0.189107    0.671590    0.509300    0.000000
   257  O2    s     0.288853    0.518377    0.844238    0.000000
   258  O2    s     0.435914    0.764317    0.177551    0.000000
   259  O2    s     0.277721    0.759185    0.316560    0.000000
   260  O2    s     0.451750    0.682991    0.981981    0.000000
   261  O2    s     0.187216    0.514592    0.648083    0.000000
   262  O2    s     0.671233    0.210407    0.816650    0.000000
   263  O2    s     0.500594    0.296963    0.482242    0.000000
   264  O2    s     0.745195    0.453488    0.148065    0.000000
   265  O3    s     0.776312    0.544806    0.021967    0.000000
   266  O2    s     0.435289    0.240922    0.360186    0.000000
   267  O3    s     0.728842    0.212391    0.691368    0.000000
   268  O2    s     0.176603    0.450067    0.527165    0.000000
   269  O2    s     0.508918    0.727643    0.859509    0.000000
   270  O2    s     0.225002    0.773889    0.195273    0.000000
   271  O2    s     0.499698    0.772584    0.300117    0.000000
   272  O2    s     0.244217    0.460159    0.967590    0.000000
   273  O2    s     0.177757    0.726428    0.631759    0.000000
   274  O2    s     0.452189    0.189749    0.796475    0.000000
   275  O2    s     0.708815    0.518097    0.465970    0.000000
   276  O2    s     0.761349    0.246399    0.130376    0.000000
   277  O2    s     0.221209    0.322691    0.897275    0.000000
   278  O2    s     0.635926    0.891425    0.230293    0.000000
   279  O2    s     0.061305    0.746163    0.561029    0.000000
   280  O2    s     0.726177    0.649992    0.395222    0.000000
   281  O2    s     0.315541    0.070260    0.727985    0.000000
   282  O2    s     0.883348    0.229920    0.060690    0.000000
   283  O2    s     0.299439    0.225912    0.430229    0.000000
   284  O2    s     0.876418    0.649785    0.096037    0.000000
   285  O3    s     0.748283    0.075068    0.774886    0.000000
   286  O2    s     0.649972    0.749564    0.929239    0.000000
   287  O2    s     0.053669    0.315586    0.597084    0.000000
   288  O2    s     0.210579    0.893402    0.266142    0.000000
   289  O2    s     0.570934    0.555307    0.983212    0.000000
   290  O2    s     0.410243    0.004530    0.319709    0.000000
   291  O2    s     0.943912    0.408104    0.649378    0.000000
   292  O2    s     0.383355    0.425533    0.482826    0.000000
   293  O2    s     0.535350    0.962423    0.818407    0.000000
   294  O2    s     0.989488    0.564253    0.146952    0.000000
   295  O2    s     0.525501    0.564900    0.342152    0.000000
   296  O2    s     0.999857    0.431092    0.008579    0.000000
   297  O2    s     0.397931    0.958766    0.675371    0.000000
   298  O2    s     0.418362    0.397314    0.844665    0.000000
   299  O2    s     0.942594    0.545135    0.508217    0.000000
   300  O2    s     0.554786    0.010983    0.178474    0.000000
   301  O2    s     0.545283    0.136845    0.249959    0.000000
   302  O2    s     0.813074    0.411810    0.578696    0.000000
   303  O2    s     0.565488    0.414589    0.913669    0.000000
   304  O2    s     0.401810    0.829165    0.747344    0.000000
   305  O2    s     0.124719    0.559890    0.079523    0.000000
   306  O2    s     0.387657    0.559437    0.412449    0.000000
   307  F     s     0.419575    0.886405    0.246784    0.000000
   308  F     s     0.063549    0.535947    0.577598    0.000000
   309  F     s     0.431374    0.541182    0.911952    0.000000
   310  F     s     0.572602    0.076049    0.740762    0.000000
   311  F     s     0.832475    0.424684    0.067873    0.000000
   312  F     s     0.515068    0.435251    0.411640    0.000000
--------------------------------------------------------------------------------

  Final Cartesian lattice vectors (Angstroms) :

       11.917501    0.007654    0.000348
       -5.974444   10.415672    0.004419
       -0.014005   -0.240579   29.491647


  Final cell parameters and derivatives :

--------------------------------------------------------------------------------
       a           11.917503 Angstrom     dE/de1(xx)     0.000809 eV/strain
       b           12.007507 Angstrom     dE/de2(yy)     0.000111 eV/strain
       c           29.492632 Angstrom     dE/de3(zz)    -0.000286 eV/strain
       alpha       90.370797 Degrees      dE/de4(yz)     0.000175 eV/strain
       beta        90.025832 Degrees      dE/de5(xz)     0.000787 eV/strain
       gamma      119.801842 Degrees      dE/de6(xy)     0.000113 eV/strain
--------------------------------------------------------------------------------

  Primitive cell volume =          3662.124030 Angs**3

  Density of cell =      1.747099 g/cm**3

  Non-primitive cell volume =          3662.124030 Angs**3


  Final internal derivatives :

--------------------------------------------------------------------------------
   No.  Atomic          a             b             c           Radius
        Label          (eV)          (eV)          (eV)        (eV/Angs)
--------------------------------------------------------------------------------
      1 Ge    c       0.000000      0.000000      0.000000      0.000000
      2 Si    c      -0.000006      0.000120      0.000366      0.000000
      3 Si    c      -0.000588      0.000532      0.001128      0.000000
      4 Si    c       0.001161     -0.000453     -0.000727      0.000000
      5 Si    c      -0.000126      0.000438     -0.000032      0.000000
      6 Si    c      -0.000681      0.000420      0.000432      0.000000
      7 Si    c      -0.000775      0.000035     -0.000675      0.000000
      8 Si    c      -0.000551      0.000195     -0.000539      0.000000
      9 Si    c       0.000987     -0.000279      0.000884      0.000000
     10 Si    c      -0.000290      0.000426      0.000310      0.000000
     11 Si    c      -0.000436      0.000017      0.000664      0.000000
     12 Si    c       0.000541     -0.000611     -0.000870      0.000000
     13 Si    c       0.000550      0.000324     -0.001750      0.000000
     14 Si    c       0.000301     -0.000977     -0.001450      0.000000
     15 Si    c      -0.000968      0.000304      0.000227      0.000000
     16 Si    c      -0.000027     -0.000240      0.000349      0.000000
     17 Si    c       0.000571     -0.000984      0.001209      0.000000
     18 Si    c      -0.000631      0.001207     -0.000682      0.000000
     19 Si    c      -0.000232      0.000288     -0.000205      0.000000
     20 Si    c       0.002850     -0.001115     -0.000280      0.000000
     21 Si    c       0.000486     -0.000912     -0.000110      0.000000
     22 Si    c       0.000548      0.000196      0.001200      0.000000
     23 Si    c      -0.000653      0.000370     -0.001248      0.000000
     24 Si    c       0.000937     -0.001326     -0.000617      0.000000
     25 Si    c      -0.000746      0.000684      0.000325      0.000000
     26 Si    c      -0.000576      0.000950      0.001531      0.000000
     27 Si    c      -0.000408      0.000819     -0.001696      0.000000
     28 Si    c       0.000233      0.000309     -0.000277      0.000000
     29 Si    c      -0.000197      0.000661     -0.000884      0.000000
     30 Si    c      -0.001149      0.000213      0.000191      0.000000
     31 Si    c      -0.000272      0.000219      0.000233      0.000000
     32 Si    c      -0.002218     -0.001511     -0.000619      0.000000
     33 Si    c       0.000600     -0.001062      0.000400      0.000000
     34 Si    c      -0.000140      0.000034     -0.001415      0.000000
     35 Si    c       0.000647     -0.000675      0.000406      0.000000
     36 Si    c      -0.000475     -0.000656     -0.000334      0.000000
     37 Si    c      -0.001928      0.001075     -0.000362      0.000000
     38 Si    c      -0.000838      0.000308     -0.001582      0.000000
     39 Si    c      -0.001040      0.001047      0.000966      0.000000
     40 Si    c       0.000097     -0.000115      0.000266      0.000000
     41 Si    c      -0.000349     -0.000205      0.000701      0.000000
     42 Si    c      -0.000223     -0.001597      0.002428      0.000000
     43 Si    c       0.000033      0.000373      0.000534      0.000000
     44 Si    c      -0.000967     -0.001381      0.003708      0.000000
     45 Ge    c       0.000977     -0.000716      0.001248      0.000000
     46 Si    c      -0.000818      0.001016     -0.000435      0.000000
     47 Si    c       0.000944     -0.001049     -0.000922      0.000000
     48 Si    c      -0.000012     -0.000789      0.000589      0.000000
     49 Si    c      -0.001110      0.000746     -0.000633      0.000000
     50 Si    c      -0.000568      0.000468      0.000288      0.000000
     51 Si    c      -0.000339      0.000709     -0.000500      0.000000
     52 Si    c      -0.000489     -0.000104      0.001409      0.000000
     53 Si    c      -0.000640      0.000686     -0.000961      0.000000
     54 Si    c       0.000354      0.000738      0.000888      0.000000
     55 Si    c      -0.000291      0.000045      0.000123      0.000000
     56 Si    c      -0.000006      0.000281      0.000428      0.000000
     57 Si    c      -0.000144     -0.000188      0.001079      0.000000
     58 Ge    c      -0.001385      0.000864      0.000267      0.000000
     59 Si    c      -0.000212      0.000354      0.000926      0.000000
     60 Si    c       0.000410     -0.001020     -0.000344      0.000000
     61 O2    c      -0.001032      0.000448      0.002560      0.000000
     62 O2    c      -0.000376     -0.000121     -0.000182      0.000000
     63 O2    c       0.000236     -0.000124     -0.000424      0.000000
     64 O2    c      -0.000171      0.000194     -0.000778      0.000000
     65 O3    c      -0.001365      0.000877     -0.000030      0.000000
     66 O2    c      -0.000455      0.000156      0.001864      0.000000
     67 O2    c      -0.000126     -0.000155      0.000466      0.000000
     68 O2    c       0.000752     -0.000234      0.000265      0.000000
     69 O2    c       0.000052     -0.001098     -0.001536      0.000000
     70 O2    c       0.000122      0.000046     -0.001674      0.000000
     71 O2    c      -0.000676      0.001700      0.006073      0.000000
     72 O2    c      -0.000244      0.000143      0.000156      0.000000
     73 O3    c      -0.001078      0.000480      0.007235      0.000000
     74 O2    c      -0.000216      0.000470     -0.000516      0.000000
     75 O2    c       0.000126     -0.000488     -0.000232      0.000000
     76 O2    c       0.000263     -0.000558     -0.000774      0.000000
     77 O2    c      -0.000343      0.000304     -0.001191      0.000000
     78 O2    c       0.000393     -0.000726      0.000313      0.000000
     79 O2    c      -0.000562      0.000591     -0.000050      0.000000
     80 O2    c      -0.000300     -0.000035      0.000102      0.000000
     81 O2    c      -0.000545     -0.000817      0.000279      0.000000
     82 O2    c       0.000354     -0.000049      0.000501      0.000000
     83 O2    c      -0.000023     -0.000321      0.000329      0.000000
     84 O2    c      -0.000251     -0.000883     -0.001658      0.000000
     85 O2    c      -0.000189      0.000192     -0.000328      0.000000
     86 O2    c       0.000300     -0.000406     -0.002667      0.000000
     87 O3    c      -0.000277     -0.000402     -0.000206      0.000000
     88 O3    c      -0.001005      0.000782     -0.001255      0.000000
     89 O2    c       0.000209      0.000139      0.000695      0.000000
     90 O2    c       0.000319     -0.000454      0.000310      0.000000
     91 O2    c      -0.000401      0.000169      0.000578      0.000000
     92 O2    c      -0.000137      0.000009      0.000147      0.000000
     93 O3    c      -0.001133      0.001209     -0.000294      0.000000
     94 O2    c      -0.000519      0.000255      0.000008      0.000000
     95 O2    c       0.000111     -0.000629     -0.000557      0.000000
     96 O2    c      -0.000122      0.000075     -0.000652      0.000000
     97 O2    c       0.000140     -0.000886     -0.000250      0.000000
     98 O2    c      -0.000080     -0.000143     -0.000195      0.000000
     99 O2    c       0.000263      0.000326     -0.000212      0.000000
    100 O2    c      -0.000003      0.000046     -0.000663      0.000000
    101 O2    c      -0.000917      0.000658      0.000804      0.000000
    102 O2    c       0.001014     -0.000039     -0.001174      0.000000
    103 O2    c      -0.000228     -0.000110      0.000824      0.000000
    104 O2    c       0.000082      0.000766      0.000578      0.000000
    105 O2    c       0.000038      0.000013      0.000134      0.000000
    106 O3    c       0.000673     -0.000319      0.000668      0.000000
    107 O2    c      -0.000201      0.000272      0.000177      0.000000
    108 O2    c       0.000395      0.000519     -0.000563      0.000000
    109 O2    c       0.000049     -0.000315     -0.000035      0.000000
    110 O2    c       0.000707     -0.000620     -0.000513      0.000000
    111 O2    c      -0.000334     -0.000026     -0.001051      0.000000
    112 O2    c      -0.000139      0.000409     -0.000556      0.000000
    113 O3    c       0.002458     -0.001896     -0.005098      0.000000
    114 O2    c      -0.000224      0.000049     -0.000339      0.000000
    115 O2    c      -0.000436      0.000153     -0.000451      0.000000
    116 O2    c      -0.000394      0.000187     -0.000567      0.000000
    117 O2    c      -0.000779      0.000210     -0.000115      0.000000
    118 O2    c       0.000114      0.000086      0.000279      0.000000
    119 O2    c      -0.000159     -0.000019      0.000326      0.000000
    120 O2    c       0.000419     -0.000560     -0.003900      0.000000
    121 O2    c       0.000011     -0.000141      0.000019      0.000000
    122 O2    c       0.001563      0.000335     -0.000142      0.000000
    123 O3    c       0.000192     -0.000560      0.000160      0.000000
    124 O2    c       0.000268     -0.000039     -0.001849      0.000000
    125 O2    c       0.000047     -0.000370     -0.000627      0.000000
    126 O2    c      -0.000077     -0.001175     -0.000045      0.000000
    127 O3    c       0.003168      0.000921     -0.005397      0.000000
    128 O2    c      -0.000099      0.000027      0.000370      0.000000
    129 O2    c      -0.000066      0.000589      0.000419      0.000000
    130 O2    c      -0.000240      0.000285     -0.000486      0.000000
    131 O2    c      -0.000643      0.000521      0.000465      0.000000
    132 O2    c       0.000192     -0.000147     -0.000526      0.000000
    133 O2    c      -0.000069     -0.000087     -0.000509      0.000000
    134 O2    c      -0.000383     -0.000193     -0.000718      0.000000
    135 O2    c       0.000617     -0.000647      0.000388      0.000000
    136 O2    c       0.000525     -0.000184      0.000440      0.000000
    137 O2    c      -0.000022      0.000226     -0.000455      0.000000
    138 O2    c       0.000969      0.001000      0.004875      0.000000
    139 O3    c      -0.000497     -0.001885      0.001372      0.000000
    140 O2    c      -0.000449      0.000173     -0.000179      0.000000
    141 O3    c       0.000319      0.000054      0.000964      0.000000
    142 O2    c       0.000901     -0.000129      0.000213      0.000000
    143 O2    c      -0.000168      0.000742      0.001141      0.000000
    144 O2    c       0.000153     -0.000486      0.000013      0.000000
    145 O2    c       0.000244     -0.000138     -0.000170      0.000000
    146 O2    c      -0.000424     -0.000313      0.000558      0.000000
    147 O2    c      -0.000436      0.000359      0.000578      0.000000
    148 O2    c       0.000513      0.000477     -0.000124      0.000000
    149 O2    c      -0.000360     -0.000392      0.000322      0.000000
    150 O2    c       0.001005      0.000704      0.001746      0.000000
    151 O2    c      -0.000558      0.000781     -0.000342      0.000000
    152 O2    c      -0.000414      0.000678     -0.000317      0.000000
    153 O2    c      -0.000512      0.000511     -0.000315      0.000000
    154 O2    c       0.000163     -0.000072     -0.000845      0.000000
    155 O2    c      -0.000213      0.000391     -0.002026      0.000000
    156 O2    c       0.000370     -0.000049     -0.001262      0.000000
    157 O2    c      -0.000509      0.000056     -0.000188      0.000000
    158 O2    c       0.000181      0.001252      0.000345      0.000000
    159 O3    c       0.000421     -0.000427      0.001207      0.000000
    160 O2    c      -0.001325      0.000839     -0.000071      0.000000
    161 O2    c       0.000472     -0.000664      0.001521      0.000000
    162 O2    c       0.000222     -0.000440     -0.001419      0.000000
    163 O2    c       0.000639      0.001264      0.000240      0.000000
    164 O2    c       0.000473     -0.000043     -0.000187      0.000000
    165 O2    c       0.000012     -0.000161     -0.000139      0.000000
    166 O2    c      -0.000234      0.000169     -0.000143      0.000000
    167 O2    c       0.000434     -0.000673     -0.000258      0.000000
    168 O2    c       0.001498     -0.000670     -0.000036      0.000000
    169 O2    c      -0.000291     -0.000046      0.000889      0.000000
    170 O2    c       0.000067     -0.000653     -0.001999      0.000000
    171 O2    c       0.000158      0.000297     -0.001153      0.000000
    172 O2    c       0.000367     -0.000130     -0.000281      0.000000
    173 O2    c      -0.000583      0.000315     -0.000691      0.000000
    174 O2    c       0.000264     -0.000099      0.001791      0.000000
    175 O2    c       0.000950     -0.000852      0.001294      0.000000
    176 O2    c      -0.000663      0.000516      0.000736      0.000000
    177 O2    c       0.000561      0.000603     -0.000648      0.000000
    178 O2    c       0.000476     -0.000114      0.000243      0.000000
    179 O2    c      -0.000161     -0.000668      0.001875      0.000000
    180 O2    c       0.000246     -0.000202     -0.000327      0.000000
    181 F     c       0.000105     -0.000008      0.000304      0.000000
    182 F     c       0.000086      0.000060      0.000327      0.000000
    183 F     c       0.000134      0.000107      0.001360      0.000000
    184 F     c      -0.000086     -0.000009     -0.000284      0.000000
    185 F     c      -0.001362     -0.000274     -0.001512      0.000000
    186 F     c       0.000017      0.000072      0.000208      0.000000
    187 O2    s       0.000437     -0.001140     -0.001674      0.000000
    188 O2    s       0.000147      0.000420      0.000221      0.000000
    189 O2    s       0.000103     -0.000047      0.000172      0.000000
    190 O2    s      -0.000069     -0.000244      0.000438      0.000000
    191 O3    s       0.002087     -0.001694     -0.000338      0.000000
    192 O2    s       0.000729      0.000496      0.000669      0.000000
    193 O2    s      -0.000346      0.000171     -0.000782      0.000000
    194 O2    s      -0.000967      0.000397     -0.000163      0.000000
    195 O2    s      -0.001391      0.001186      0.002795      0.000000
    196 O2    s       0.000433     -0.000756      0.002195      0.000000
    197 O2    s      -0.000015     -0.001431     -0.000546      0.000000
    198 O2    s       0.000134     -0.000180     -0.000359      0.000000
    199 O3    s      -0.000687      0.000258     -0.008734      0.000000
    200 O2    s       0.000457     -0.000176      0.000015      0.000000
    201 O2    s      -0.000604      0.000799     -0.001062      0.000000
    202 O2    s      -0.000201      0.000557     -0.000230      0.000000
    203 O2    s       0.000779     -0.000661      0.000937      0.000000
    204 O2    s      -0.000511      0.000640     -0.001026      0.000000
    205 O2    s       0.001617     -0.000516      0.000608      0.000000
    206 O2    s       0.000360     -0.000198      0.000617      0.000000
    207 O2    s       0.000908      0.000319      0.000284      0.000000
    208 O2    s      -0.000433      0.000031     -0.000594      0.000000
    209 O2    s      -0.000132      0.000944      0.000233      0.000000
    210 O2    s       0.001660     -0.000091     -0.001118      0.000000
    211 O2    s       0.000202     -0.000499      0.000555      0.000000
    212 O2    s      -0.002815     -0.001843     -0.002469      0.000000
    213 O3    s      -0.000029      0.000808     -0.000994      0.000000
    214 O3    s       0.001385     -0.001697      0.001769      0.000000
    215 O2    s      -0.000649     -0.000184     -0.000673      0.000000
    216 O2    s       0.000265      0.000413      0.000053      0.000000
    217 O2    s       0.000312      0.000171      0.001027      0.000000
    218 O2    s      -0.000131     -0.000118     -0.000401      0.000000
    219 O3    s       0.001700     -0.000685     -0.000026      0.000000
    220 O2    s       0.000826     -0.000586     -0.000027      0.000000
    221 O2    s       0.001344      0.000429     -0.000662      0.000000
    222 O2    s       0.000063      0.000068     -0.000733      0.000000
    223 O2    s      -0.001518      0.000642     -0.001454      0.000000
    224 O2    s      -0.000109     -0.000197      0.001015      0.000000
    225 O2    s      -0.000333     -0.000455      0.000237      0.000000
    226 O2    s       0.000159     -0.000257      0.000372      0.000000
    227 O2    s       0.001534     -0.001236     -0.000068      0.000000
    228 O2    s      -0.000516     -0.000638     -0.001881      0.000000
    229 O2    s      -0.000072      0.000216      0.000018      0.000000
    230 O2    s       0.000593     -0.000641      0.001405      0.000000
    231 O2    s      -0.000034      0.000684     -0.000849      0.000000
    232 O3    s      -0.000194      0.000394     -0.000883      0.000000
    233 O2    s       0.000630     -0.000205     -0.000412      0.000000
    234 O2    s       0.000290      0.000659      0.000548      0.000000
    235 O2    s      -0.000543     -0.000330     -0.000159      0.000000
    236 O2    s      -0.001157      0.000952     -0.000099      0.000000
    237 O2    s       0.000943     -0.000874      0.000273      0.000000
    238 O2    s       0.000463     -0.000862      0.000264      0.000000
    239 O3    s       0.002124      0.001970      0.003653      0.000000
    240 O2    s       0.000357     -0.000298     -0.000000      0.000000
    241 O2    s       0.000275      0.000228      0.000273      0.000000
    242 O2    s       0.000229     -0.000216      0.000235      0.000000
    243 O2    s       0.001046     -0.000386      0.000176      0.000000
    244 O2    s      -0.000485     -0.000070     -0.000857      0.000000
    245 O2    s       0.000243     -0.000128     -0.000757      0.000000
    246 O2    s       0.000629      0.000426      0.002021      0.000000
    247 O2    s      -0.000109     -0.000351     -0.000550      0.000000
    248 O2    s      -0.000517     -0.000715     -0.003020      0.000000
    249 O3    s      -0.000633      0.001182     -0.001057      0.000000
    250 O2    s      -0.000317      0.000445      0.002976      0.000000
    251 O2    s      -0.000576      0.000584      0.000924      0.000000
    252 O2    s       0.000865      0.002515     -0.001293      0.000000
    253 O3    s       0.001074     -0.002536      0.009751      0.000000
    254 O2    s      -0.000054     -0.000029     -0.000765      0.000000
    255 O2    s       0.000490     -0.000846      0.000070      0.000000
    256 O2    s      -0.000098     -0.000141      0.000692      0.000000
    257 O2    s       0.000964     -0.000443     -0.000598      0.000000
    258 O2    s       0.000132     -0.000139     -0.000617      0.000000
    259 O2    s      -0.000054     -0.000350      0.001269      0.000000
    260 O2    s      -0.000736      0.000654      0.000398      0.000000
    261 O2    s      -0.000928      0.000790     -0.000566      0.000000
    262 O2    s      -0.000867      0.000570     -0.000460      0.000000
    263 O2    s       0.000117     -0.000250     -0.000235      0.000000
    264 O2    s       0.002102     -0.001166     -0.008666      0.000000
    265 O3    s      -0.001192      0.002650     -0.001888      0.000000
    266 O2    s      -0.000045     -0.000205      0.000155      0.000000
    267 O3    s      -0.000433     -0.000023     -0.000700      0.000000
    268 O2    s      -0.001589      0.000484      0.000025      0.000000
    269 O2    s       0.000365     -0.001499     -0.001095      0.000000
    270 O2    s      -0.000597      0.000824      0.000572      0.000000
    271 O2    s       0.000257      0.000001      0.001600      0.000000
    272 O2    s       0.000755      0.000763     -0.000256      0.000000
    273 O2    s       0.000484     -0.000290     -0.000805      0.000000
    274 O2    s       0.000164     -0.000190      0.000918      0.000000
    275 O2    s       0.000557      0.000466     -0.000472      0.000000
    276 O2    s      -0.000544      0.001100     -0.001172      0.000000
    277 O2    s       0.001711     -0.001534      0.000071      0.000000
    278 O2    s       0.000687     -0.001039      0.000133      0.000000
    279 O2    s       0.000720     -0.000667      0.000090      0.000000
    280 O2    s      -0.000181     -0.000004      0.000853      0.000000
    281 O2    s       0.000343     -0.000618      0.000447      0.000000
    282 O2    s      -0.001324      0.000397      0.005113      0.000000
    283 O2    s       0.000478     -0.000390     -0.001196      0.000000
    284 O2    s       0.001553      0.001629      0.000347      0.000000
    285 O3    s      -0.000599      0.000948     -0.000804      0.000000
    286 O2    s       0.002052     -0.001196      0.001951      0.000000
    287 O2    s      -0.000707      0.000844     -0.000368      0.000000
    288 O2    s      -0.000077      0.000646     -0.000510      0.000000
    289 O2    s       0.000034     -0.000416      0.001276      0.000000
    290 O2    s      -0.000138      0.000492     -0.001486      0.000000
    291 O2    s      -0.000109      0.000101      0.001154      0.000000
    292 O2    s       0.000041      0.000104     -0.000081      0.000000
    293 O2    s      -0.000540      0.001143      0.000267      0.000000
    294 O2    s       0.000274      0.000507     -0.000046      0.000000
    295 O2    s       0.000095     -0.000200     -0.001199      0.000000
    296 O2    s      -0.000230      0.001509      0.002807      0.000000
    297 O2    s      -0.000331     -0.000275      0.001464      0.000000
    298 O2    s      -0.000585     -0.000262      0.002839      0.000000
    299 O2    s       0.000676     -0.000811      0.001136      0.000000
    300 O2    s      -0.000076     -0.000837     -0.003295      0.000000
    301 O2    s      -0.001399      0.001706     -0.000597      0.000000
    302 O2    s       0.000682     -0.000818     -0.000384      0.000000
    303 O2    s      -0.001218      0.000802      0.003058      0.000000
    304 O2    s      -0.001071      0.000538     -0.001147      0.000000
    305 O2    s      -0.000497      0.001687     -0.004163      0.000000
    306 O2    s      -0.000389      0.000245      0.000197      0.000000
    307 F     s      -0.000667     -0.000108      0.000650      0.000000
    308 F     s       0.000053      0.000037     -0.000210      0.000000
    309 F     s       0.000117     -0.000435     -0.001149      0.000000
    310 F     s      -0.000093      0.000152     -0.000766      0.000000
    311 F     s       0.001003     -0.000540     -0.000988      0.000000
    312 F     s       0.000010     -0.000061     -0.000453      0.000000
--------------------------------------------------------------------------------
  Maximum abs         0.003168      0.002650      0.009751      0.000000
--------------------------------------------------------------------------------


  Time to end of optimisation =      78.8285 seconds


  Peak dynamic memory used =      19.13 MB 


  Timing analysis for GULP :

--------------------------------------------------------------------------------
  Task / Subroutine                                          Time (Seconds)
--------------------------------------------------------------------------------
  Calculation of reciprocal space energy and derivatives          2.3509
  Calculation of real space energy and derivatives               67.2435
  Calculation of three-body energy and derivatives                7.6348
  Calculation of matrix inversion                                 0.9598
--------------------------------------------------------------------------------
  Total CPU time                                                 78.8286
--------------------------------------------------------------------------------


  Dump file written as out.res                                                 
  CIF file written as out.cif                                                 


  Job Finished at 15:12.32 30th November   2016                               

