********************************************************************************
*                       GENERAL UTILITY LATTICE PROGRAM                        *
*                                 Julian Gale                                  *
*                      Nanochemistry Research Institute                        *
*                           Department of Chemistry                            *
*                    Curtin University, Western Australia                      *
********************************************************************************
* Version = 4.2.0 * Last modified =  20th January 2014                         *
********************************************************************************
*  optimise     - perform optimisation run                                     *
*  conp         - constant pressure calculation                                *
*  qok          - running with non charge neutral cell is OK                   *
********************************************************************************

  Job Started  at 04:25.26 30th November   2016                               

  Number of CPUs =     1


  Total number of configurations input =   1

********************************************************************************
*  Input for Configuration =   1                                               *
********************************************************************************

  Formula = Si57Ge3O120F6                                               

  Number of irreducible atoms/shells =     312


  Total number atoms/shells =     312

  Dimensionality = 3               :  Bulk   


  Charge on solid   =  -6.000000 =>neutralising background added


  Cartesian lattice vectors (Angstroms) :

       12.004200    0.000000    0.000000
       -5.950664   10.337773    0.000000
       -0.059836    0.320357   29.466942

  Cell parameters (Angstroms/Degrees):

  a =      12.0042    alpha =  89.4021
  b =      11.9281    beta  =  90.1163
  c =      29.4687    gamma = 119.9257

  Initial cell volume =        3656.750020 Angs**3

  Temperature of configuration =  0.000     K 

  Pressure of configuration =         0.000 GPa 

  Fractional coordinates of asymmetric unit :

--------------------------------------------------------------------------------
   No.  Atomic       x           y          z         Charge      Occupancy
        Label      (Frac)      (Frac)     (Frac)        (e)         (Frac)  
--------------------------------------------------------------------------------
      1 Si    c    0.699600    0.375700    0.033890     4.00000    1.000000    
      2 Si    c    0.620718 *  0.319914 *  0.368542 *   4.00000    1.000000    
      3 Si    c    0.681773 *  0.295031 *  0.699055 *   4.00000    1.000000    
      4 Si    c    0.296567 *  0.618247 *  0.530906 *   4.00000    1.000000    
      5 Si    c    0.383871 *  0.682436 *  0.868008 *   4.00000    1.000000    
      6 Si    c    0.325486 *  0.703884 *  0.200669 *   4.00000    1.000000    
      7 Si    c    0.379941 *  0.702892 *  0.301189 *   4.00000    1.000000    
      8 Si    c    0.328060 *  0.624026 *  0.970883 *   4.00000    1.000000    
      9 Si    c    0.302218 *  0.671116 *  0.631712 *   4.00000    1.000000    
     10 Si    c    0.623680 *  0.296060 *  0.801075 *   4.00000    1.000000    
     11 Si    c    0.672701 *  0.375773 *  0.469009 *   4.00000    1.000000    
     12 Si    c    0.706055 *  0.325276 *  0.135767 *   4.00000    1.000000    
     13 Ge    c    0.533467 *  0.431736 *  0.967018 *   4.00000    1.000000    
     14 Si    c    0.582637 *  0.111075 *  0.303186 *   4.00000    1.000000    
     15 Si    c    0.894960 *  0.468922 *  0.634492 *   4.00000    1.000000    
     16 Si    c    0.469696 *  0.580269 *  0.467321 *   4.00000    1.000000    
     17 Ge    c    0.433963 *  0.899192 *  0.797721 *   4.00000    1.000000    
     18 Si    c    0.115490 *  0.532673 *  0.135836 *   4.00000    1.000000    
     19 Si    c    0.418214 *  0.528984 *  0.365897 *   4.00000    1.000000    
     20 Si    c    0.113393 *  0.583978 *  0.034312 *   4.00000    1.000000    
     21 Si    c    0.472729 *  0.867672 *  0.698965 *   4.00000    1.000000    
     22 Si    c    0.593792 *  0.468778 *  0.867563 *   4.00000    1.000000    
     23 Si    c    0.884780 *  0.415230 *  0.533171 *   4.00000    1.000000    
     24 Si    c    0.532417 *  0.115473 *  0.201420 *   4.00000    1.000000    
     25 Si    c    0.308360 *  0.398115 *  0.855303 *   4.00000    1.000000    
     26 Si    c    0.603957 *  0.905568 *  0.186706 *   4.00000    1.000000    
     27 Si    c    0.095622 *  0.696544 *  0.518607 *   4.00000    1.000000    
     28 Si    c    0.698549 *  0.599680 *  0.353111 *   4.00000    1.000000    
     29 Ge    c    0.397884 *  0.085215 *  0.685479 *   4.00000    1.000000    
     30 Si    c    0.905058 *  0.302967 *  0.020891 *   4.00000    1.000000    
     31 Si    c    0.395529 *  0.298628 *  0.483431 *   4.00000    1.000000    
     32 Si    c    0.907124 *  0.603554 *  0.150055 *   4.00000    1.000000    
     33 Si    c    0.706776 *  0.094991 *  0.820064 *   4.00000    1.000000    
     34 Si    c    0.609897 *  0.704887 *  0.988727 *   4.00000    1.000000    
     35 Si    c    0.099550 *  0.392868 *  0.647661 *   4.00000    1.000000    
     36 Si    c    0.302368 *  0.902774 *  0.316915 *   4.00000    1.000000    
     37 Si    c    0.255004 *  0.335903 *  0.957348 *   4.00000    1.000000    
     38 Si    c    0.660701 *  0.910139 *  0.287473 *   4.00000    1.000000    
     39 Si    c    0.095640 *  0.747606 *  0.619363 *   4.00000    1.000000    
     40 Si    c    0.747514 *  0.658156 *  0.453607 *   4.00000    1.000000    
     41 Si    c    0.334462 *  0.081274 *  0.788415 *   4.00000    1.000000    
     42 Si    c    0.915060 *  0.254520 *  0.121537 *   4.00000    1.000000    
     43 Si    c    0.340189 *  0.249070 *  0.382672 *   4.00000    1.000000    
     44 Si    c    0.910675 *  0.658723 *  0.049008 *   4.00000    1.000000    
     45 Si    c    0.750521 *  0.077856 *  0.717165 *   4.00000    1.000000    
     46 Si    c    0.667615 *  0.749431 *  0.885495 *   4.00000    1.000000    
     47 Si    c    0.086236 *  0.336992 *  0.546909 *   4.00000    1.000000    
     48 Si    c    0.253934 *  0.913746 *  0.216192 *   4.00000    1.000000    
     49 Si    c    0.972378 *  0.123767 *  0.971156 *   4.00000    1.000000    
     50 Si    c    0.879568 *  0.848691 *  0.302427 *   4.00000    1.000000    
     51 Si    c    0.150775 *  0.027269 *  0.634570 *   4.00000    1.000000    
     52 Si    c    0.026340 *  0.876787 *  0.468045 *   4.00000    1.000000    
     53 Si    c    0.125576 *  0.155033 *  0.803767 *   4.00000    1.000000    
     54 Si    c    0.853231 *  0.974330 *  0.137461 *   4.00000    1.000000    
     55 Si    c    0.121880 *  0.970113 *  0.367099 *   4.00000    1.000000    
     56 Si    c    0.854206 *  0.883357 *  0.037069 *   4.00000    1.000000    
     57 Si    c    0.032533 *  0.146894 *  0.701645 *   4.00000    1.000000    
     58 Si    c    0.886945 *  0.031788 *  0.870203 *   4.00000    1.000000    
     59 Si    c    0.145902 *  0.118128 *  0.533472 *   4.00000    1.000000    
     60 Si    c    0.974441 *  0.850151 *  0.201762 *   4.00000    1.000000    
     61 O2    c    0.937525 *  0.005163 *  0.004736 *   0.87073    1.000000    
     62 O2    c    0.000372 *  0.929781 *  0.334963 *   0.87073    1.000000    
     63 O2    c    0.072274 *  0.062776 *  0.670506 *   0.87073    1.000000    
     64 O2    c    0.067636 *  0.996903 *  0.501073 *   0.87073    1.000000    
     65 O2    c    0.006353 *  0.071085 *  0.836876 *   0.87073    1.000000    
     66 O2    c    0.931334 *  0.932814 *  0.171069 *   0.87073    1.000000    
     67 O2    c    0.341316 *  0.577281 *  0.333462 *   0.87073    1.000000    
     68 O2    c    0.429593 *  0.751877 *  0.662349 *   0.87073    1.000000    
     69 O2    c    0.239586 *  0.660429 *  0.001773 *   0.87073    1.000000    
     70 O2    c    0.663395 *  0.424443 *  0.829803 *   0.87073    1.000000    
     71 O2    c    0.583104 *  0.241965 *  0.169005 *   0.87073    1.000000    
     72 O2    c    0.757878 *  0.337940 *  0.502108 *   0.87073    1.000000    
     73 O3    c    0.582187 *  0.341775 *  0.002211 *   1.33043    1.000000    
     74 O2    c    0.771784 *  0.419873 *  0.668058 *   0.87073    1.000000    
     75 O2    c    0.658776 *  0.235230 *  0.336117 *   0.87073    1.000000    
     76 O2    c    0.419024 *  0.657649 *  0.498338 *   0.87073    1.000000    
     77 O2    c    0.241453 *  0.582086 *  0.167960 *   0.87073    1.000000    
     78 O3    c    0.348984 *  0.763122 *  0.835110 *   1.33043    1.000000    
     79 O2    c    0.123592 *  0.216728 *  0.976697 *   0.87073    1.000000    
     80 O2    c    0.787444 *  0.910675 *  0.307245 *   0.87073    1.000000    
     81 O2    c    0.097285 *  0.873153 *  0.640643 *   0.87073    1.000000    
     82 O2    c    0.872722 *  0.785042 *  0.473517 *   0.87073    1.000000    
     83 O2    c    0.217032 *  0.093921 *  0.809190 *   0.87073    1.000000    
     84 O2    c    0.915811 *  0.128403 *  0.142428 *   0.87073    1.000000    
     85 O2    c    0.214574 *  0.124641 *  0.362047 *   0.87073    1.000000    
     86 O2    c    0.908522 *  0.785491 *  0.029388 *   0.87073    1.000000    
     87 O2    c    0.878624 *  0.083853 *  0.696981 *   0.87073    1.000000    
     88 O2    c    0.790840 *  0.878258 *  0.864620 *   0.87073    1.000000    
     89 O2    c    0.084357 *  0.210465 *  0.526433 *   0.87073    1.000000    
     90 O2    c    0.128268 *  0.914428 *  0.196145 *   0.87073    1.000000    
     91 O2    c    0.934841 *  0.860150 *  0.252571 *   0.87073    1.000000    
     92 O2    c    0.126070 *  0.064351 *  0.584606 *   0.87073    1.000000    
     93 O2    c    0.936442 *  0.067819 *  0.920845 *   0.87073    1.000000    
     94 O2    c    0.072984 *  0.142600 *  0.752994 *   0.87073    1.000000    
     95 O2    c    0.871115 *  0.933035 *  0.087950 *   0.87073    1.000000    
     96 O2    c    0.067607 *  0.931241 *  0.417692 *   0.87073    1.000000    
     97 O2    c    0.900399 *  0.203701 *  0.982307 *   0.87073    1.000000    
     98 O2    c    0.798025 *  0.696551 *  0.314962 *   0.87073    1.000000    
     99 O3    c    0.300756 *  0.098311 *  0.644033 *   1.33043    1.000000    
    100 O2    c    0.096271 *  0.794918 *  0.480210 *   0.87073    1.000000    
    101 O2    c    0.208267 *  0.306180 *  0.816499 *   0.87073    1.000000    
    102 O2    c    0.701152 *  0.904976 *  0.148568 *   0.87073    1.000000    
    103 O2    c    0.203090 *  0.899705 *  0.355216 *   0.87073    1.000000    
    104 O2    c    0.703568 *  0.815187 *  0.024449 *   0.87073    1.000000    
    105 O2    c    0.102742 *  0.296724 *  0.686320 *   0.87073    1.000000    
    106 O2    c    0.815174 *  0.111233 *  0.856462 *   0.87073    1.000000    
    107 O2    c    0.297977 *  0.200070 *  0.522182 *   0.87073    1.000000    
    108 O2    c    0.905247 *  0.699628 *  0.188473 *   0.87073    1.000000    
    109 O2    c    0.323594 *  0.645418 *  0.251171 *   0.87073    1.000000    
    110 O2    c    0.354946 *  0.671668 *  0.580980 *   0.87073    1.000000    
    111 O2    c    0.333027 *  0.677287 *  0.919722 *   0.87073    1.000000    
    112 O2    c    0.678930 *  0.342349 *  0.750115 *   0.87073    1.000000    
    113 O2    c    0.649483 *  0.324031 *  0.085731 *   0.87073    1.000000    
    114 O2    c    0.674894 *  0.318143 *  0.419291 *   0.87073    1.000000    
    115 O3    c    0.366911 *  0.317059 *  0.977004 *   1.33043    1.000000    
    116 O2    c    0.669879 *  0.041898 *  0.306294 *   0.87073    1.000000    
    117 O2    c    0.964220 *  0.625065 *  0.638716 *   0.87073    1.000000    
    118 O2    c    0.625105 *  0.668115 *  0.471616 *   0.87073    1.000000    
    119 O3    c    0.320739 *  0.951425 *  0.808588 *   1.33043    1.000000    
    120 O2    c    0.047227 *  0.376002 *  0.140095 *   0.87073    1.000000    
    121 O2    c    0.331247 *  0.372369 *  0.364010 *   0.87073    1.000000    
    122 O2    c    0.045015 *  0.672028 *  0.030927 *   0.87073    1.000000    
    123 O2    c    0.630558 *  0.942393 *  0.700528 *   0.87073    1.000000    
    124 O2    c    0.678096 *  0.627427 *  0.866809 *   0.87073    1.000000    
    125 O2    c    0.953118 *  0.327215 *  0.530186 *   0.87073    1.000000    
    126 O2    c    0.376684 *  0.047409 *  0.198483 *   0.87073    1.000000    
    127 O2    c    0.771491 *  0.301378 *  0.013792 *   0.87073    1.000000    
    128 O2    c    0.697373 *  0.464569 *  0.346544 *   0.87073    1.000000    
    129 O3    c    0.540250 *  0.230117 *  0.679025 *   1.33043    1.000000    
    130 O2    c    0.227982 *  0.695099 *  0.510039 *   0.87073    1.000000    
    131 O2    c    0.312395 *  0.533990 *  0.850047 *   0.87073    1.000000    
    132 O2    c    0.469553 *  0.772529 *  0.179119 *   0.87073    1.000000    
    133 O2    c    0.303732 *  0.768665 *  0.324460 *   0.87073    1.000000    
    134 O2    c    0.471529 *  0.698853 *  0.992124 *   0.87073    1.000000    
    135 O2    c    0.232352 *  0.527402 *  0.654710 *   0.87073    1.000000    
    136 O2    c    0.695336 *  0.224687 *  0.823600 *   0.87073    1.000000    
    137 O2    c    0.529851 *  0.299896 *  0.491835 *   0.87073    1.000000    
    138 O2    c    0.774880 *  0.468346 *  0.158196 *   0.87073    1.000000    
    139 O2    c    0.788464 *  0.533213 *  0.029033 *   0.87073    1.000000    
    140 O2    c    0.465490 *  0.247857 *  0.363865 *   0.87073    1.000000    
    141 O2    c    0.737344 *  0.196464 *  0.696881 *   0.87073    1.000000    
    142 O2    c    0.210798 *  0.462366 *  0.526344 *   0.87073    1.000000    
    143 O2    c    0.538440 *  0.741412 *  0.866973 *   0.87073    1.000000    
    144 O2    c    0.253831 *  0.788391 *  0.196303 *   0.87073    1.000000    
    145 O2    c    0.535566 *  0.782563 *  0.306950 *   0.87073    1.000000    
    146 O2    c    0.262892 *  0.468896 *  0.974325 *   0.87073    1.000000    
    147 O2    c    0.223286 *  0.748662 *  0.637702 *   0.87073    1.000000    
    148 O2    c    0.469104 *  0.208554 *  0.802920 *   0.87073    1.000000    
    149 O2    c    0.748473 *  0.532343 *  0.473850 *   0.87073    1.000000    
    150 O2    c    0.787758 *  0.250763 *  0.141102 *   0.87073    1.000000    
    151 O2    c    0.242763 *  0.324301 *  0.902237 *   0.87073    1.000000    
    152 O2    c    0.677744 *  0.909178 *  0.233210 *   0.87073    1.000000    
    153 O2    c    0.094463 *  0.767638 *  0.565090 *   0.87073    1.000000    
    154 O2    c    0.767191 *  0.675130 *  0.399331 *   0.87073    1.000000    
    155 O3    c    0.315158 *  0.077673 *  0.734081 *   1.33043    1.000000    
    156 O2    c    0.913222 *  0.233434 *  0.067352 *   0.87073    1.000000    
    157 O2    c    0.322082 *  0.228666 *  0.437121 *   0.87073    1.000000    
    158 O2    c    0.909251 *  0.676667 *  0.103333 *   0.87073    1.000000    
    159 O2    c    0.766673 *  0.086464 *  0.771334 *   0.87073    1.000000    
    160 O2    c    0.680604 *  0.764126 *  0.939735 *   0.87073    1.000000    
    161 O2    c    0.093183 *  0.319106 *  0.601156 *   0.87073    1.000000    
    162 O2    c    0.233377 *  0.909323 *  0.270545 *   0.87073    1.000000    
    163 O3    c    0.604673 *  0.573905 *  0.001772 *   1.33043    1.000000    
    164 O2    c    0.441208 *  0.027942 *  0.326279 *   0.87073    1.000000    
    165 O2    c    0.973405 *  0.404718 *  0.657442 *   0.87073    1.000000    
    166 O2    c    0.409696 *  0.438781 *  0.491657 *   0.87073    1.000000    
    167 O3    c    0.576349 *  0.967654 *  0.831312 *   1.33043    1.000000    
    168 O2    c    0.033754 *  0.591988 *  0.159097 *   0.87073    1.000000    
    169 O2    c    0.559651 *  0.584834 *  0.343499 *   0.87073    1.000000    
    170 O2    c    0.030729 *  0.442720 *  0.011181 *   0.87073    1.000000    
    171 O3    c    0.422560 *  0.958592 *  0.675708 *   1.33043    1.000000    
    172 O2    c    0.448729 *  0.414943 *  0.847310 *   0.87073    1.000000    
    173 O2    c    0.969709 *  0.557541 *  0.510319 *   0.87073    1.000000    
    174 O2    c    0.588672 *  0.030845 *  0.178451 *   0.87073    1.000000    
    175 O2    c    0.584072 *  0.166560 *  0.252452 *   0.87073    1.000000    
    176 O2    c    0.835394 *  0.416241 *  0.584535 *   0.87073    1.000000    
    177 O3    c    0.602205 *  0.410843 *  0.915154 *   1.33043    1.000000    
    178 O3    c    0.413554 *  0.806838 *  0.747379 *   1.33043    1.000000    
    179 O2    c    0.169388 *  0.585510 *  0.084836 *   0.87073    1.000000    
    180 O2    c    0.418624 *  0.582189 *  0.416504 *   0.87073    1.000000    
    181 F     c    0.453047 *  0.903987 *  0.253133 *   0.56000    1.000000    
    182 F     c    0.094429 *  0.544766 *  0.584390 *   0.56000    1.000000    
    183 F     c    0.478556 *  0.524576 *  0.929431 *   0.56000    1.000000    
    184 F     c    0.521443 *  0.046748 *  0.758435 *   0.56000    1.000000    
    185 F     c    0.912928 *  0.454550 *  0.086325 *   0.56000    1.000000    
    186 F     c    0.547958 *  0.450124 *  0.419505 *   0.56000    1.000000    
    187 O2    s    0.932007 *  0.004866 *  0.004567 *  -2.87073    1.000000    
    188 O2    s    0.000617 *  0.925323 *  0.334962 *  -2.87073    1.000000    
    189 O2    s    0.076322 *  0.068218 *  0.670074 *  -2.87073    1.000000    
    190 O2    s    0.071846 *  0.997137 *  0.501037 *  -2.87073    1.000000    
    191 O2    s    0.006389 *  0.076125 *  0.836873 *  -2.87073    1.000000    
    192 O2    s    0.927424 *  0.928092 *  0.170766 *  -2.87073    1.000000    
    193 O2    s    0.353319 *  0.584999 *  0.333573 *  -2.87073    1.000000    
    194 O2    s    0.420821 *  0.755143 *  0.662856 *  -2.87073    1.000000    
    195 O2    s    0.236150 *  0.648945 *  0.001806 *  -2.87073    1.000000    
    196 O2    s    0.652265 *  0.415031 *  0.830415 *  -2.87073    1.000000    
    197 O2    s    0.590260 *  0.237171 *  0.169024 *  -2.87073    1.000000    
    198 O2    s    0.762468 *  0.349828 *  0.501989 *  -2.87073    1.000000    
    199 O3    s    0.591655 *  0.351635 *  0.003249 *  -3.33043    1.000000    
    200 O2    s    0.774698 *  0.411458 *  0.667960 *  -2.87073    1.000000    
    201 O2    s    0.647088 *  0.231405 *  0.336152 *  -2.87073    1.000000    
    202 O2    s    0.411312 *  0.645573 *  0.498600 *  -2.87073    1.000000    
    203 O2    s    0.237434 *  0.589774 *  0.168117 *  -2.87073    1.000000    
    204 O3    s    0.358601 *  0.763106 *  0.836312 *  -3.33043    1.000000    
    205 O2    s    0.120751 *  0.219215 *  0.973975 *  -2.87073    1.000000    
    206 O2    s    0.784192 *  0.904034 *  0.304730 *  -2.87073    1.000000    
    207 O2    s    0.102617 *  0.875929 *  0.637843 *  -2.87073    1.000000    
    208 O2    s    0.876130 *  0.781713 *  0.470915 *  -2.87073    1.000000    
    209 O2    s    0.219397 *  0.099443 *  0.806397 *  -2.87073    1.000000    
    210 O2    s    0.908971 *  0.124787 *  0.139764 *  -2.87073    1.000000    
    211 O2    s    0.217786 *  0.121142 *  0.364708 *  -2.87073    1.000000    
    212 O2    s    0.902957 *  0.782888 *  0.032193 *  -2.87073    1.000000    
    213 O2    s    0.881399 *  0.089881 *  0.699583 *  -2.87073    1.000000    
    214 O2    s    0.788409 *  0.881340 *  0.867325 *  -2.87073    1.000000    
    215 O2    s    0.091074 *  0.213843 *  0.529287 *  -2.87073    1.000000    
    216 O2    s    0.125016 *  0.907568 *  0.198790 *  -2.87073    1.000000    
    217 O2    s    0.932952 *  0.857703 *  0.252571 *  -2.87073    1.000000    
    218 O2    s    0.130974 *  0.066168 *  0.584485 *  -2.87073    1.000000    
    219 O2    s    0.934693 *  0.069862 *  0.920566 *  -2.87073    1.000000    
    220 O2    s    0.074228 *  0.144439 *  0.752826 *  -2.87073    1.000000    
    221 O2    s    0.867144 *  0.932066 *  0.087780 *  -2.87073    1.000000    
    222 O2    s    0.068970 *  0.929360 *  0.417780 *  -2.87073    1.000000    
    223 O2    s    0.908586 *  0.205063 *  0.984962 *  -2.87073    1.000000    
    224 O2    s    0.796361 *  0.702657 *  0.317595 *  -2.87073    1.000000    
    225 O3    s    0.292763 *  0.090029 *  0.646192 *  -3.33043    1.000000    
    226 O2    s    0.088715 *  0.793400 *  0.482921 *  -2.87073    1.000000    
    227 O2    s    0.209515 *  0.299347 *  0.819025 *  -2.87073    1.000000    
    228 O2    s    0.707160 *  0.912321 *  0.151309 *  -2.87073    1.000000    
    229 O2    s    0.204448 *  0.907480 *  0.352629 *  -2.87073    1.000000    
    230 O2    s    0.709988 *  0.811299 *  0.022177 *  -2.87073    1.000000    
    231 O2    s    0.094863 *  0.290513 *  0.683969 *  -2.87073    1.000000    
    232 O2    s    0.811562 *  0.101250 *  0.854140 *  -2.87073    1.000000    
    233 O2    s    0.291784 *  0.201316 *  0.519499 *  -2.87073    1.000000    
    234 O2    s    0.912879 *  0.706047 *  0.186005 *  -2.87073    1.000000    
    235 O2    s    0.329576 *  0.657284 *  0.251171 *  -2.87073    1.000000    
    236 O2    s    0.343350 *  0.666056 *  0.581096 *  -2.87073    1.000000    
    237 O2    s    0.337611 *  0.672287 *  0.919875 *  -2.87073    1.000000    
    238 O2    s    0.673480 *  0.332532 *  0.750098 *  -2.87073    1.000000    
    239 O2    s    0.660405 *  0.329261 *  0.085897 *  -2.87073    1.000000    
    240 O2    s    0.669171 *  0.324196 *  0.419237 *  -2.87073    1.000000    
    241 O3    s    0.366210 *  0.326845 *  0.974197 *  -3.33043    1.000000    
    242 O2    s    0.659954 *  0.035277 *  0.304008 *  -2.87073    1.000000    
    243 O2    s    0.970704 *  0.621562 *  0.636250 *  -2.87073    1.000000    
    244 O2    s    0.621893 *  0.658030 *  0.469293 *  -2.87073    1.000000    
    245 O3    s    0.330036 *  0.961455 *  0.805680 *  -3.33043    1.000000    
    246 O2    s    0.040473 *  0.379463 *  0.137712 *  -2.87073    1.000000    
    247 O2    s    0.341199 *  0.375517 *  0.366197 *  -2.87073    1.000000    
    248 O2    s    0.038389 *  0.661644 *  0.033121 *  -2.87073    1.000000    
    249 O2    s    0.627870 *  0.949363 *  0.702150 *  -2.87073    1.000000    
    250 O2    s    0.668810 *  0.624534 *  0.868822 *  -2.87073    1.000000    
    251 O2    s    0.960115 *  0.337301 *  0.532272 *  -2.87073    1.000000    
    252 O2    s    0.379777 *  0.040376 *  0.200656 *  -2.87073    1.000000    
    253 O2    s    0.778825 *  0.309061 *  0.016638 *  -2.87073    1.000000    
    254 O2    s    0.689578 *  0.463905 *  0.349549 *  -2.87073    1.000000    
    255 O3    s    0.543327 *  0.225168 *  0.681590 *  -3.33043    1.000000    
    256 O2    s    0.221092 *  0.687276 *  0.513144 *  -2.87073    1.000000    
    257 O2    s    0.319162 *  0.534004 *  0.852452 *  -2.87073    1.000000    
    258 O2    s    0.468919 *  0.779489 *  0.182161 *  -2.87073    1.000000    
    259 O2    s    0.311369 *  0.776039 *  0.321262 *  -2.87073    1.000000    
    260 O2    s    0.470672 *  0.691693 *  0.989550 *  -2.87073    1.000000    
    261 O2    s    0.225361 *  0.527843 *  0.651563 *  -2.87073    1.000000    
    262 O2    s    0.689005 *  0.218736 *  0.820857 *  -2.87073    1.000000    
    263 O2    s    0.530398 *  0.307472 *  0.488613 *  -2.87073    1.000000    
    264 O2    s    0.781833 *  0.467994 *  0.155012 *  -2.87073    1.000000    
    265 O2    s    0.793512 *  0.531623 *  0.031714 *  -2.87073    1.000000    
    266 O2    s    0.468121 *  0.255647 *  0.366387 *  -2.87073    1.000000    
    267 O2    s    0.732833 *  0.193935 *  0.699291 *  -2.87073    1.000000    
    268 O2    s    0.206122 *  0.465086 *  0.529039 *  -2.87073    1.000000    
    269 O2    s    0.536872 *  0.736095 *  0.869131 *  -2.87073    1.000000    
    270 O2    s    0.261472 *  0.793303 *  0.198906 *  -2.87073    1.000000    
    271 O2    s    0.533037 *  0.788201 *  0.304295 *  -2.87073    1.000000    
    272 O2    s    0.269258 *  0.471891 *  0.972214 *  -2.87073    1.000000    
    273 O2    s    0.217659 *  0.740595 *  0.635182 *  -2.87073    1.000000    
    274 O2    s    0.472061 *  0.204899 *  0.801256 *  -2.87073    1.000000    
    275 O2    s    0.740419 *  0.529666 *  0.471200 *  -2.87073    1.000000    
    276 O2    s    0.793105 *  0.259007 *  0.138466 *  -2.87073    1.000000    
    277 O2    s    0.251022 *  0.333320 *  0.902735 *  -2.87073    1.000000    
    278 O2    s    0.668209 *  0.908908 *  0.234140 *  -2.87073    1.000000    
    279 O2    s    0.094699 *  0.758134 *  0.566026 *  -2.87073    1.000000    
    280 O2    s    0.757915 *  0.665438 *  0.400313 *  -2.87073    1.000000    
    281 O3    s    0.323785 *  0.078549 *  0.735239 *  -3.33043    1.000000    
    282 O2    s    0.912601 *  0.242886 *  0.068224 *  -2.87073    1.000000    
    283 O2    s    0.331673 *  0.238125 *  0.436274 *  -2.87073    1.000000    
    284 O2    s    0.909193 *  0.667045 *  0.102591 *  -2.87073    1.000000    
    285 O2    s    0.758913 *  0.086353 *  0.770282 *  -2.87073    1.000000    
    286 O2    s    0.672291 *  0.756684 *  0.938661 *  -2.87073    1.000000    
    287 O2    s    0.093137 *  0.328759 *  0.600356 *  -2.87073    1.000000    
    288 O2    s    0.242815 *  0.909109 *  0.269701 *  -2.87073    1.000000    
    289 O3    s    0.600251 *  0.578422 *  0.998048 *  -3.33043    1.000000    
    290 O2    s    0.441005 *  0.022987 *  0.322880 *  -2.87073    1.000000    
    291 O2    s    0.978778 *  0.410215 *  0.654018 *  -2.87073    1.000000    
    292 O2    s    0.414531 *  0.438370 *  0.488274 *  -2.87073    1.000000    
    293 O3    s    0.580378 *  0.976634 *  0.827765 *  -3.33043    1.000000    
    294 O2    s    0.028543 *  0.586910 *  0.155711 *  -2.87073    1.000000    
    295 O2    s    0.559852 *  0.580403 *  0.346894 *  -2.87073    1.000000    
    296 O2    s    0.025882 *  0.442568 *  0.014598 *  -2.87073    1.000000    
    297 O3    s    0.425191 *  0.961275 *  0.678736 *  -3.33043    1.000000    
    298 O2    s    0.447925 *  0.418507 *  0.850174 *  -2.87073    1.000000    
    299 O2    s    0.974524 *  0.557553 *  0.513627 *  -2.87073    1.000000    
    300 O2    s    0.584268 *  0.025915 *  0.181762 *  -2.87073    1.000000    
    301 O2    s    0.578617 *  0.155544 *  0.252500 *  -2.87073    1.000000    
    302 O2    s    0.846665 *  0.421618 *  0.584462 *  -2.87073    1.000000    
    303 O3    s    0.596887 *  0.418305 *  0.913482 *  -3.33043    1.000000    
    304 O3    s    0.420959 *  0.819311 *  0.745810 *  -3.33043    1.000000    
    305 O2    s    0.158069 *  0.579900 *  0.084893 *  -2.87073    1.000000    
    306 O2    s    0.423981 *  0.576453 *  0.416603 *  -2.87073    1.000000    
    307 F     s    0.452786 *  0.903461 *  0.253300 *  -1.56000    1.000000    
    308 F     s    0.094404 *  0.544863 *  0.584558 *  -1.56000    1.000000    
    309 F     s    0.482419 *  0.518532 *  0.931829 *  -1.56000    1.000000    
    310 F     s    0.515528 *  0.037570 *  0.760571 *  -1.56000    1.000000    
    311 F     s    0.913374 *  0.454536 *  0.086459 *  -1.56000    1.000000    
    312 F     s    0.548239 *  0.449981 *  0.419679 *  -1.56000    1.000000    
--------------------------------------------------------------------------------



********************************************************************************
*  General input information                                                   *
********************************************************************************

  Species output for all configurations : 

--------------------------------------------------------------------------------
  Species    Type    Atomic    Atomic    Charge       Radii (Angs)     Library
                     Number     Mass       (e)     Cova   Ionic  VDW   Symbol
--------------------------------------------------------------------------------
    Si       Core       14      28.09   4.000000   1.200  0.000  2.100          
    O1       Core        8      16.00   1.733957   0.730  0.000  1.360          
    O1       Shell       8       0.00  -3.733957   0.730  0.000  1.360          
    O2       Core        8      16.00   0.870733   0.730  0.000  1.360          
    O2       Shell       8       0.00  -2.870733   0.730  0.000  1.360          
    O3       Core        8      16.00   1.330431   0.730  0.000  1.360          
    O3       Shell       8       0.00  -3.330431   0.730  0.000  1.360          
    F        Core        9      19.00   0.560000   0.710  0.000  1.300          
    F        Shell       9       0.00  -1.560000   0.710  0.000  1.300          
    Ge       Core       32      72.61   4.000000   1.170  0.000  1.750          
--------------------------------------------------------------------------------


  Lattice summation method               =    Ewald          (3-D)
                                         =    Parry          (2-D)
                                         =    Saunders et al (1-D)
  Accuracy factor for lattice sums       =   12.000


  Time limit = Infinity

  Maximum range for interatomic potentials =        16.000000 Angstroms

  Taper potentials to zero over   1.0000 Angstroms using polynomial

  General interatomic potentials :

--------------------------------------------------------------------------------
Atom  Types   Potential         A         B         C         D     Cutoffs(Ang)
  1     2                                                            Min    Max 
--------------------------------------------------------------------------------
Si   c O1   s Buckingham    0.132E+04 0.318      10.1      0.00     0.000 16.000
Si   c O2   s Buckingham    0.132E+04 0.318      10.1      0.00     0.000 16.000
Si   c O3   s Buckingham    0.132E+04 0.318      10.1      0.00     0.000 16.000
Ge   c O1   s Buckingham    0.150E+04 0.326      16.8      0.00     0.000 16.000
Ge   c O2   s Buckingham    0.150E+04 0.326      16.8      0.00     0.000 16.000
Ge   c O3   s Buckingham    0.150E+04 0.326      16.8      0.00     0.000 16.000
O1   s O1   s Buckingham    0.228E+05 0.149      10.9      0.00     0.000 16.000
O1   s O2   s Buckingham    0.228E+05 0.149      10.9      0.00     0.000 16.000
O1   s O3   s Buckingham    0.228E+05 0.149      10.9      0.00     0.000 16.000
O2   s O2   s Buckingham    0.228E+05 0.149      10.9      0.00     0.000 16.000
O2   s O3   s Buckingham    0.228E+05 0.149      10.9      0.00     0.000 16.000
O3   s O3   s Buckingham    0.228E+05 0.149      10.9      0.00     0.000 16.000
Si   c F    s Buckingham     977.     0.282      0.00      0.00     0.000 16.000
Ge   c F    s Buckingham     681.     0.320      0.00      0.00     0.000 16.000
F    s F    s Buckingham     540.     0.262      0.00      0.00     0.000 16.000
O1   s F    s Buckingham    0.168E+04 0.268      0.00      0.00     0.000 16.000
O2   s F    s Buckingham    0.168E+04 0.268      0.00      0.00     0.000 16.000
O3   s F    s Buckingham    0.168E+04 0.268      0.00      0.00     0.000 16.000
O2   c O2   s Spring (c-s)   76.0      0.00      0.00      0.00     0.000  0.800
O3   c O3   s Spring (c-s)   128.      0.00      0.00      0.00     0.000  0.800
O1   c O1   s Spring (c-s)   180.      0.00      0.00      0.00     0.000  0.800
F    c F    s Spring (c-s)   33.5      0.00      0.00      0.00     0.000  0.800
--------------------------------------------------------------------------------

  General Three-body potentials :

  Harmonic form:

--------------------------------------------------------------------------------
Atom    Atom    Atom           Force Constants            Theta     Cutoffs  
  1       2       3     (eVrad**-2/eVrad**-3/eVrad**-4)   (deg)  1-2  1-3  2-3
--------------------------------------------------------------------------------
Si    c O1    s O1    s  1.261        0.0000    0.0000   109.470 0.00 0.00 0.00
                                                                 1.90 1.90 3.50
Si    c O1    s O2    s  1.261        0.0000    0.0000   109.470 0.00 0.00 0.00
                                                                 1.90 1.90 3.50
Si    c O2    s O2    s  1.261        0.0000    0.0000   109.470 0.00 0.00 0.00
                                                                 1.90 1.90 3.50
--------------------------------------------------------------------------------

********************************************************************************
*  Output for configuration   1                                                *
********************************************************************************


  Components of energy : 

--------------------------------------------------------------------------------
  Interatomic potentials     =        2064.41677498 eV
  Three-body potentials      =           0.45161165 eV
  Monopole - monopole (real) =       -6613.93621618 eV
  Monopole - monopole (recip)=       -3171.35225998 eV
  Monopole - monopole (total)=       -9785.28847615 eV
  Neutralising energy        =          -6.46006450 eV
--------------------------------------------------------------------------------
  Total lattice energy       =       -7726.88015403 eV
--------------------------------------------------------------------------------
  Total lattice energy       =         -745525.8187 kJ/(mole unit cells)
--------------------------------------------------------------------------------


  Number of variables =      939

  Maximum number of calculations  =          1000
  Maximum Hessian update interval =            10
  Maximum step size               =   1.000000000
  Maximum parameter tolerance     =   0.000010000
  Maximum function  tolerance     =   0.000010000
  Maximum gradient  tolerance     =   0.001000000
  Maximum gradient  component     =   0.010000000

  Symmetry not applied to optimisation

  Cell parameters to be optimised using strains

  Newton-Raphson optimiser to be used

  BFGS hessian update to be used

  Dumpfile to be written after every cycle

  Start of bulk optimisation :

  Cycle:      0 Energy:     -7726.880154  Gnorm:      0.000734  CPU:    1.054
  ** Hessian calculated **
  Cycle:      1 Energy:     -7726.906011  Gnorm:      0.001378  CPU:    3.007
  Cycle:      2 Energy:     -7726.906076  Gnorm:      0.000077  CPU:    4.423


  **** Optimisation achieved ****


  Final energy =   -7726.90607667 eV
  Final Gnorm  =       0.00001118

  Components of energy : 

--------------------------------------------------------------------------------
  Interatomic potentials     =        2064.56543555 eV
  Three-body potentials      =           0.45376751 eV
  Monopole - monopole (real) =       -6614.28619586 eV
  Monopole - monopole (recip)=       -3171.17937129 eV
  Monopole - monopole (total)=       -9785.46556715 eV
  Neutralising energy        =          -6.45971258 eV
--------------------------------------------------------------------------------
  Total lattice energy       =       -7726.90607667 eV
--------------------------------------------------------------------------------
  Total lattice energy       =         -745528.3198 kJ/(mole unit cells)
--------------------------------------------------------------------------------

  Final fractional coordinates of atoms :

--------------------------------------------------------------------------------
   No.  Atomic        x           y          z          Radius
        Label       (Frac)      (Frac)     (Frac)       (Angs) 
--------------------------------------------------------------------------------
     1  Si    c     0.699600    0.375700    0.033890    0.000000
     2  Si    c     0.619518    0.309970    0.368351    0.000000
     3  Si    c     0.680398    0.283818    0.698658    0.000000
     4  Si    c     0.293653    0.605240    0.530234    0.000000
     5  Si    c     0.385792    0.674989    0.867135    0.000000
     6  Si    c     0.327307    0.699303    0.199782    0.000000
     7  Si    c     0.379769    0.693855    0.300355    0.000000
     8  Si    c     0.329320    0.619527    0.970054    0.000000
     9  Si    c     0.300590    0.658912    0.631052    0.000000
    10  Si    c     0.622970    0.286185    0.800682    0.000000
    11  Si    c     0.670166    0.364293    0.468886    0.000000
    12  Si    c     0.708080    0.323055    0.135664    0.000000
    13  Ge    c     0.531957    0.426409    0.966476    0.000000
    14  Si    c     0.582691    0.102189    0.303101    0.000000
    15  Si    c     0.893655    0.456941    0.634170    0.000000
    16  Si    c     0.467077    0.568265    0.466460    0.000000
    17  Ge    c     0.433690    0.889931    0.796704    0.000000
    18  Si    c     0.117709    0.529671    0.134674    0.000000
    19  Si    c     0.416774    0.518435    0.364947    0.000000
    20  Si    c     0.114649    0.581051    0.033244    0.000000
    21  Si    c     0.471501    0.856298    0.698037    0.000000
    22  Si    c     0.594578    0.460311    0.867207    0.000000
    23  Si    c     0.881921    0.402453    0.532954    0.000000
    24  Si    c     0.535004    0.111450    0.201356    0.000000
    25  Si    c     0.309322    0.390406    0.854662    0.000000
    26  Si    c     0.605884    0.901116    0.186540    0.000000
    27  Si    c     0.092680    0.683641    0.518156    0.000000
    28  Si    c     0.697484    0.589575    0.352410    0.000000
    29  Ge    c     0.396795    0.074159    0.684867    0.000000
    30  Si    c     0.904341    0.300999    0.020096    0.000000
    31  Si    c     0.392622    0.286727    0.482931    0.000000
    32  Si    c     0.910198    0.601117    0.149381    0.000000
    33  Si    c     0.706050    0.084892    0.819433    0.000000
    34  Si    c     0.610705    0.699789    0.988514    0.000000
    35  Si    c     0.097981    0.380726    0.647185    0.000000
    36  Si    c     0.302499    0.893987    0.316558    0.000000
    37  Si    c     0.254049    0.330447    0.956833    0.000000
    38  Si    c     0.660671    0.901531    0.287230    0.000000
    39  Si    c     0.093946    0.735539    0.618905    0.000000
    40  Si    c     0.745001    0.646566    0.453065    0.000000
    41  Si    c     0.333814    0.071591    0.787886    0.000000
    42  Si    c     0.916581    0.251513    0.120583    0.000000
    43  Si    c     0.338801    0.238613    0.382059    0.000000
    44  Si    c     0.913257    0.657227    0.048495    0.000000
    45  Si    c     0.749213    0.066435    0.716539    0.000000
    46  Si    c     0.669137    0.741454    0.885129    0.000000
    47  Si    c     0.083298    0.324133    0.546482    0.000000
    48  Si    c     0.256174    0.909318    0.215866    0.000000
    49  Si    c     0.970576    0.120416    0.970856    0.000000
    50  Si    c     0.878987    0.839377    0.302157    0.000000
    51  Si    c     0.148999    0.015161    0.634326    0.000000
    52  Si    c     0.023979    0.864526    0.467696    0.000000
    53  Si    c     0.125982    0.146618    0.803547    0.000000
    54  Si    c     0.855682    0.971299    0.137281    0.000000
    55  Si    c     0.120949    0.959479    0.366911    0.000000
    56  Si    c     0.854837    0.879984    0.036862    0.000000
    57  Si    c     0.031360    0.135309    0.701458    0.000000
    58  Si    c     0.887384    0.024234    0.870124    0.000000
    59  Si    c     0.143138    0.105523    0.533212    0.000000
    60  Si    c     0.977000    0.847040    0.201460    0.000000
    61  O2    c     0.936279    0.003411    0.005097    0.000000
    62  O2    c     0.998951    0.918799    0.335094    0.000000
    63  O2    c     0.071258    0.050489    0.670721    0.000000
    64  O2    c     0.065028    0.983699    0.501122    0.000000
    65  O2    c     0.008368    0.064572    0.837491    0.000000
    66  O2    c     0.934720    0.931371    0.171174    0.000000
    67  O2    c     0.340702    0.567367    0.332289    0.000000
    68  O2    c     0.428216    0.740279    0.661506    0.000000
    69  O2    c     0.240664    0.656692    0.000526    0.000000
    70  O2    c     0.663272    0.414592    0.829534    0.000000
    71  O2    c     0.586077    0.238864    0.169300    0.000000
    72  O2    c     0.754684    0.325786    0.502051    0.000000
    73  O3    c     0.581275    0.338827    0.002569    0.000000
    74  O2    c     0.770684    0.408686    0.667766    0.000000
    75  O2    c     0.658587    0.225608    0.336252    0.000000
    76  O2    c     0.415839    0.645125    0.497485    0.000000
    77  O2    c     0.243880    0.578606    0.166628    0.000000
    78  O3    c     0.349588    0.754111    0.834027    0.000000
    79  O2    c     0.121830    0.212993    0.976191    0.000000
    80  O2    c     0.786640    0.901009    0.307214    0.000000
    81  O2    c     0.095624    0.861027    0.640231    0.000000
    82  O2    c     0.870241    0.773395    0.472910    0.000000
    83  O2    c     0.216713    0.084635    0.808718    0.000000
    84  O2    c     0.917892    0.125552    0.141382    0.000000
    85  O2    c     0.213303    0.113960    0.361556    0.000000
    86  O2    c     0.911252    0.784024    0.028749    0.000000
    87  O2    c     0.877535    0.072392    0.696532    0.000000
    88  O2    c     0.792903    0.870422    0.864500    0.000000
    89  O2    c     0.081078    0.197377    0.526062    0.000000
    90  O2    c     0.130955    0.911458    0.196087    0.000000
    91  O2    c     0.935744    0.853872    0.252367    0.000000
    92  O2    c     0.123727    0.052490    0.584475    0.000000
    93  O2    c     0.934309    0.061657    0.920940    0.000000
    94  O2    c     0.071259    0.132315    0.753012    0.000000
    95  O2    c     0.871955    0.927747    0.087976    0.000000
    96  O2    c     0.067042    0.920510    0.417576    0.000000
    97  O2    c     0.899047    0.201239    0.981439    0.000000
    98  O2    c     0.797128    0.686809    0.314277    0.000000
    99  O3    c     0.299099    0.086235    0.643450    0.000000
   100  O2    c     0.092963    0.781661    0.479699    0.000000
   101  O2    c     0.209897    0.298045    0.815786    0.000000
   102  O2    c     0.703812    0.901751    0.148491    0.000000
   103  O2    c     0.202409    0.889387    0.354869    0.000000
   104  O2    c     0.704166    0.810290    0.024155    0.000000
   105  O2    c     0.101896    0.284846    0.685801    0.000000
   106  O2    c     0.814898    0.102339    0.855694    0.000000
   107  O2    c     0.295026    0.187817    0.521635    0.000000
   108  O2    c     0.908197    0.697079    0.187745    0.000000
   109  O2    c     0.324525    0.638800    0.250034    0.000000
   110  O2    c     0.352482    0.658680    0.580249    0.000000
   111  O2    c     0.334643    0.671281    0.918666    0.000000
   112  O2    c     0.677226    0.331822    0.749571    0.000000
   113  O2    c     0.651025    0.323842    0.085914    0.000000
   114  O2    c     0.672913    0.307445    0.419131    0.000000
   115  O3    c     0.365583    0.311059    0.976509    0.000000
   116  O2    c     0.669936    0.033047    0.306270    0.000000
   117  O2    c     0.962826    0.613018    0.638394    0.000000
   118  O2    c     0.622387    0.656354    0.470970    0.000000
   119  O3    c     0.319920    0.941476    0.807778    0.000000
   120  O2    c     0.049020    0.372975    0.138901    0.000000
   121  O2    c     0.329788    0.361780    0.363168    0.000000
   122  O2    c     0.046874    0.669789    0.029955    0.000000
   123  O2    c     0.629397    0.931310    0.699608    0.000000
   124  O2    c     0.679259    0.619135    0.866460    0.000000
   125  O2    c     0.950009    0.314188    0.529876    0.000000
   126  O2    c     0.379244    0.043110    0.198357    0.000000
   127  O2    c     0.771591    0.301085    0.013621    0.000000
   128  O2    c     0.696379    0.454451    0.346168    0.000000
   129  O3    c     0.539219    0.218834    0.678374    0.000000
   130  O2    c     0.224870    0.682020    0.509508    0.000000
   131  O2    c     0.314474    0.526662    0.849134    0.000000
   132  O2    c     0.471588    0.768560    0.178375    0.000000
   133  O2    c     0.303412    0.759465    0.323620    0.000000
   134  O2    c     0.472708    0.694903    0.991281    0.000000
   135  O2    c     0.230824    0.515285    0.654131    0.000000
   136  O2    c     0.695103    0.214913    0.822819    0.000000
   137  O2    c     0.527026    0.288308    0.491493    0.000000
   138  O2    c     0.778058    0.466082    0.158051    0.000000
   139  O2    c     0.789407    0.532644    0.028832    0.000000
   140  O2    c     0.464338    0.237691    0.363338    0.000000
   141  O2    c     0.736126    0.185346    0.696526    0.000000
   142  O2    c     0.207704    0.449370    0.525744    0.000000
   143  O2    c     0.540367    0.733836    0.866337    0.000000
   144  O2    c     0.256003    0.784240    0.195689    0.000000
   145  O2    c     0.535224    0.773454    0.306305    0.000000
   146  O2    c     0.264135    0.464463    0.973751    0.000000
   147  O2    c     0.221686    0.736458    0.637016    0.000000
   148  O2    c     0.468506    0.198341    0.802674    0.000000
   149  O2    c     0.745755    0.520841    0.473565    0.000000
   150  O2    c     0.789739    0.248377    0.140309    0.000000
   151  O2    c     0.242765    0.318075    0.901715    0.000000
   152  O2    c     0.678880    0.902469    0.232973    0.000000
   153  O2    c     0.092052    0.755020    0.564627    0.000000
   154  O2    c     0.765291    0.664141    0.398808    0.000000
   155  O3    c     0.314901    0.068206    0.733530    0.000000
   156  O2    c     0.913499    0.231097    0.066364    0.000000
   157  O2    c     0.319956    0.217460    0.436485    0.000000
   158  O2    c     0.912367    0.675078    0.102821    0.000000
   159  O2    c     0.764931    0.074532    0.770707    0.000000
   160  O2    c     0.681908    0.756637    0.939359    0.000000
   161  O2    c     0.090982    0.306571    0.600717    0.000000
   162  O2    c     0.234882    0.902954    0.270212    0.000000
   163  O3    c     0.603062    0.567984    0.001674    0.000000
   164  O2    c     0.441270    0.018665    0.326243    0.000000
   165  O2    c     0.971836    0.392454    0.657179    0.000000
   166  O2    c     0.406597    0.426847    0.490952    0.000000
   167  O3    c     0.575448    0.958114    0.830722    0.000000
   168  O2    c     0.036992    0.589728    0.158275    0.000000
   169  O2    c     0.558447    0.574301    0.342727    0.000000
   170  O2    c     0.030878    0.440026    0.010150    0.000000
   171  O3    c     0.421090    0.947306    0.675001    0.000000
   172  O2    c     0.449505    0.406462    0.847029    0.000000
   173  O2    c     0.966775    0.544650    0.510019    0.000000
   174  O2    c     0.591721    0.027187    0.178442    0.000000
   175  O2    c     0.585342    0.160081    0.252650    0.000000
   176  O2    c     0.833147    0.403653    0.584383    0.000000
   177  O3    c     0.601871    0.403480    0.915118    0.000000
   178  O3    c     0.412860    0.796484    0.746560    0.000000
   179  O2    c     0.171399    0.582598    0.083631    0.000000
   180  O2    c     0.416537    0.571009    0.415608    0.000000
   181  F     c     0.454839    0.897680    0.252703    0.000000
   182  F     c     0.091679    0.531649    0.584018    0.000000
   183  F     c     0.478926    0.518612    0.928719    0.000000
   184  F     c     0.520750    0.036609    0.757596    0.000000
   185  F     c     0.915565    0.453981    0.085677    0.000000
   186  F     c     0.545624    0.439126    0.418976    0.000000
   187  O2    s     0.930846    0.002690    0.004795    0.000000
   188  O2    s     0.999340    0.914547    0.335013    0.000000
   189  O2    s     0.075192    0.056016    0.670199    0.000000
   190  O2    s     0.069268    0.984136    0.501011    0.000000
   191  O2    s     0.008033    0.069285    0.837319    0.000000
   192  O2    s     0.930646    0.926326    0.170796    0.000000
   193  O2    s     0.352612    0.575088    0.332452    0.000000
   194  O2    s     0.419461    0.743511    0.662025    0.000000
   195  O2    s     0.237273    0.645218    0.000617    0.000000
   196  O2    s     0.652193    0.405381    0.830136    0.000000
   197  O2    s     0.593060    0.234071    0.169242    0.000000
   198  O2    s     0.759379    0.337683    0.501908    0.000000
   199  O3    s     0.590922    0.348923    0.003532    0.000000
   200  O2    s     0.773539    0.400149    0.667658    0.000000
   201  O2    s     0.646780    0.221826    0.336233    0.000000
   202  O2    s     0.408189    0.633042    0.497773    0.000000
   203  O2    s     0.239786    0.586232    0.166854    0.000000
   204  O3    s     0.359386    0.754352    0.835236    0.000000
   205  O2    s     0.119182    0.215436    0.973471    0.000000
   206  O2    s     0.783491    0.894508    0.304651    0.000000
   207  O2    s     0.100944    0.863817    0.637443    0.000000
   208  O2    s     0.873668    0.770017    0.470341    0.000000
   209  O2    s     0.219139    0.090217    0.805939    0.000000
   210  O2    s     0.911033    0.121900    0.138821    0.000000
   211  O2    s     0.216540    0.110494    0.364235    0.000000
   212  O2    s     0.905454    0.781230    0.031605    0.000000
   213  O2    s     0.880284    0.078411    0.699139    0.000000
   214  O2    s     0.790255    0.873525    0.867177    0.000000
   215  O2    s     0.087888    0.200825    0.528920    0.000000
   216  O2    s     0.127643    0.904444    0.198673    0.000000
   217  O2    s     0.933863    0.851440    0.252358    0.000000
   218  O2    s     0.128646    0.054195    0.584336    0.000000
   219  O2    s     0.932898    0.063858    0.920597    0.000000
   220  O2    s     0.072807    0.134214    0.752803    0.000000
   221  O2    s     0.868140    0.927266    0.087760    0.000000
   222  O2    s     0.068154    0.918466    0.417636    0.000000
   223  O2    s     0.907206    0.202467    0.984119    0.000000
   224  O2    s     0.795478    0.692879    0.316939    0.000000
   225  O3    s     0.291149    0.078036    0.645645    0.000000
   226  O2    s     0.085544    0.780276    0.482440    0.000000
   227  O2    s     0.210934    0.291234    0.818363    0.000000
   228  O2    s     0.709760    0.909027    0.151224    0.000000
   229  O2    s     0.203820    0.897278    0.352302    0.000000
   230  O2    s     0.710573    0.806517    0.021895    0.000000
   231  O2    s     0.093899    0.278623    0.683491    0.000000
   232  O2    s     0.811274    0.092317    0.853439    0.000000
   233  O2    s     0.288858    0.189066    0.518989    0.000000
   234  O2    s     0.915840    0.703503    0.185319    0.000000
   235  O2    s     0.330484    0.650600    0.250114    0.000000
   236  O2    s     0.340933    0.653159    0.580393    0.000000
   237  O2    s     0.339234    0.666265    0.918864    0.000000
   238  O2    s     0.671907    0.322005    0.749590    0.000000
   239  O2    s     0.661807    0.328850    0.086062    0.000000
   240  O2    s     0.667202    0.313534    0.419089    0.000000
   241  O3    s     0.364888    0.320914    0.973699    0.000000
   242  O2    s     0.659989    0.026425    0.303949    0.000000
   243  O2    s     0.969323    0.609544    0.635906    0.000000
   244  O2    s     0.619224    0.646273    0.468634    0.000000
   245  O3    s     0.329242    0.951635    0.804878    0.000000
   246  O2    s     0.042277    0.376438    0.136546    0.000000
   247  O2    s     0.339728    0.364964    0.365359    0.000000
   248  O2    s     0.040212    0.659434    0.032188    0.000000
   249  O2    s     0.626710    0.938215    0.701254    0.000000
   250  O2    s     0.670033    0.616313    0.868458    0.000000
   251  O2    s     0.957036    0.324313    0.531955    0.000000
   252  O2    s     0.382299    0.036102    0.200509    0.000000
   253  O2    s     0.779065    0.308483    0.016383    0.000000
   254  O2    s     0.688567    0.453862    0.349156    0.000000
   255  O3    s     0.542226    0.213887    0.680968    0.000000
   256  O2    s     0.217997    0.674218    0.512612    0.000000
   257  O2    s     0.321098    0.526558    0.851578    0.000000
   258  O2    s     0.470926    0.775417    0.181466    0.000000
   259  O2    s     0.311120    0.766873    0.320474    0.000000
   260  O2    s     0.471781    0.687579    0.988774    0.000000
   261  O2    s     0.223853    0.515756    0.650988    0.000000
   262  O2    s     0.688645    0.208963    0.820124    0.000000
   263  O2    s     0.527612    0.295874    0.488277    0.000000
   264  O2    s     0.784822    0.465645    0.154815    0.000000
   265  O2    s     0.794374    0.530746    0.031498    0.000000
   266  O2    s     0.466900    0.245465    0.365884    0.000000
   267  O2    s     0.731597    0.182759    0.698906    0.000000
   268  O2    s     0.203061    0.452102    0.528452    0.000000
   269  O2    s     0.538736    0.728487    0.868497    0.000000
   270  O2    s     0.263604    0.789090    0.198296    0.000000
   271  O2    s     0.532697    0.779120    0.303675    0.000000
   272  O2    s     0.270281    0.467363    0.971619    0.000000
   273  O2    s     0.216060    0.728402    0.634522    0.000000
   274  O2    s     0.471496    0.194824    0.800968    0.000000
   275  O2    s     0.737738    0.518130    0.470906    0.000000
   276  O2    s     0.795034    0.256572    0.137723    0.000000
   277  O2    s     0.251023    0.327012    0.902193    0.000000
   278  O2    s     0.669301    0.902232    0.233918    0.000000
   279  O2    s     0.092313    0.745553    0.565570    0.000000
   280  O2    s     0.756034    0.654475    0.399760    0.000000
   281  O3    s     0.323416    0.068934    0.734686    0.000000
   282  O2    s     0.912907    0.240482    0.067297    0.000000
   283  O2    s     0.329562    0.226946    0.435670    0.000000
   284  O2    s     0.912249    0.665382    0.102034    0.000000
   285  O2    s     0.757321    0.074662    0.769642    0.000000
   286  O2    s     0.673588    0.749394    0.938293    0.000000
   287  O2    s     0.090928    0.316236    0.599912    0.000000
   288  O2    s     0.244259    0.902690    0.269368    0.000000
   289  O3    s     0.598965    0.572845    0.997924    0.000000
   290  O2    s     0.441018    0.013761    0.322808    0.000000
   291  O2    s     0.977251    0.397986    0.653732    0.000000
   292  O2    s     0.411492    0.426394    0.487579    0.000000
   293  O3    s     0.579686    0.967158    0.827157    0.000000
   294  O2    s     0.031638    0.584559    0.154873    0.000000
   295  O2    s     0.558626    0.569917    0.346109    0.000000
   296  O2    s     0.026103    0.439986    0.013586    0.000000
   297  O3    s     0.423778    0.949990    0.678016    0.000000
   298  O2    s     0.448717    0.410109    0.849846    0.000000
   299  O2    s     0.971598    0.544672    0.513322    0.000000
   300  O2    s     0.587133    0.022182    0.181731    0.000000
   301  O2    s     0.579879    0.149068    0.252611    0.000000
   302  O2    s     0.844470    0.409074    0.584268    0.000000
   303  O3    s     0.596648    0.410965    0.913321    0.000000
   304  O3    s     0.420264    0.808926    0.744919    0.000000
   305  O2    s     0.160025    0.576977    0.083708    0.000000
   306  O2    s     0.421893    0.565258    0.415695    0.000000
   307  F     s     0.454665    0.897211    0.252860    0.000000
   308  F     s     0.091586    0.531684    0.584198    0.000000
   309  F     s     0.482843    0.512265    0.931256    0.000000
   310  F     s     0.514665    0.027195    0.759800    0.000000
   311  F     s     0.916123    0.454145    0.085813    0.000000
   312  F     s     0.545871    0.439002    0.419151    0.000000
--------------------------------------------------------------------------------

  Final Cartesian lattice vectors (Angstroms) :

       12.004525    0.001642    0.003420
       -5.949411   10.338595    0.002168
       -0.051399    0.331411   29.466409


  Final cell parameters and derivatives :

--------------------------------------------------------------------------------
       a           12.004525 Angstrom     dE/de1(xx)    -0.000125 eV/strain
       b           11.928203 Angstrom     dE/de2(yy)    -0.000534 eV/strain
       c           29.468317 Angstrom     dE/de3(zz)    -0.001206 eV/strain
       alpha       89.381235 Degrees      dE/de4(yz)    -0.000111 eV/strain
       beta        90.083527 Degrees      dE/de5(xz)    -0.000227 eV/strain
       gamma      119.910713 Degrees      dE/de6(xy)     0.000078 eV/strain
--------------------------------------------------------------------------------

  Primitive cell volume =          3657.347705 Angs**3

  Density of cell =      1.749380 g/cm**3

  Non-primitive cell volume =          3657.347705 Angs**3


  Final internal derivatives :

--------------------------------------------------------------------------------
   No.  Atomic          a             b             c           Radius
        Label          (eV)          (eV)          (eV)        (eV/Angs)
--------------------------------------------------------------------------------
      1 Si    c       0.000000      0.000000      0.000000      0.000000
      2 Si    c      -0.000043      0.000016      0.000344      0.000000
      3 Si    c      -0.000119      0.000164      0.001054      0.000000
      4 Si    c       0.000073     -0.000013      0.000037      0.000000
      5 Si    c      -0.000140      0.000018      0.000571      0.000000
      6 Si    c       0.000198     -0.000351      0.001310      0.000000
      7 Si    c      -0.000230     -0.000074     -0.001999      0.000000
      8 Si    c      -0.000042      0.000020     -0.000340      0.000000
      9 Si    c      -0.000037      0.000026     -0.000376      0.000000
     10 Si    c       0.000085     -0.000001     -0.000831      0.000000
     11 Si    c       0.000075     -0.000162     -0.000173      0.000000
     12 Si    c      -0.000581      0.000265     -0.001356      0.000000
     13 Ge    c      -0.000256      0.000290     -0.000982      0.000000
     14 Si    c      -0.000054      0.000172     -0.001391      0.000000
     15 Si    c       0.000056     -0.000040     -0.000061      0.000000
     16 Si    c      -0.000021      0.000024     -0.000369      0.000000
     17 Ge    c       0.000115     -0.000339     -0.000886      0.000000
     18 Si    c       0.000132      0.000146      0.000393      0.000000
     19 Si    c      -0.000154      0.000183      0.000040      0.000000
     20 Si    c      -0.000372      0.000108     -0.000153      0.000000
     21 Si    c      -0.000189      0.000027      0.001935      0.000000
     22 Si    c       0.000405     -0.000512     -0.000042      0.000000
     23 Si    c      -0.000071     -0.000025     -0.000268      0.000000
     24 Si    c       0.000035      0.000292      0.001062      0.000000
     25 Si    c      -0.000204     -0.000056     -0.000360      0.000000
     26 Si    c       0.000345     -0.000204      0.000486      0.000000
     27 Si    c      -0.000017      0.000043     -0.000036      0.000000
     28 Si    c       0.000081      0.000066      0.000727      0.000000
     29 Ge    c      -0.000447      0.000191      0.000565      0.000000
     30 Si    c      -0.000119      0.000516      0.000535      0.000000
     31 Si    c      -0.000064     -0.000090     -0.000217      0.000000
     32 Si    c      -0.000090      0.000044     -0.001231      0.000000
     33 Si    c       0.000483     -0.000256     -0.000419      0.000000
     34 Si    c       0.000231      0.000038     -0.000216      0.000000
     35 Si    c       0.000003     -0.000083      0.000072      0.000000
     36 Si    c      -0.000523      0.000277     -0.000391      0.000000
     37 Si    c       0.000020      0.000094     -0.000385      0.000000
     38 Si    c       0.000243     -0.000145     -0.000963      0.000000
     39 Si    c      -0.000043      0.000045     -0.000035      0.000000
     40 Si    c       0.000022      0.000047     -0.000466      0.000000
     41 Si    c      -0.000181      0.000049     -0.000467      0.000000
     42 Si    c      -0.000032      0.000041     -0.000940      0.000000
     43 Si    c      -0.000055     -0.000035      0.000270      0.000000
     44 Si    c       0.000124     -0.000700     -0.000076      0.000000
     45 Si    c       0.000158     -0.000107      0.000071      0.000000
     46 Si    c      -0.000016      0.000290      0.000270      0.000000
     47 Si    c       0.000004     -0.000062      0.000015      0.000000
     48 Si    c      -0.000384      0.000213      0.000972      0.000000
     49 Si    c      -0.000055      0.000351     -0.000810      0.000000
     50 Si    c       0.000661     -0.000064     -0.002517      0.000000
     51 Si    c       0.000029     -0.000087      0.000001      0.000000
     52 Si    c       0.000085      0.000053     -0.000347      0.000000
     53 Si    c      -0.000055      0.000207     -0.001403      0.000000
     54 Si    c      -0.000486      0.000396      0.001036      0.000000
     55 Si    c       0.000050      0.000013      0.000131      0.000000
     56 Si    c      -0.000488     -0.000460      0.000438      0.000000
     57 Si    c       0.000372     -0.000072      0.000957      0.000000
     58 Si    c      -0.000553      0.000091     -0.000236      0.000000
     59 Si    c       0.000034     -0.000023     -0.000231      0.000000
     60 Si    c      -0.000123      0.000185      0.001666      0.000000
     61 O2    c       0.000749     -0.000033     -0.001540      0.000000
     62 O2    c      -0.000295     -0.000082     -0.000415      0.000000
     63 O2    c      -0.000182      0.000183      0.000196      0.000000
     64 O2    c       0.000049     -0.000014      0.000066      0.000000
     65 O2    c       0.000253     -0.000120     -0.000076      0.000000
     66 O2    c       0.000215     -0.000111      0.000427      0.000000
     67 O2    c       0.000140     -0.000153      0.000278      0.000000
     68 O2    c       0.000037      0.000052      0.000106      0.000000
     69 O2    c      -0.000043      0.000042      0.000034      0.000000
     70 O2    c      -0.000299      0.000358      0.000878      0.000000
     71 O2    c       0.000341     -0.000030     -0.000550      0.000000
     72 O2    c       0.000011      0.000030      0.000020      0.000000
     73 O3    c       0.000303      0.000421     -0.000040      0.000000
     74 O2    c       0.000023      0.000086     -0.000266      0.000000
     75 O2    c      -0.000030      0.000108      0.000338      0.000000
     76 O2    c       0.000003      0.000000      0.000025      0.000000
     77 O2    c      -0.000091      0.000058     -0.000126      0.000000
     78 O3    c       0.000094     -0.000272      0.000927      0.000000
     79 O2    c       0.000067      0.000116      0.000177      0.000000
     80 O2    c      -0.000223      0.000145     -0.000088      0.000000
     81 O2    c      -0.000023      0.000062     -0.000006      0.000000
     82 O2    c      -0.000026     -0.000007     -0.000040      0.000000
     83 O2    c       0.000334     -0.000245     -0.000065      0.000000
     84 O2    c       0.000068     -0.000080      0.000183      0.000000
     85 O2    c      -0.000002     -0.000042      0.000117      0.000000
     86 O2    c       0.000144     -0.000187      0.000038      0.000000
     87 O2    c      -0.000376      0.000097      0.000004      0.000000
     88 O2    c      -0.000025      0.000065      0.000206      0.000000
     89 O2    c       0.000023     -0.000010      0.000018      0.000000
     90 O2    c       0.000212     -0.000140      0.000089      0.000000
     91 O2    c      -0.000419     -0.000081      0.002138      0.000000
     92 O2    c      -0.000002      0.000012     -0.000174      0.000000
     93 O2    c       0.000139      0.000033      0.001124      0.000000
     94 O2    c      -0.000013      0.000043      0.000071      0.000000
     95 O2    c       0.000402     -0.000286     -0.000995      0.000000
     96 O2    c      -0.000045     -0.000035      0.000405      0.000000
     97 O2    c      -0.000202      0.000149     -0.000168      0.000000
     98 O2    c       0.000024      0.000020      0.000087      0.000000
     99 O3    c       0.000311     -0.000168      0.000364      0.000000
    100 O2    c      -0.000108      0.000121     -0.000012      0.000000
    101 O2    c      -0.000018     -0.000017      0.000182      0.000000
    102 O2    c       0.000037      0.000022      0.000075      0.000000
    103 O2    c       0.000119     -0.000015     -0.000326      0.000000
    104 O2    c       0.000213      0.000007      0.000020      0.000000
    105 O2    c      -0.000013     -0.000088     -0.000020      0.000000
    106 O2    c      -0.000375      0.000277     -0.000351      0.000000
    107 O2    c      -0.000036      0.000016     -0.000055      0.000000
    108 O2    c      -0.000033     -0.000141     -0.000105      0.000000
    109 O2    c       0.000047      0.000400      0.000624      0.000000
    110 O2    c      -0.000037      0.000022      0.000288      0.000000
    111 O2    c       0.000113     -0.000028     -0.000685      0.000000
    112 O2    c       0.000018     -0.000187     -0.000159      0.000000
    113 O2    c       0.000438     -0.000069      0.001188      0.000000
    114 O2    c      -0.000089      0.000111     -0.000148      0.000000
    115 O3    c       0.000127     -0.000041      0.000082      0.000000
    116 O2    c      -0.000043      0.000079      0.000071      0.000000
    117 O2    c      -0.000004     -0.000016     -0.000001      0.000000
    118 O2    c      -0.000034      0.000004     -0.000011      0.000000
    119 O3    c       0.000111     -0.000200     -0.000042      0.000000
    120 O2    c       0.000005     -0.000030     -0.000032      0.000000
    121 O2    c      -0.000016     -0.000003      0.000068      0.000000
    122 O2    c      -0.000120     -0.000079      0.000155      0.000000
    123 O2    c      -0.000069     -0.000039      0.000051      0.000000
    124 O2    c       0.000029     -0.000071     -0.000225      0.000000
    125 O2    c      -0.000025      0.000010     -0.000023      0.000000
    126 O2    c      -0.000017      0.000023     -0.000022      0.000000
    127 O2    c       0.000637     -0.000199     -0.000018      0.000000
    128 O2    c      -0.000001      0.000028      0.000102      0.000000
    129 O3    c      -0.000013      0.000035     -0.000112      0.000000
    130 O2    c       0.000000      0.000023     -0.000016      0.000000
    131 O2    c      -0.000177      0.000317      0.000087      0.000000
    132 O2    c       0.000016      0.000009      0.000005      0.000000
    133 O2    c       0.000049     -0.000111     -0.000012      0.000000
    134 O2    c      -0.000654      0.000287     -0.000158      0.000000
    135 O2    c       0.000028     -0.000004     -0.000031      0.000000
    136 O2    c       0.000112     -0.000137      0.000155      0.000000
    137 O2    c       0.000075     -0.000028     -0.000034      0.000000
    138 O2    c      -0.000035     -0.000026     -0.000258      0.000000
    139 O2    c       0.000899     -0.000360      0.000407      0.000000
    140 O2    c       0.000112     -0.000002      0.000069      0.000000
    141 O2    c      -0.000072      0.000125     -0.000171      0.000000
    142 O2    c       0.000021      0.000005     -0.000058      0.000000
    143 O2    c       0.000284     -0.000014     -0.000002      0.000000
    144 O2    c      -0.000104      0.000047     -0.000137      0.000000
    145 O2    c       0.000081      0.000050     -0.000007      0.000000
    146 O2    c       0.000051     -0.000136     -0.000127      0.000000
    147 O2    c       0.000070     -0.000045      0.000000      0.000000
    148 O2    c       0.000187      0.000047      0.000145      0.000000
    149 O2    c       0.000005     -0.000010     -0.000032      0.000000
    150 O2    c      -0.000022      0.000035     -0.000115      0.000000
    151 O2    c      -0.000035     -0.000012      0.001528      0.000000
    152 O2    c      -0.000204      0.000150      0.000417      0.000000
    153 O2    c      -0.000005      0.000020      0.000144      0.000000
    154 O2    c      -0.000069     -0.000152     -0.000331      0.000000
    155 O3    c       0.000441     -0.000256     -0.001361      0.000000
    156 O2    c      -0.000155      0.000269      0.001139      0.000000
    157 O2    c       0.000036      0.000087     -0.000163      0.000000
    158 O2    c       0.000147     -0.000313      0.000541      0.000000
    159 O2    c      -0.000397      0.000321      0.001989      0.000000
    160 O2    c       0.000196     -0.000056     -0.001555      0.000000
    161 O2    c       0.000006      0.000007      0.000016      0.000000
    162 O2    c       0.000210     -0.000074     -0.000574      0.000000
    163 O3    c      -0.000078     -0.000310     -0.000214      0.000000
    164 O2    c       0.000041      0.000070      0.000060      0.000000
    165 O2    c      -0.000032      0.000039     -0.000093      0.000000
    166 O2    c      -0.000012      0.000020     -0.000021      0.000000
    167 O3    c      -0.000084     -0.000086     -0.000357      0.000000
    168 O2    c       0.000095     -0.000064     -0.000217      0.000000
    169 O2    c      -0.000008     -0.000005      0.000011      0.000000
    170 O2    c      -0.000161      0.000023      0.000234      0.000000
    171 O3    c      -0.000015     -0.000027     -0.000001      0.000000
    172 O2    c       0.000265     -0.000109     -0.000153      0.000000
    173 O2    c       0.000003     -0.000024     -0.000015      0.000000
    174 O2    c      -0.000015     -0.000018      0.000053      0.000000
    175 O2    c       0.000005     -0.000368      0.000015      0.000000
    176 O2    c      -0.000012      0.000019      0.000167      0.000000
    177 O3    c       0.000086      0.000013     -0.000314      0.000000
    178 O3    c       0.000018      0.000848     -0.000219      0.000000
    179 O2    c      -0.000032      0.000044     -0.000205      0.000000
    180 O2    c       0.000078     -0.000116      0.000050      0.000000
    181 F     c      -0.000056      0.000018     -0.000143      0.000000
    182 F     c       0.000007     -0.000014     -0.000158      0.000000
    183 F     c       0.000086     -0.000295      0.000951      0.000000
    184 F     c       0.000007     -0.000016     -0.000333      0.000000
    185 F     c      -0.000051      0.000108     -0.000537      0.000000
    186 F     c      -0.000040     -0.000001      0.000071      0.000000
    187 O2    s       0.000024     -0.000126      0.000372      0.000000
    188 O2    s       0.000060     -0.000126     -0.000587      0.000000
    189 O2    s       0.000097      0.000042      0.000075      0.000000
    190 O2    s      -0.000023     -0.000034     -0.000058      0.000000
    191 O2    s       0.000010      0.000022     -0.000644      0.000000
    192 O2    s      -0.000098     -0.000039      0.000674      0.000000
    193 O2    s      -0.000069      0.000146     -0.000013      0.000000
    194 O2    s       0.000001     -0.000032      0.000108      0.000000
    195 O2    s       0.000007      0.000021      0.000131      0.000000
    196 O2    s       0.000056     -0.000059     -0.000266      0.000000
    197 O2    s      -0.000184      0.000031     -0.000018      0.000000
    198 O2    s      -0.000018     -0.000019     -0.000051      0.000000
    199 O3    s      -0.000372     -0.000128      0.000191      0.000000
    200 O2    s       0.000017     -0.000061      0.000098      0.000000
    201 O2    s      -0.000002     -0.000049     -0.000184      0.000000
    202 O2    s       0.000021     -0.000009     -0.000119      0.000000
    203 O2    s      -0.000013     -0.000021     -0.000035      0.000000
    204 O3    s      -0.000111      0.000078     -0.000589      0.000000
    205 O2    s       0.000030     -0.000028     -0.000588      0.000000
    206 O2    s       0.000158     -0.000234     -0.000184      0.000000
    207 O2    s       0.000016     -0.000035      0.000077      0.000000
    208 O2    s       0.000065      0.000003      0.000146      0.000000
    209 O2    s      -0.000060      0.000111      0.000178      0.000000
    210 O2    s      -0.000162      0.000452      0.000153      0.000000
    211 O2    s       0.000046      0.000006     -0.000243      0.000000
    212 O2    s       0.000264     -0.000411     -0.000496      0.000000
    213 O2    s       0.000176     -0.000044     -0.000022      0.000000
    214 O2    s      -0.000111     -0.000129     -0.000408      0.000000
    215 O2    s       0.000006     -0.000036      0.000013      0.000000
    216 O2    s       0.000027     -0.000005      0.000274      0.000000
    217 O2    s       0.000145      0.000179      0.000160      0.000000
    218 O2    s      -0.000064      0.000034     -0.000083      0.000000
    219 O2    s       0.000243     -0.000153     -0.000577      0.000000
    220 O2    s      -0.000153      0.000016     -0.000257      0.000000
    221 O2    s      -0.000350      0.000182      0.000363      0.000000
    222 O2    s       0.000062     -0.000074      0.000020      0.000000
    223 O2    s      -0.000103      0.000248      0.000421      0.000000
    224 O2    s      -0.000036      0.000173      0.000051      0.000000
    225 O3    s      -0.000137      0.000098      0.000257      0.000000
    226 O2    s      -0.000015      0.000047     -0.000212      0.000000
    227 O2    s      -0.000008     -0.000126      0.000015      0.000000
    228 O2    s      -0.000144     -0.000029      0.000510      0.000000
    229 O2    s      -0.000080      0.000018     -0.000101      0.000000
    230 O2    s      -0.000382      0.000192      0.000511      0.000000
    231 O2    s       0.000097     -0.000093     -0.000101      0.000000
    232 O2    s      -0.000125     -0.000019     -0.000560      0.000000
    233 O2    s      -0.000011      0.000018     -0.000030      0.000000
    234 O2    s       0.000113     -0.000134     -0.000137      0.000000
    235 O2    s      -0.000004     -0.000275     -0.000479      0.000000
    236 O2    s       0.000071     -0.000026     -0.000230      0.000000
    237 O2    s      -0.000112      0.000111      0.000417      0.000000
    238 O2    s      -0.000008     -0.000010     -0.000108      0.000000
    239 O2    s      -0.000198     -0.000276      0.000553      0.000000
    240 O2    s       0.000029     -0.000079      0.000223      0.000000
    241 O3    s       0.000165     -0.000262      0.000097      0.000000
    242 O2    s       0.000019     -0.000121      0.000029      0.000000
    243 O2    s       0.000015      0.000002      0.000039      0.000000
    244 O2    s       0.000021      0.000012      0.000095      0.000000
    245 O3    s      -0.000071      0.000056      0.000495      0.000000
    246 O2    s      -0.000152      0.000190     -0.000173      0.000000
    247 O2    s       0.000064      0.000005     -0.000153      0.000000
    248 O2    s       0.000183      0.000189     -0.000183      0.000000
    249 O2    s       0.000124     -0.000024     -0.000229      0.000000
    250 O2    s      -0.000120     -0.000026      0.000426      0.000000
    251 O2    s       0.000006      0.000012      0.000017      0.000000
    252 O2    s       0.000046     -0.000078     -0.000067      0.000000
    253 O2    s       0.000346     -0.000758     -0.000438      0.000000
    254 O2    s      -0.000032     -0.000059     -0.000304      0.000000
    255 O3    s       0.000009     -0.000093      0.000144      0.000000
    256 O2    s      -0.000004     -0.000023     -0.000090      0.000000
    257 O2    s      -0.000030      0.000041     -0.000502      0.000000
    258 O2    s       0.000006     -0.000062     -0.000248      0.000000
    259 O2    s      -0.000052      0.000120      0.000409      0.000000
    260 O2    s      -0.000121      0.000198      0.000637      0.000000
    261 O2    s      -0.000039      0.000011      0.000178      0.000000
    262 O2    s       0.000078     -0.000184     -0.000236      0.000000
    263 O2    s      -0.000029      0.000010      0.000147      0.000000
    264 O2    s       0.000229     -0.000277      0.000293      0.000000
    265 O2    s      -0.001039      0.001174     -0.000098      0.000000
    266 O2    s      -0.000007     -0.000032     -0.000118      0.000000
    267 O2    s      -0.000029      0.000048      0.000015      0.000000
    268 O2    s      -0.000010     -0.000014      0.000046      0.000000
    269 O2    s       0.000021     -0.000047      0.000086      0.000000
    270 O2    s       0.000112      0.000065      0.000229      0.000000
    271 O2    s       0.000041      0.000057     -0.000070      0.000000
    272 O2    s      -0.000069      0.000096      0.000332      0.000000
    273 O2    s      -0.000044      0.000041      0.000138      0.000000
    274 O2    s      -0.000142      0.000147      0.000096      0.000000
    275 O2    s      -0.000015      0.000027      0.000144      0.000000
    276 O2    s      -0.000100      0.000109      0.000446      0.000000
    277 O2    s      -0.000089     -0.000247     -0.000307      0.000000
    278 O2    s       0.000130     -0.000158      0.000152      0.000000
    279 O2    s      -0.000025     -0.000003     -0.000085      0.000000
    280 O2    s      -0.000007      0.000187      0.000200      0.000000
    281 O3    s      -0.000280      0.000216      0.000003      0.000000
    282 O2    s       0.000256     -0.000399     -0.000898      0.000000
    283 O2    s       0.000017     -0.000117      0.000267      0.000000
    284 O2    s      -0.000291      0.000586     -0.000239      0.000000
    285 O2    s       0.000130     -0.000134     -0.000292      0.000000
    286 O2    s       0.000032      0.000146     -0.000275      0.000000
    287 O2    s       0.000012     -0.000049     -0.000066      0.000000
    288 O2    s      -0.000106     -0.000008      0.000127      0.000000
    289 O3    s       0.000807     -0.000636      0.001602      0.000000
    290 O2    s       0.000075     -0.000149     -0.000038      0.000000
    291 O2    s      -0.000007     -0.000016      0.000228      0.000000
    292 O2    s       0.000034     -0.000022      0.000112      0.000000
    293 O3    s       0.000034      0.000345     -0.000059      0.000000
    294 O2    s       0.000094     -0.000178      0.000313      0.000000
    295 O2    s      -0.000030      0.000029     -0.000094      0.000000
    296 O2    s       0.000070     -0.000104      0.000152      0.000000
    297 O3    s      -0.000003      0.000180     -0.000047      0.000000
    298 O2    s       0.000207     -0.000030     -0.000053      0.000000
    299 O2    s      -0.000032      0.000017     -0.000004      0.000000
    300 O2    s      -0.000091      0.000107     -0.000126      0.000000
    301 O2    s      -0.000031      0.000204     -0.000133      0.000000
    302 O2    s      -0.000037     -0.000015     -0.000153      0.000000
    303 O3    s      -0.000446      0.000415      0.000088      0.000000
    304 O3    s       0.000042     -0.000865     -0.000325      0.000000
    305 O2    s       0.000030     -0.000160      0.000266      0.000000
    306 O2    s      -0.000059      0.000130     -0.000166      0.000000
    307 F     s       0.000087      0.000032      0.000217      0.000000
    308 F     s      -0.000000      0.000018      0.000206      0.000000
    309 F     s       0.000614     -0.000555     -0.000085      0.000000
    310 F     s       0.000123      0.000217     -0.000126      0.000000
    311 F     s       0.000206     -0.000300      0.000967      0.000000
    312 F     s       0.000081     -0.000005     -0.000150      0.000000
--------------------------------------------------------------------------------
  Maximum abs         0.001039      0.001174      0.002517      0.000000
--------------------------------------------------------------------------------


  Time to end of optimisation =       5.8414 seconds


  Peak dynamic memory used =      19.13 MB 


  Timing analysis for GULP :

--------------------------------------------------------------------------------
  Task / Subroutine                                          Time (Seconds)
--------------------------------------------------------------------------------
  Calculation of reciprocal space energy and derivatives          0.2549
  Calculation of real space energy and derivatives                4.8416
  Calculation of three-body energy and derivatives                0.5182
  Calculation of matrix inversion                                 0.1921
--------------------------------------------------------------------------------
  Total CPU time                                                  5.8414
--------------------------------------------------------------------------------


  Dump file written as out.res                                                 
  CIF file written as out.cif                                                 


  Job Finished at 04:25.32 30th November   2016                               

