********************************************************************************
*                       GENERAL UTILITY LATTICE PROGRAM                        *
*                                 Julian Gale                                  *
*                      Nanochemistry Research Institute                        *
*                           Department of Chemistry                            *
*                    Curtin University, Western Australia                      *
********************************************************************************
* Version = 4.2.0 * Last modified =  20th January 2014                         *
********************************************************************************
*  optimise     - perform optimisation run                                     *
*  conp         - constant pressure calculation                                *
*  qok          - running with non charge neutral cell is OK                   *
********************************************************************************

  Job Started  at 03:44.08 30th November   2016                               

  Number of CPUs =     1


  Total number of configurations input =   1

********************************************************************************
*  Input for Configuration =   1                                               *
********************************************************************************

  Formula = Si57Ge3O120F6                                               

  Number of irreducible atoms/shells =     312


  Total number atoms/shells =     312

  Dimensionality = 3               :  Bulk   


  Charge on solid   =  -6.000000 =>neutralising background added


  Cartesian lattice vectors (Angstroms) :

       11.983046    0.000000    0.000000
       -5.895207   10.334806    0.000000
        0.089603    0.147594   29.543984

  Cell parameters (Angstroms/Degrees):

  a =      11.9830    alpha =  89.8375
  b =      11.8980    beta  =  89.8262
  c =      29.5445    gamma = 119.7014

  Initial cell volume =        3658.799662 Angs**3

  Temperature of configuration =  0.000     K 

  Pressure of configuration =         0.000 GPa 

  Fractional coordinates of asymmetric unit :

--------------------------------------------------------------------------------
   No.  Atomic       x           y          z         Charge      Occupancy
        Label      (Frac)      (Frac)     (Frac)        (e)         (Frac)  
--------------------------------------------------------------------------------
      1 Si    c    0.699600    0.375700    0.033890     4.00000    1.000000    
      2 Si    c    0.620882 *  0.322971 *  0.366974 *   4.00000    1.000000    
      3 Si    c    0.671625 *  0.284323 *  0.699416 *   4.00000    1.000000    
      4 Si    c    0.298286 *  0.623763 *  0.531089 *   4.00000    1.000000    
      5 Si    c    0.382168 *  0.681589 *  0.868590 *   4.00000    1.000000    
      6 Si    c    0.324264 *  0.702906 *  0.200419 *   4.00000    1.000000    
      7 Si    c    0.378882 *  0.704452 *  0.300662 *   4.00000    1.000000    
      8 Si    c    0.327515 *  0.623021 *  0.971138 *   4.00000    1.000000    
      9 Si    c    0.305490 *  0.678250 *  0.633389 *   4.00000    1.000000    
     10 Si    c    0.622204 *  0.294764 *  0.800992 *   4.00000    1.000000    
     11 Si    c    0.673612 *  0.379431 *  0.467076 *   4.00000    1.000000    
     12 Si    c    0.703993 *  0.324884 *  0.135324 *   4.00000    1.000000    
     13 Ge    c    0.533839 *  0.431146 *  0.966614 *   4.00000    1.000000    
     14 Si    c    0.581013 *  0.112608 *  0.301892 *   4.00000    1.000000    
     15 Si    c    0.879805 *  0.466516 *  0.634843 *   4.00000    1.000000    
     16 Si    c    0.469797 *  0.582213 *  0.466658 *   4.00000    1.000000    
     17 Ge    c    0.436846 *  0.899926 *  0.799262 *   4.00000    1.000000    
     18 Si    c    0.114209 *  0.531565 *  0.135834 *   4.00000    1.000000    
     19 Si    c    0.417466 *  0.532250 *  0.365566 *   4.00000    1.000000    
     20 Si    c    0.112910 *  0.582536 *  0.034674 *   4.00000    1.000000    
     21 Si    c    0.474647 *  0.867627 *  0.700989 *   4.00000    1.000000    
     22 Si    c    0.592938 *  0.468775 *  0.867335 *   4.00000    1.000000    
     23 Si    c    0.883231 *  0.417238 *  0.531605 *   4.00000    1.000000    
     24 Si    c    0.530474 *  0.115315 *  0.200532 *   4.00000    1.000000    
     25 Si    c    0.306930 *  0.397154 *  0.855460 *   4.00000    1.000000    
     26 Si    c    0.602472 *  0.904406 *  0.186082 *   4.00000    1.000000    
     27 Si    c    0.095791 *  0.703286 *  0.514945 *   4.00000    1.000000    
     28 Si    c    0.698238 *  0.602876 *  0.352299 *   4.00000    1.000000    
     29 Si    c    0.392420 *  0.076959 *  0.686049 *   4.00000    1.000000    
     30 Si    c    0.904799 *  0.301387 *  0.020815 *   4.00000    1.000000    
     31 Si    c    0.395968 *  0.300635 *  0.481812 *   4.00000    1.000000    
     32 Si    c    0.905243 *  0.602713 *  0.149824 *   4.00000    1.000000    
     33 Si    c    0.707757 *  0.095327 *  0.820713 *   4.00000    1.000000    
     34 Si    c    0.609822 *  0.705112 *  0.988183 *   4.00000    1.000000    
     35 Si    c    0.094343 *  0.396598 *  0.649079 *   4.00000    1.000000    
     36 Si    c    0.301183 *  0.905377 *  0.316301 *   4.00000    1.000000    
     37 Si    c    0.254945 *  0.334784 *  0.957150 *   4.00000    1.000000    
     38 Si    c    0.659029 *  0.910856 *  0.286528 *   4.00000    1.000000    
     39 Ge    c    0.090241 *  0.731637 *  0.614787 *   4.00000    1.000000    
     40 Si    c    0.748411 *  0.662228 *  0.452625 *   4.00000    1.000000    
     41 Si    c    0.335648 *  0.080019 *  0.788004 *   4.00000    1.000000    
     42 Si    c    0.913545 *  0.253772 *  0.121200 *   4.00000    1.000000    
     43 Si    c    0.339889 *  0.251942 *  0.381339 *   4.00000    1.000000    
     44 Si    c    0.910170 *  0.658451 *  0.049261 *   4.00000    1.000000    
     45 Si    c    0.752052 *  0.076867 *  0.718163 *   4.00000    1.000000    
     46 Si    c    0.666803 *  0.749974 *  0.885254 *   4.00000    1.000000    
     47 Si    c    0.085167 *  0.337256 *  0.547240 *   4.00000    1.000000    
     48 Si    c    0.252358 *  0.913771 *  0.215824 *   4.00000    1.000000    
     49 Si    c    0.972938 *  0.122162 *  0.970541 *   4.00000    1.000000    
     50 Si    c    0.878533 *  0.850674 *  0.301600 *   4.00000    1.000000    
     51 Si    c    0.147278 *  0.016652 *  0.634639 *   4.00000    1.000000    
     52 Si    c    0.026809 *  0.881248 *  0.466294 *   4.00000    1.000000    
     53 Si    c    0.125022 *  0.154643 *  0.802857 *   4.00000    1.000000    
     54 Si    c    0.852101 *  0.973854 *  0.136863 *   4.00000    1.000000    
     55 Si    c    0.120669 *  0.974519 *  0.366084 *   4.00000    1.000000    
     56 Si    c    0.853893 *  0.883283 *  0.036468 *   4.00000    1.000000    
     57 Si    c    0.034143 *  0.149057 *  0.700960 *   4.00000    1.000000    
     58 Si    c    0.887641 *  0.031611 *  0.869687 *   4.00000    1.000000    
     59 Si    c    0.150920 *  0.119121 *  0.534174 *   4.00000    1.000000    
     60 Si    c    0.972907 *  0.850265 *  0.201143 *   4.00000    1.000000    
     61 O2    c    0.937624 *  0.003442 *  0.003847 *   0.87073    1.000000    
     62 O2    c    0.999235 *  0.932133 *  0.333967 *   0.87073    1.000000    
     63 O2    c    0.079370 *  0.070714 *  0.669248 *   0.87073    1.000000    
     64 O2    c    0.070623 *  0.997409 *  0.501822 *   0.87073    1.000000    
     65 O2    c    0.005898 *  0.068882 *  0.835755 *   0.87073    1.000000    
     66 O2    c    0.930614 *  0.932617 *  0.170165 *   0.87073    1.000000    
     67 O2    c    0.340284 *  0.580069 *  0.333333 *   0.87073    1.000000    
     68 O2    c    0.434735 *  0.753075 *  0.663813 *   0.87073    1.000000    
     69 O2    c    0.239040 *  0.659479 *  0.002375 *   0.87073    1.000000    
     70 O2    c    0.662546 *  0.424599 *  0.829222 *   0.87073    1.000000    
     71 O2    c    0.580499 *  0.241249 *  0.168213 *   0.87073    1.000000    
     72 O2    c    0.758651 *  0.340613 *  0.499788 *   0.87073    1.000000    
     73 O3    c    0.582976 *  0.342114 *  0.001921 *   1.33043    1.000000    
     74 O2    c    0.750282 *  0.403552 *  0.665375 *   0.87073    1.000000    
     75 O2    c    0.658625 *  0.237729 *  0.334436 *   0.87073    1.000000    
     76 O2    c    0.419579 *  0.659205 *  0.498699 *   0.87073    1.000000    
     77 O2    c    0.239949 *  0.580525 *  0.167925 *   0.87073    1.000000    
     78 O3    c    0.348941 *  0.764316 *  0.836318 *   1.33043    1.000000    
     79 O2    c    0.123900 *  0.215374 *  0.976444 *   0.87073    1.000000    
     80 O2    c    0.785775 *  0.912320 *  0.306612 *   0.87073    1.000000    
     81 O3    c    0.079967 *  0.866503 *  0.637498 *   1.33043    1.000000    
     82 O2    c    0.872852 *  0.790165 *  0.472298 *   0.87073    1.000000    
     83 O2    c    0.216183 *  0.092535 *  0.806716 *   0.87073    1.000000    
     84 O2    c    0.913811 *  0.127814 *  0.142311 *   0.87073    1.000000    
     85 O2    c    0.214448 *  0.128638 *  0.360224 *   0.87073    1.000000    
     86 O2    c    0.908522 *  0.784942 *  0.029375 *   0.87073    1.000000    
     87 O2    c    0.879723 *  0.083252 *  0.696861 *   0.87073    1.000000    
     88 O2    c    0.789593 *  0.878231 *  0.864213 *   0.87073    1.000000    
     89 O2    c    0.087689 *  0.211860 *  0.528116 *   0.87073    1.000000    
     90 O2    c    0.126699 *  0.913952 *  0.195727 *   0.87073    1.000000    
     91 O2    c    0.933247 *  0.861817 *  0.251786 *   0.87073    1.000000    
     92 O2    c    0.141595 *  0.073092 *  0.585357 *   0.87073    1.000000    
     93 O2    c    0.938551 *  0.066575 *  0.920164 *   0.87073    1.000000    
     94 O2    c    0.074361 *  0.146021 *  0.752221 *   0.87073    1.000000    
     95 O2    c    0.870804 *  0.934222 *  0.087171 *   0.87073    1.000000    
     96 O2    c    0.066056 *  0.941984 *  0.416747 *   0.87073    1.000000    
     97 O2    c    0.900169 *  0.201883 *  0.982082 *   0.87073    1.000000    
     98 O2    c    0.797342 *  0.698709 *  0.314189 *   0.87073    1.000000    
     99 O2    c    0.299377 *  0.077595 *  0.646859 *   0.87073    1.000000    
    100 O2    c    0.093439 *  0.793124 *  0.473618 *   0.87073    1.000000    
    101 O2    c    0.207188 *  0.305000 *  0.816754 *   0.87073    1.000000    
    102 O2    c    0.699891 *  0.903388 *  0.147988 *   0.87073    1.000000    
    103 O2    c    0.202054 *  0.903069 *  0.354780 *   0.87073    1.000000    
    104 O2    c    0.703393 *  0.815407 *  0.023969 *   0.87073    1.000000    
    105 O2    c    0.098011 *  0.299974 *  0.686727 *   0.87073    1.000000    
    106 O2    c    0.817729 *  0.113553 *  0.856734 *   0.87073    1.000000    
    107 O2    c    0.300851 *  0.202240 *  0.520520 *   0.87073    1.000000    
    108 O2    c    0.903186 *  0.699226 *  0.188336 *   0.87073    1.000000    
    109 O2    c    0.322498 *  0.645542 *  0.250876 *   0.87073    1.000000    
    110 O2    c    0.351893 *  0.675606 *  0.581506 *   0.87073    1.000000    
    111 O2    c    0.331524 *  0.676162 *  0.920319 *   0.87073    1.000000    
    112 O2    c    0.673758 *  0.339102 *  0.749556 *   0.87073    1.000000    
    113 O2    c    0.648076 *  0.323917 *  0.085428 *   0.87073    1.000000    
    114 O2    c    0.675555 *  0.321334 *  0.417420 *   0.87073    1.000000    
    115 O3    c    0.367398 *  0.316263 *  0.976423 *   1.33043    1.000000    
    116 O2    c    0.668277 *  0.043224 *  0.305201 *   0.87073    1.000000    
    117 O3    c    0.941107 *  0.618040 *  0.640315 *   1.33043    1.000000    
    118 O2    c    0.624874 *  0.670254 *  0.471209 *   0.87073    1.000000    
    119 O3    c    0.321219 *  0.951301 *  0.808955 *   1.33043    1.000000    
    120 O2    c    0.045610 *  0.374870 *  0.139888 *   0.87073    1.000000    
    121 O2    c    0.330501 *  0.375744 *  0.363722 *   0.87073    1.000000    
    122 O2    c    0.044560 *  0.670926 *  0.031469 *   0.87073    1.000000    
    123 O2    c    0.632188 *  0.942113 *  0.701325 *   0.87073    1.000000    
    124 O2    c    0.677541 *  0.627236 *  0.866819 *   0.87073    1.000000    
    125 O2    c    0.954475 *  0.331191 *  0.529969 *   0.87073    1.000000    
    126 O2    c    0.374736 *  0.046930 *  0.197976 *   0.87073    1.000000    
    127 O2    c    0.771468 *  0.300535 *  0.013862 *   0.87073    1.000000    
    128 O2    c    0.697379 *  0.467648 *  0.345498 *   0.87073    1.000000    
    129 O2    c    0.526744 *  0.211646 *  0.680618 *   0.87073    1.000000    
    130 O2    c    0.228934 *  0.698985 *  0.509816 *   0.87073    1.000000    
    131 O2    c    0.309747 *  0.532858 *  0.850527 *   0.87073    1.000000    
    132 O2    c    0.468280 *  0.771068 *  0.178843 *   0.87073    1.000000    
    133 O2    c    0.302886 *  0.771308 *  0.323903 *   0.87073    1.000000    
    134 O2    c    0.470911 *  0.698209 *  0.992223 *   0.87073    1.000000    
    135 O2    c    0.226925 *  0.531581 *  0.654069 *   0.87073    1.000000    
    136 O2    c    0.696759 *  0.226128 *  0.823347 *   0.87073    1.000000    
    137 O2    c    0.531338 *  0.303872 *  0.490069 *   0.87073    1.000000    
    138 O2    c    0.772690 *  0.468097 *  0.157946 *   0.87073    1.000000    
    139 O2    c    0.788168 *  0.532922 *  0.029357 *   0.87073    1.000000    
    140 O2    c    0.465814 *  0.251748 *  0.362306 *   0.87073    1.000000    
    141 O2    c    0.739003 *  0.196058 *  0.698191 *   0.87073    1.000000    
    142 O2    c    0.206389 *  0.468526 *  0.529200 *   0.87073    1.000000    
    143 O2    c    0.536595 *  0.739849 *  0.867025 *   0.87073    1.000000    
    144 O2    c    0.252570 *  0.787721 *  0.196221 *   0.87073    1.000000    
    145 O2    c    0.534446 *  0.783497 *  0.306141 *   0.87073    1.000000    
    146 O2    c    0.262263 *  0.467787 *  0.974535 *   0.87073    1.000000    
    147 O3    c    0.234915 *  0.761067 *  0.640917 *   1.33043    1.000000    
    148 O2    c    0.467728 *  0.207374 *  0.804032 *   0.87073    1.000000    
    149 O2    c    0.750372 *  0.536244 *  0.472309 *   0.87073    1.000000    
    150 O2    c    0.785717 *  0.250056 *  0.140616 *   0.87073    1.000000    
    151 O2    c    0.241805 *  0.323167 *  0.902198 *   0.87073    1.000000    
    152 O2    c    0.676436 *  0.908713 *  0.232423 *   0.87073    1.000000    
    153 O3    c    0.093033 *  0.782302 *  0.558016 *   1.33043    1.000000    
    154 O2    c    0.766790 *  0.678518 *  0.398458 *   0.87073    1.000000    
    155 O2    c    0.322170 *  0.073843 *  0.733091 *   0.87073    1.000000    
    156 O2    c    0.912356 *  0.232016 *  0.067143 *   0.87073    1.000000    
    157 O2    c    0.322620 *  0.230289 *  0.435611 *   0.87073    1.000000    
    158 O2    c    0.907981 *  0.676615 *  0.103497 *   0.87073    1.000000    
    159 O2    c    0.769001 *  0.085319 *  0.772182 *   0.87073    1.000000    
    160 O2    c    0.679750 *  0.765427 *  0.939382 *   0.87073    1.000000    
    161 O2    c    0.086718 *  0.327861 *  0.601393 *   0.87073    1.000000    
    162 O2    c    0.231917 *  0.910817 *  0.270083 *   0.87073    1.000000    
    163 O3    c    0.606132 *  0.574585 *  0.000906 *   1.33043    1.000000    
    164 O2    c    0.439907 *  0.030911 *  0.325336 *   0.87073    1.000000    
    165 O2    c    0.969880 *  0.412633 *  0.656775 *   0.87073    1.000000    
    166 O2    c    0.407066 *  0.440072 *  0.490375 *   0.87073    1.000000    
    167 O3    c    0.579204 *  0.968150 *  0.833573 *   1.33043    1.000000    
    168 O2    c    0.032124 *  0.591399 *  0.159072 *   0.87073    1.000000    
    169 O2    c    0.558895 *  0.587570 *  0.343224 *   0.87073    1.000000    
    170 O2    c    0.030451 *  0.441023 *  0.011536 *   0.87073    1.000000    
    171 O2    c    0.421287 *  0.959742 *  0.680450 *   0.87073    1.000000    
    172 O2    c    0.447783 *  0.414873 *  0.847351 *   0.87073    1.000000    
    173 O2    c    0.972878 *  0.559112 *  0.509794 *   0.87073    1.000000    
    174 O2    c    0.586694 *  0.029603 *  0.177786 *   0.87073    1.000000    
    175 O2    c    0.582373 *  0.167458 *  0.251368 *   0.87073    1.000000    
    176 O2    c    0.835085 *  0.418503 *  0.582837 *   0.87073    1.000000    
    177 O3    c    0.601953 *  0.410372 *  0.914568 *   1.33043    1.000000    
    178 O3    c    0.417391 *  0.805664 *  0.749104 *   1.33043    1.000000    
    179 O2    c    0.168484 *  0.584043 *  0.085064 *   0.87073    1.000000    
    180 O2    c    0.418177 *  0.585792 *  0.416291 *   0.87073    1.000000    
    181 F     c    0.452164 *  0.904781 *  0.252730 *   0.56000    1.000000    
    182 F     c    0.091670 *  0.582801 *  0.588512 *   0.56000    1.000000    
    183 F     c    0.477595 *  0.524033 *  0.929505 *   0.56000    1.000000    
    184 F     c    0.527658 *  0.046029 *  0.761739 *   0.56000    1.000000    
    185 F     c    0.911567 *  0.453815 *  0.086623 *   0.56000    1.000000    
    186 F     c    0.547816 *  0.453498 *  0.419048 *   0.56000    1.000000    
    187 O2    s    0.932109 *  0.003322 *  0.003749 *  -2.87073    1.000000    
    188 O2    s    0.999519 *  0.927881 *  0.333991 *  -2.87073    1.000000    
    189 O2    s    0.081274 *  0.074060 *  0.669273 *  -2.87073    1.000000    
    190 O2    s    0.074715 *  0.998173 *  0.501506 *  -2.87073    1.000000    
    191 O2    s    0.006108 *  0.074321 *  0.835833 *  -2.87073    1.000000    
    192 O2    s    0.926566 *  0.927870 *  0.169940 *  -2.87073    1.000000    
    193 O2    s    0.352346 *  0.587662 *  0.333416 *  -2.87073    1.000000    
    194 O2    s    0.425671 *  0.756858 *  0.664422 *  -2.87073    1.000000    
    195 O2    s    0.235543 *  0.647877 *  0.002365 *  -2.87073    1.000000    
    196 O2    s    0.651338 *  0.414997 *  0.829923 *  -2.87073    1.000000    
    197 O2    s    0.587736 *  0.236513 *  0.168272 *  -2.87073    1.000000    
    198 O2    s    0.763258 *  0.352608 *  0.499847 *  -2.87073    1.000000    
    199 O3    s    0.592258 *  0.351837 *  0.002967 *  -3.33043    1.000000    
    200 O2    s    0.755159 *  0.397017 *  0.665918 *  -2.87073    1.000000    
    201 O2    s    0.646777 *  0.233963 *  0.334559 *  -2.87073    1.000000    
    202 O2    s    0.411606 *  0.647555 *  0.498942 *  -2.87073    1.000000    
    203 O2    s    0.236051 *  0.588362 *  0.168085 *  -2.87073    1.000000    
    204 O3    s    0.358561 *  0.763992 *  0.837486 *  -3.33043    1.000000    
    205 O2    s    0.121030 *  0.217822 *  0.973704 *  -2.87073    1.000000    
    206 O2    s    0.782613 *  0.905582 *  0.304040 *  -2.87073    1.000000    
    207 O3    s    0.088276 *  0.874687 *  0.635719 *  -3.33043    1.000000    
    208 O2    s    0.876106 *  0.786512 *  0.469677 *  -2.87073    1.000000    
    209 O2    s    0.218957 *  0.098199 *  0.804255 *  -2.87073    1.000000    
    210 O2    s    0.907090 *  0.124168 *  0.139568 *  -2.87073    1.000000    
    211 O2    s    0.217588 *  0.125157 *  0.363019 *  -2.87073    1.000000    
    212 O2    s    0.902845 *  0.782358 *  0.032163 *  -2.87073    1.000000    
    213 O2    s    0.882574 *  0.089491 *  0.699504 *  -2.87073    1.000000    
    214 O2    s    0.787374 *  0.881278 *  0.866922 *  -2.87073    1.000000    
    215 O2    s    0.093845 *  0.215933 *  0.530767 *  -2.87073    1.000000    
    216 O2    s    0.123490 *  0.907199 *  0.198368 *  -2.87073    1.000000    
    217 O2    s    0.931408 *  0.859236 *  0.251838 *  -2.87073    1.000000    
    218 O2    s    0.143232 *  0.072416 *  0.584694 *  -2.87073    1.000000    
    219 O2    s    0.936523 *  0.068734 *  0.919946 *  -2.87073    1.000000    
    220 O2    s    0.075457 *  0.147316 *  0.752076 *  -2.87073    1.000000    
    221 O2    s    0.866732 *  0.932941 *  0.087069 *  -2.87073    1.000000    
    222 O2    s    0.067670 *  0.938706 *  0.416734 *  -2.87073    1.000000    
    223 O2    s    0.908438 *  0.203349 *  0.984723 *  -2.87073    1.000000    
    224 O2    s    0.795623 *  0.704842 *  0.316838 *  -2.87073    1.000000    
    225 O2    s    0.294243 *  0.071526 *  0.649805 *  -2.87073    1.000000    
    226 O2    s    0.086701 *  0.793250 *  0.476979 *  -2.87073    1.000000    
    227 O2    s    0.208478 *  0.298253 *  0.819163 *  -2.87073    1.000000    
    228 O2    s    0.705815 *  0.910863 *  0.150736 *  -2.87073    1.000000    
    229 O2    s    0.203334 *  0.910854 *  0.352141 *  -2.87073    1.000000    
    230 O2    s    0.709880 *  0.811550 *  0.021692 *  -2.87073    1.000000    
    231 O2    s    0.090912 *  0.294431 *  0.684214 *  -2.87073    1.000000    
    232 O2    s    0.813954 *  0.103150 *  0.854429 *  -2.87073    1.000000    
    233 O2    s    0.294623 *  0.203459 *  0.518004 *  -2.87073    1.000000    
    234 O2    s    0.910922 *  0.705726 *  0.185817 *  -2.87073    1.000000    
    235 O2    s    0.328485 *  0.657427 *  0.250881 *  -2.87073    1.000000    
    236 O2    s    0.341550 *  0.670434 *  0.581447 *  -2.87073    1.000000    
    237 O2    s    0.336206 *  0.671200 *  0.920450 *  -2.87073    1.000000    
    238 O2    s    0.668197 *  0.328667 *  0.749544 *  -2.87073    1.000000    
    239 O2    s    0.659071 *  0.329133 *  0.085623 *  -2.87073    1.000000    
    240 O2    s    0.669806 *  0.327462 *  0.417428 *  -2.87073    1.000000    
    241 O3    s    0.366625 *  0.326016 *  0.973683 *  -3.33043    1.000000    
    242 O2    s    0.658257 *  0.036510 *  0.302895 *  -2.87073    1.000000    
    243 O3    s    0.945092 *  0.610036 *  0.637946 *  -3.33043    1.000000    
    244 O2    s    0.621701 *  0.660307 *  0.468804 *  -2.87073    1.000000    
    245 O3    s    0.330642 *  0.961543 *  0.806020 *  -3.33043    1.000000    
    246 O2    s    0.038919 *  0.378410 *  0.137512 *  -2.87073    1.000000    
    247 O2    s    0.340557 *  0.378868 *  0.365808 *  -2.87073    1.000000    
    248 O2    s    0.037861 *  0.660528 *  0.033632 *  -2.87073    1.000000    
    249 O2    s    0.629498 *  0.949109 *  0.703102 *  -2.87073    1.000000    
    250 O2    s    0.668163 *  0.624361 *  0.868789 *  -2.87073    1.000000    
    251 O2    s    0.961032 *  0.340598 *  0.531964 *  -2.87073    1.000000    
    252 O2    s    0.377882 *  0.039991 *  0.200125 *  -2.87073    1.000000    
    253 O2    s    0.778798 *  0.308251 *  0.016695 *  -2.87073    1.000000    
    254 O2    s    0.689519 *  0.466959 *  0.348492 *  -2.87073    1.000000    
    255 O2    s    0.528322 *  0.205416 *  0.683220 *  -2.87073    1.000000    
    256 O2    s    0.222566 *  0.691565 *  0.512603 *  -2.87073    1.000000    
    257 O2    s    0.316735 *  0.532969 *  0.852897 *  -2.87073    1.000000    
    258 O2    s    0.467612 *  0.778086 *  0.181852 *  -2.87073    1.000000    
    259 O2    s    0.310486 *  0.778588 *  0.320695 *  -2.87073    1.000000    
    260 O2    s    0.470114 *  0.691090 *  0.989596 *  -2.87073    1.000000    
    261 O2    s    0.220515 *  0.531794 *  0.651430 *  -2.87073    1.000000    
    262 O2    s    0.690059 *  0.219850 *  0.820716 *  -2.87073    1.000000    
    263 O2    s    0.531822 *  0.311315 *  0.486813 *  -2.87073    1.000000    
    264 O2    s    0.779658 *  0.467642 *  0.154749 *  -2.87073    1.000000    
    265 O2    s    0.793197 *  0.531257 *  0.032019 *  -2.87073    1.000000    
    266 O2    s    0.468338 *  0.259360 *  0.364860 *  -2.87073    1.000000    
    267 O2    s    0.733089 *  0.192673 *  0.700451 *  -2.87073    1.000000    
    268 O2    s    0.202706 *  0.470541 *  0.531374 *  -2.87073    1.000000    
    269 O2    s    0.535202 *  0.734835 *  0.869210 *  -2.87073    1.000000    
    270 O2    s    0.260219 *  0.792685 *  0.198784 *  -2.87073    1.000000    
    271 O2    s    0.531807 *  0.789131 *  0.303504 *  -2.87073    1.000000    
    272 O2    s    0.268698 *  0.470779 *  0.972392 *  -2.87073    1.000000    
    273 O3    s    0.231222 *  0.750493 *  0.638285 *  -3.33043    1.000000    
    274 O2    s    0.470792 *  0.203596 *  0.802083 *  -2.87073    1.000000    
    275 O2    s    0.742198 *  0.533567 *  0.469714 *  -2.87073    1.000000    
    276 O2    s    0.791089 *  0.258353 *  0.138001 *  -2.87073    1.000000    
    277 O2    s    0.250113 *  0.332210 *  0.902710 *  -2.87073    1.000000    
    278 O2    s    0.666852 *  0.908483 *  0.233369 *  -2.87073    1.000000    
    279 O3    s    0.093119 *  0.770712 *  0.557697 *  -3.33043    1.000000    
    280 O2    s    0.757663 *  0.668886 *  0.399447 *  -2.87073    1.000000    
    281 O2    s    0.330984 *  0.074744 *  0.733653 *  -2.87073    1.000000    
    282 O2    s    0.911739 *  0.241508 *  0.068025 *  -2.87073    1.000000    
    283 O2    s    0.332131 *  0.239928 *  0.434773 *  -2.87073    1.000000    
    284 O2    s    0.907934 *  0.666909 *  0.102723 *  -2.87073    1.000000    
    285 O2    s    0.761104 *  0.085312 *  0.771043 *  -2.87073    1.000000    
    286 O2    s    0.671508 *  0.757792 *  0.938330 *  -2.87073    1.000000    
    287 O2    s    0.087347 *  0.336236 *  0.600571 *  -2.87073    1.000000    
    288 O2    s    0.241363 *  0.910579 *  0.269256 *  -2.87073    1.000000    
    289 O3    s    0.601462 *  0.578940 *  0.997224 *  -3.33043    1.000000    
    290 O2    s    0.439657 *  0.025773 *  0.321951 *  -2.87073    1.000000    
    291 O2    s    0.974510 *  0.416355 *  0.653781 *  -2.87073    1.000000    
    292 O2    s    0.412466 *  0.439943 *  0.487030 *  -2.87073    1.000000    
    293 O3    s    0.583341 *  0.977247 *  0.829921 *  -3.33043    1.000000    
    294 O2    s    0.026951 *  0.586226 *  0.155666 *  -2.87073    1.000000    
    295 O2    s    0.559140 *  0.583242 *  0.346566 *  -2.87073    1.000000    
    296 O2    s    0.025584 *  0.440912 *  0.014912 *  -2.87073    1.000000    
    297 O2    s    0.423654 *  0.963620 *  0.683167 *  -2.87073    1.000000    
    298 O2    s    0.446909 *  0.418357 *  0.850209 *  -2.87073    1.000000    
    299 O2    s    0.976304 *  0.559040 *  0.512682 *  -2.87073    1.000000    
    300 O2    s    0.582321 *  0.024810 *  0.181084 *  -2.87073    1.000000    
    301 O2    s    0.576878 *  0.156368 *  0.251433 *  -2.87073    1.000000    
    302 O2    s    0.844653 *  0.423220 *  0.582654 *  -2.87073    1.000000    
    303 O3    s    0.596584 *  0.417830 *  0.913007 *  -3.33043    1.000000    
    304 O3    s    0.424603 *  0.818291 *  0.747455 *  -3.33043    1.000000    
    305 O2    s    0.157158 *  0.578448 *  0.085134 *  -2.87073    1.000000    
    306 O2    s    0.423562 *  0.579918 *  0.416367 *  -2.87073    1.000000    
    307 F     s    0.451959 *  0.904280 *  0.252932 *  -1.56000    1.000000    
    308 F     s    0.091705 *  0.591234 *  0.589975 *  -1.56000    1.000000    
    309 F     s    0.481462 *  0.518122 *  0.931838 *  -1.56000    1.000000    
    310 F     s    0.521755 *  0.036138 *  0.764296 *  -1.56000    1.000000    
    311 F     s    0.911964 *  0.453808 *  0.086797 *  -1.56000    1.000000    
    312 F     s    0.548067 *  0.453391 *  0.419299 *  -1.56000    1.000000    
--------------------------------------------------------------------------------



********************************************************************************
*  General input information                                                   *
********************************************************************************

  Species output for all configurations : 

--------------------------------------------------------------------------------
  Species    Type    Atomic    Atomic    Charge       Radii (Angs)     Library
                     Number     Mass       (e)     Cova   Ionic  VDW   Symbol
--------------------------------------------------------------------------------
    Si       Core       14      28.09   4.000000   1.200  0.000  2.100          
    O1       Core        8      16.00   1.733957   0.730  0.000  1.360          
    O1       Shell       8       0.00  -3.733957   0.730  0.000  1.360          
    O2       Core        8      16.00   0.870733   0.730  0.000  1.360          
    O2       Shell       8       0.00  -2.870733   0.730  0.000  1.360          
    O3       Core        8      16.00   1.330431   0.730  0.000  1.360          
    O3       Shell       8       0.00  -3.330431   0.730  0.000  1.360          
    F        Core        9      19.00   0.560000   0.710  0.000  1.300          
    F        Shell       9       0.00  -1.560000   0.710  0.000  1.300          
    Ge       Core       32      72.61   4.000000   1.170  0.000  1.750          
--------------------------------------------------------------------------------


  Lattice summation method               =    Ewald          (3-D)
                                         =    Parry          (2-D)
                                         =    Saunders et al (1-D)
  Accuracy factor for lattice sums       =   12.000


  Time limit = Infinity

  Maximum range for interatomic potentials =        16.000000 Angstroms

  Taper potentials to zero over   1.0000 Angstroms using polynomial

  General interatomic potentials :

--------------------------------------------------------------------------------
Atom  Types   Potential         A         B         C         D     Cutoffs(Ang)
  1     2                                                            Min    Max 
--------------------------------------------------------------------------------
Si   c O1   s Buckingham    0.132E+04 0.318      10.1      0.00     0.000 16.000
Si   c O2   s Buckingham    0.132E+04 0.318      10.1      0.00     0.000 16.000
Si   c O3   s Buckingham    0.132E+04 0.318      10.1      0.00     0.000 16.000
Ge   c O1   s Buckingham    0.150E+04 0.326      16.8      0.00     0.000 16.000
Ge   c O2   s Buckingham    0.150E+04 0.326      16.8      0.00     0.000 16.000
Ge   c O3   s Buckingham    0.150E+04 0.326      16.8      0.00     0.000 16.000
O1   s O1   s Buckingham    0.228E+05 0.149      10.9      0.00     0.000 16.000
O1   s O2   s Buckingham    0.228E+05 0.149      10.9      0.00     0.000 16.000
O1   s O3   s Buckingham    0.228E+05 0.149      10.9      0.00     0.000 16.000
O2   s O2   s Buckingham    0.228E+05 0.149      10.9      0.00     0.000 16.000
O2   s O3   s Buckingham    0.228E+05 0.149      10.9      0.00     0.000 16.000
O3   s O3   s Buckingham    0.228E+05 0.149      10.9      0.00     0.000 16.000
Si   c F    s Buckingham     977.     0.282      0.00      0.00     0.000 16.000
Ge   c F    s Buckingham     681.     0.320      0.00      0.00     0.000 16.000
F    s F    s Buckingham     540.     0.262      0.00      0.00     0.000 16.000
O1   s F    s Buckingham    0.168E+04 0.268      0.00      0.00     0.000 16.000
O2   s F    s Buckingham    0.168E+04 0.268      0.00      0.00     0.000 16.000
O3   s F    s Buckingham    0.168E+04 0.268      0.00      0.00     0.000 16.000
O2   c O2   s Spring (c-s)   76.0      0.00      0.00      0.00     0.000  0.800
O3   c O3   s Spring (c-s)   128.      0.00      0.00      0.00     0.000  0.800
O1   c O1   s Spring (c-s)   180.      0.00      0.00      0.00     0.000  0.800
F    c F    s Spring (c-s)   33.5      0.00      0.00      0.00     0.000  0.800
--------------------------------------------------------------------------------

  General Three-body potentials :

  Harmonic form:

--------------------------------------------------------------------------------
Atom    Atom    Atom           Force Constants            Theta     Cutoffs  
  1       2       3     (eVrad**-2/eVrad**-3/eVrad**-4)   (deg)  1-2  1-3  2-3
--------------------------------------------------------------------------------
Si    c O1    s O1    s  1.261        0.0000    0.0000   109.470 0.00 0.00 0.00
                                                                 1.90 1.90 3.50
Si    c O1    s O2    s  1.261        0.0000    0.0000   109.470 0.00 0.00 0.00
                                                                 1.90 1.90 3.50
Si    c O2    s O2    s  1.261        0.0000    0.0000   109.470 0.00 0.00 0.00
                                                                 1.90 1.90 3.50
--------------------------------------------------------------------------------

********************************************************************************
*  Output for configuration   1                                                *
********************************************************************************


  Components of energy : 

--------------------------------------------------------------------------------
  Interatomic potentials     =        2066.24796501 eV
  Three-body potentials      =           0.47165057 eV
  Monopole - monopole (real) =       -6616.82973452 eV
  Monopole - monopole (recip)=       -3170.76490758 eV
  Monopole - monopole (total)=       -9787.59464210 eV
  Neutralising energy        =          -6.45885797 eV
--------------------------------------------------------------------------------
  Total lattice energy       =       -7727.33388450 eV
--------------------------------------------------------------------------------
  Total lattice energy       =         -745569.5967 kJ/(mole unit cells)
--------------------------------------------------------------------------------


  Number of variables =      939

  Maximum number of calculations  =          1000
  Maximum Hessian update interval =            10
  Maximum step size               =   1.000000000
  Maximum parameter tolerance     =   0.000010000
  Maximum function  tolerance     =   0.000010000
  Maximum gradient  tolerance     =   0.001000000
  Maximum gradient  component     =   0.010000000

  Symmetry not applied to optimisation

  Cell parameters to be optimised using strains

  Newton-Raphson optimiser to be used

  BFGS hessian update to be used

  Dumpfile to be written after every cycle

  Start of bulk optimisation :

  Cycle:      0 Energy:     -7727.333884  Gnorm:      0.006956  CPU:    1.067
  ** Hessian calculated **
  Cycle:      1 Energy:     -7727.386055  Gnorm:      0.002959  CPU:    2.967
  Cycle:      2 Energy:     -7727.386364  Gnorm:      0.000293  CPU:    4.344
  Cycle:      3 Energy:     -7727.386375  Gnorm:      0.000046  CPU:    5.720


  **** Optimisation achieved ****


  Final energy =   -7727.38637516 eV
  Final Gnorm  =       0.00000532

  Components of energy : 

--------------------------------------------------------------------------------
  Interatomic potentials     =        2066.33639480 eV
  Three-body potentials      =           0.48171437 eV
  Monopole - monopole (real) =       -6617.77812722 eV
  Monopole - monopole (recip)=       -3169.96912197 eV
  Monopole - monopole (total)=       -9787.74724919 eV
  Neutralising energy        =          -6.45723514 eV
--------------------------------------------------------------------------------
  Total lattice energy       =       -7727.38637516 eV
--------------------------------------------------------------------------------
  Total lattice energy       =         -745574.6613 kJ/(mole unit cells)
--------------------------------------------------------------------------------

  Final fractional coordinates of atoms :

--------------------------------------------------------------------------------
   No.  Atomic        x           y          z          Radius
        Label       (Frac)      (Frac)     (Frac)       (Angs) 
--------------------------------------------------------------------------------
     1  Si    c     0.699600    0.375700    0.033890    0.000000
     2  Si    c     0.616956    0.317215    0.366973    0.000000
     3  Si    c     0.663438    0.264130    0.699052    0.000000
     4  Si    c     0.291724    0.610493    0.532167    0.000000
     5  Si    c     0.383529    0.672405    0.869581    0.000000
     6  Si    c     0.323318    0.698912    0.201115    0.000000
     7  Si    c     0.377494    0.700138    0.301470    0.000000
     8  Si    c     0.329317    0.616459    0.972244    0.000000
     9  Si    c     0.295506    0.661321    0.634822    0.000000
    10  Si    c     0.617466    0.280484    0.800730    0.000000
    11  Si    c     0.669367    0.370055    0.467238    0.000000
    12  Si    c     0.703629    0.323003    0.135469    0.000000
    13  Ge    c     0.532532    0.424645    0.966022    0.000000
    14  Si    c     0.578138    0.107627    0.301786    0.000000
    15  Si    c     0.870292    0.449047    0.634704    0.000000
    16  Si    c     0.466384    0.573119    0.467918    0.000000
    17  Ge    c     0.433491    0.887333    0.800260    0.000000
    18  Si    c     0.113661    0.527578    0.136649    0.000000
    19  Si    c     0.414992    0.527192    0.366659    0.000000
    20  Si    c     0.114559    0.579022    0.035463    0.000000
    21  Si    c     0.467962    0.848215    0.702329    0.000000
    22  Si    c     0.593148    0.458898    0.866848    0.000000
    23  Si    c     0.877653    0.403479    0.531254    0.000000
    24  Si    c     0.529280    0.111918    0.200367    0.000000
    25  Si    c     0.307277    0.388149    0.855648    0.000000
    26  Si    c     0.600834    0.900211    0.186489    0.000000
    27  Si    c     0.089414    0.689780    0.515264    0.000000
    28  Si    c     0.695489    0.597725    0.353015    0.000000
    29  Si    c     0.384631    0.056622    0.686641    0.000000
    30  Si    c     0.904828    0.299573    0.021219    0.000000
    31  Si    c     0.392067    0.291314    0.482755    0.000000
    32  Si    c     0.905611    0.599914    0.150427    0.000000
    33  Si    c     0.703830    0.081948    0.821297    0.000000
    34  Si    c     0.611394    0.698226    0.988967    0.000000
    35  Si    c     0.084574    0.379466    0.649444    0.000000
    36  Si    c     0.299089    0.901163    0.316573    0.000000
    37  Si    c     0.254383    0.327396    0.957594    0.000000
    38  Si    c     0.657055    0.906369    0.286911    0.000000
    39  Ge    c     0.080383    0.714188    0.615311    0.000000
    40  Si    c     0.744454    0.653173    0.453626    0.000000
    41  Si    c     0.330888    0.065886    0.788671    0.000000
    42  Si    c     0.912581    0.250429    0.121544    0.000000
    43  Si    c     0.336491    0.246362    0.382073    0.000000
    44  Si    c     0.912794    0.656296    0.049856    0.000000
    45  Si    c     0.745088    0.057735    0.718666    0.000000
    46  Si    c     0.667924    0.740407    0.885675    0.000000
    47  Si    c     0.079166    0.323591    0.547376    0.000000
    48  Si    c     0.251588    0.910428    0.216021    0.000000
    49  Si    c     0.971603    0.118193    0.971269    0.000000
    50  Si    c     0.876544    0.846221    0.302448    0.000000
    51  Si    c     0.140366    0.999880    0.635202    0.000000
    52  Si    c     0.023163    0.870144    0.466983    0.000000
    53  Si    c     0.123583    0.145139    0.803513    0.000000
    54  Si    c     0.850995    0.970059    0.137658    0.000000
    55  Si    c     0.117648    0.968781    0.367024    0.000000
    56  Si    c     0.854545    0.879310    0.037333    0.000000
    57  Si    c     0.027891    0.132990    0.701861    0.000000
    58  Si    c     0.886558    0.023119    0.870660    0.000000
    59  Si    c     0.147752    0.107219    0.535151    0.000000
    60  Si    c     0.972389    0.847205    0.201936    0.000000
    61  O2    c     0.936137    0.000913    0.005190    0.000000
    62  O2    c     0.995891    0.927328    0.335280    0.000000
    63  O2    c     0.075525    0.055629    0.670609    0.000000
    64  O2    c     0.068692    0.985086    0.503034    0.000000
    65  O2    c     0.006252    0.062191    0.837328    0.000000
    66  O2    c     0.929232    0.929907    0.171508    0.000000
    67  O2    c     0.338879    0.576402    0.334507    0.000000
    68  O2    c     0.424556    0.732708    0.665355    0.000000
    69  O2    c     0.241425    0.654246    0.003357    0.000000
    70  O2    c     0.659738    0.411978    0.828378    0.000000
    71  O2    c     0.579764    0.238182    0.168156    0.000000
    72  O2    c     0.753823    0.328766    0.499156    0.000000
    73  O3    c     0.583178    0.338207    0.001873    0.000000
    74  O2    c     0.739672    0.382627    0.664548    0.000000
    75  O2    c     0.655266    0.232930    0.334162    0.000000
    76  O2    c     0.414686    0.648245    0.500358    0.000000
    77  O2    c     0.238836    0.576058    0.168882    0.000000
    78  O3    c     0.347525    0.753727    0.837784    0.000000
    79  O2    c     0.122763    0.209411    0.976762    0.000000
    80  O2    c     0.783785    0.908035    0.306942    0.000000
    81  O3    c     0.069252    0.849552    0.637373    0.000000
    82  O2    c     0.869271    0.780599    0.473201    0.000000
    83  O2    c     0.212505    0.080496    0.807165    0.000000
    84  O2    c     0.912065    0.124034    0.142599    0.000000
    85  O2    c     0.210460    0.123067    0.361416    0.000000
    86  O2    c     0.912040    0.783380    0.030000    0.000000
    87  O2    c     0.873279    0.063677    0.697947    0.000000
    88  O2    c     0.790939    0.869319    0.865093    0.000000
    89  O2    c     0.083409    0.198779    0.528527    0.000000
    90  O2    c     0.125991    0.910870    0.196085    0.000000
    91  O2    c     0.933420    0.857652    0.252889    0.000000
    92  O2    c     0.138352    0.061293    0.586428    0.000000
    93  O2    c     0.935611    0.060081    0.921245    0.000000
    94  O2    c     0.070511    0.134945    0.753173    0.000000
    95  O2    c     0.870031    0.928902    0.088204    0.000000
    96  O2    c     0.063349    0.933160    0.417731    0.000000
    97  O2    c     0.900807    0.200135    0.982386    0.000000
    98  O2    c     0.794910    0.694381    0.315117    0.000000
    99  O2    c     0.291384    0.055451    0.647359    0.000000
   100  O2    c     0.087871    0.779991    0.473884    0.000000
   101  O2    c     0.208081    0.295734    0.816892    0.000000
   102  O2    c     0.698802    0.899504    0.148485    0.000000
   103  O2    c     0.199431    0.898202    0.354992    0.000000
   104  O2    c     0.704366    0.808993    0.024560    0.000000
   105  O2    c     0.088002    0.282689    0.686948    0.000000
   106  O2    c     0.814994    0.102869    0.857006    0.000000
   107  O2    c     0.297462    0.191722    0.521364    0.000000
   108  O2    c     0.902995    0.696453    0.188886    0.000000
   109  O2    c     0.321897    0.641669    0.251586    0.000000
   110  O2    c     0.342702    0.660277    0.582898    0.000000
   111  O2    c     0.333548    0.668292    0.921275    0.000000
   112  O2    c     0.666594    0.321225    0.748899    0.000000
   113  O2    c     0.648902    0.324574    0.085651    0.000000
   114  O2    c     0.670917    0.313590    0.417264    0.000000
   115  O3    c     0.366884    0.308398    0.976325    0.000000
   116  O2    c     0.665861    0.038779    0.305360    0.000000
   117  O3    c     0.930803    0.600323    0.640714    0.000000
   118  O2    c     0.621235    0.661224    0.472708    0.000000
   119  O3    c     0.317218    0.938148    0.810068    0.000000
   120  O2    c     0.044347    0.370825    0.140565    0.000000
   121  O2    c     0.327574    0.370729    0.364713    0.000000
   122  O2    c     0.047024    0.668319    0.032051    0.000000
   123  O2    c     0.625519    0.922509    0.702043    0.000000
   124  O2    c     0.678234    0.617593    0.866645    0.000000
   125  O2    c     0.948849    0.317235    0.529606    0.000000
   126  O2    c     0.373657    0.043227    0.197839    0.000000
   127  O2    c     0.772692    0.300521    0.014306    0.000000
   128  O2    c     0.693859    0.462218    0.345818    0.000000
   129  O2    c     0.518753    0.190634    0.680493    0.000000
   130  O2    c     0.222897    0.686002    0.510766    0.000000
   131  O2    c     0.311153    0.524326    0.850998    0.000000
   132  O2    c     0.466995    0.766916    0.179269    0.000000
   133  O2    c     0.301092    0.767252    0.324298    0.000000
   134  O2    c     0.472743    0.691934    0.992980    0.000000
   135  O2    c     0.216294    0.514325    0.655032    0.000000
   136  O2    c     0.692680    0.212818    0.823152    0.000000
   137  O2    c     0.527495    0.294572    0.490460    0.000000
   138  O2    c     0.772808    0.465676    0.158480    0.000000
   139  O2    c     0.790020    0.532368    0.029606    0.000000
   140  O2    c     0.462068    0.246572    0.362416    0.000000
   141  O2    c     0.731128    0.175944    0.698138    0.000000
   142  O2    c     0.200261    0.455288    0.529688    0.000000
   143  O2    c     0.537865    0.730690    0.867598    0.000000
   144  O2    c     0.251942    0.784067    0.196717    0.000000
   145  O2    c     0.532811    0.779325    0.306777    0.000000
   146  O2    c     0.264406    0.461283    0.975552    0.000000
   147  O3    c     0.224064    0.743358    0.642275    0.000000
   148  O2    c     0.463292    0.193357    0.804280    0.000000
   149  O2    c     0.746315    0.526712    0.472941    0.000000
   150  O2    c     0.784806    0.247565    0.140575    0.000000
   151  O2    c     0.242069    0.315764    0.902603    0.000000
   152  O2    c     0.674449    0.903954    0.232795    0.000000
   153  O3    c     0.084627    0.766735    0.558620    0.000000
   154  O2    c     0.763229    0.671302    0.399484    0.000000
   155  O2    c     0.316118    0.056539    0.733803    0.000000
   156  O2    c     0.912085    0.229590    0.067454    0.000000
   157  O2    c     0.319414    0.223156    0.436294    0.000000
   158  O2    c     0.909523    0.674354    0.104081    0.000000
   159  O2    c     0.762341    0.067878    0.772648    0.000000
   160  O2    c     0.681004    0.755650    0.939810    0.000000
   161  O2    c     0.078672    0.312589    0.601508    0.000000
   162  O2    c     0.230970    0.907624    0.270289    0.000000
   163  O3    c     0.605421    0.566681    0.001277    0.000000
   164  O2    c     0.437474    0.026550    0.325584    0.000000
   165  O2    c     0.959675    0.394777    0.656871    0.000000
   166  O2    c     0.403402    0.430767    0.491544    0.000000
   167  O3    c     0.575519    0.956156    0.834789    0.000000
   168  O2    c     0.031969    0.588026    0.159952    0.000000
   169  O2    c     0.556323    0.582811    0.344215    0.000000
   170  O2    c     0.031684    0.438172    0.012056    0.000000
   171  O2    c     0.413552    0.939290    0.681737    0.000000
   172  O2    c     0.447829    0.405481    0.847443    0.000000
   173  O2    c     0.967677    0.545398    0.509668    0.000000
   174  O2    c     0.585400    0.025594    0.177919    0.000000
   175  O2    c     0.579901    0.163067    0.251339    0.000000
   176  O2    c     0.828074    0.403410    0.582387    0.000000
   177  O3    c     0.601539    0.401690    0.914322    0.000000
   178  O3    c     0.413231    0.789342    0.750885    0.000000
   179  O2    c     0.169158    0.580141    0.085951    0.000000
   180  O2    c     0.415598    0.579332    0.417646    0.000000
   181  F     c     0.451044    0.900947    0.253066    0.000000
   182  F     c     0.082755    0.566855    0.589044    0.000000
   183  F     c     0.478028    0.516841    0.929437    0.000000
   184  F     c     0.522628    0.030385    0.762204    0.000000
   185  F     c     0.913466    0.452944    0.087167    0.000000
   186  F     c     0.544302    0.446971    0.419884    0.000000
   187  O2    s     0.930816    0.000418    0.004976    0.000000
   188  O2    s     0.996349    0.923000    0.335210    0.000000
   189  O2    s     0.076802    0.058708    0.670509    0.000000
   190  O2    s     0.072506    0.986064    0.502637    0.000000
   191  O2    s     0.006071    0.067141    0.837240    0.000000
   192  O2    s     0.925339    0.925018    0.171160    0.000000
   193  O2    s     0.350789    0.583759    0.334532    0.000000
   194  O2    s     0.415923    0.737030    0.665953    0.000000
   195  O2    s     0.237798    0.642693    0.003337    0.000000
   196  O2    s     0.648679    0.402633    0.829204    0.000000
   197  O2    s     0.586933    0.233515    0.168230    0.000000
   198  O2    s     0.758432    0.340816    0.499331    0.000000
   199  O3    s     0.592576    0.348301    0.002943    0.000000
   200  O2    s     0.745040    0.376612    0.665198    0.000000
   201  O2    s     0.643363    0.229053    0.334336    0.000000
   202  O2    s     0.406692    0.636539    0.500500    0.000000
   203  O2    s     0.235025    0.583981    0.169003    0.000000
   204  O3    s     0.357478    0.753603    0.838827    0.000000
   205  O2    s     0.120077    0.212053    0.974057    0.000000
   206  O2    s     0.780639    0.901253    0.304429    0.000000
   207  O3    s     0.078036    0.857773    0.635720    0.000000
   208  O2    s     0.872491    0.776853    0.470571    0.000000
   209  O2    s     0.215467    0.086230    0.804740    0.000000
   210  O2    s     0.905488    0.120425    0.139914    0.000000
   211  O2    s     0.213749    0.119565    0.364134    0.000000
   212  O2    s     0.905970    0.780545    0.032801    0.000000
   213  O2    s     0.876080    0.070316    0.700501    0.000000
   214  O2    s     0.788436    0.872331    0.867754    0.000000
   215  O2    s     0.089489    0.202926    0.531212    0.000000
   216  O2    s     0.122797    0.904105    0.198747    0.000000
   217  O2    s     0.931233    0.855161    0.252880    0.000000
   218  O2    s     0.139597    0.060089    0.585698    0.000000
   219  O2    s     0.933957    0.062277    0.920974    0.000000
   220  O2    s     0.071612    0.135841    0.753011    0.000000
   221  O2    s     0.866080    0.927953    0.088055    0.000000
   222  O2    s     0.064822    0.929973    0.417681    0.000000
   223  O2    s     0.908793    0.201244    0.985047    0.000000
   224  O2    s     0.793192    0.700395    0.317731    0.000000
   225  O2    s     0.286379    0.050104    0.650336    0.000000
   226  O2    s     0.081285    0.780302    0.477281    0.000000
   227  O2    s     0.209048    0.289014    0.819351    0.000000
   228  O2    s     0.704681    0.906962    0.151254    0.000000
   229  O2    s     0.200735    0.905992    0.352426    0.000000
   230  O2    s     0.710826    0.805270    0.022312    0.000000
   231  O2    s     0.081262    0.277227    0.684504    0.000000
   232  O2    s     0.811231    0.092384    0.854790    0.000000
   233  O2    s     0.291237    0.192926    0.518883    0.000000
   234  O2    s     0.910749    0.702937    0.186401    0.000000
   235  O2    s     0.327756    0.653464    0.251610    0.000000
   236  O2    s     0.332527    0.655150    0.582790    0.000000
   237  O2    s     0.338158    0.663270    0.921414    0.000000
   238  O2    s     0.661182    0.310938    0.748989    0.000000
   239  O2    s     0.659650    0.329422    0.085865    0.000000
   240  O2    s     0.665257    0.319804    0.417330    0.000000
   241  O3    s     0.365980    0.318237    0.973599    0.000000
   242  O2    s     0.655848    0.031983    0.303045    0.000000
   243  O3    s     0.934809    0.592329    0.638318    0.000000
   244  O2    s     0.618069    0.651303    0.470233    0.000000
   245  O3    s     0.326537    0.948424    0.807087    0.000000
   246  O2    s     0.037785    0.374453    0.138176    0.000000
   247  O2    s     0.337572    0.373754    0.366773    0.000000
   248  O2    s     0.040240    0.657920    0.034234    0.000000
   249  O2    s     0.622839    0.929551    0.703840    0.000000
   250  O2    s     0.668953    0.614757    0.868617    0.000000
   251  O2    s     0.955338    0.326655    0.531644    0.000000
   252  O2    s     0.376811    0.036368    0.200012    0.000000
   253  O2    s     0.780027    0.307900    0.017059    0.000000
   254  O2    s     0.686045    0.461561    0.348818    0.000000
   255  O2    s     0.520367    0.184570    0.683155    0.000000
   256  O2    s     0.216434    0.678498    0.513500    0.000000
   257  O2    s     0.318009    0.524237    0.853397    0.000000
   258  O2    s     0.466347    0.773958    0.182298    0.000000
   259  O2    s     0.308714    0.774465    0.321116    0.000000
   260  O2    s     0.471838    0.684714    0.990392    0.000000
   261  O2    s     0.210003    0.514568    0.652367    0.000000
   262  O2    s     0.685917    0.206489    0.820586    0.000000
   263  O2    s     0.527923    0.302013    0.487239    0.000000
   264  O2    s     0.779704    0.465196    0.155257    0.000000
   265  O2    s     0.794789    0.530352    0.032277    0.000000
   266  O2    s     0.464573    0.254065    0.365024    0.000000
   267  O2    s     0.725331    0.172698    0.700417    0.000000
   268  O2    s     0.196517    0.457202    0.531882    0.000000
   269  O2    s     0.536457    0.725632    0.869799    0.000000
   270  O2    s     0.259517    0.789033    0.199268    0.000000
   271  O2    s     0.530128    0.784889    0.304128    0.000000
   272  O2    s     0.270511    0.464207    0.973363    0.000000
   273  O3    s     0.220674    0.732909    0.639604    0.000000
   274  O2    s     0.466385    0.189641    0.802330    0.000000
   275  O2    s     0.738151    0.524095    0.470345    0.000000
   276  O2    s     0.790228    0.255821    0.138018    0.000000
   277  O2    s     0.250288    0.324640    0.903083    0.000000
   278  O2    s     0.664910    0.903821    0.233755    0.000000
   279  O3    s     0.084830    0.755205    0.558209    0.000000
   280  O2    s     0.754120    0.661659    0.400417    0.000000
   281  O2    s     0.324893    0.057456    0.734337    0.000000
   282  O2    s     0.911417    0.239018    0.068377    0.000000
   283  O2    s     0.328855    0.232751    0.435504    0.000000
   284  O2    s     0.909467    0.664608    0.103297    0.000000
   285  O2    s     0.754686    0.068106    0.771511    0.000000
   286  O2    s     0.672798    0.748344    0.938770    0.000000
   287  O2    s     0.079345    0.320977    0.600725    0.000000
   288  O2    s     0.240328    0.907249    0.269473    0.000000
   289  O3    s     0.601048    0.571536    0.997623    0.000000
   290  O2    s     0.437168    0.021328    0.322170    0.000000
   291  O2    s     0.964461    0.398612    0.653885    0.000000
   292  O2    s     0.408770    0.430564    0.488193    0.000000
   293  O3    s     0.579885    0.965244    0.831059    0.000000
   294  O2    s     0.026797    0.582863    0.156515    0.000000
   295  O2    s     0.556555    0.578411    0.347533    0.000000
   296  O2    s     0.026779    0.438161    0.015449    0.000000
   297  O2    s     0.416011    0.943326    0.684383    0.000000
   298  O2    s     0.446995    0.408962    0.850259    0.000000
   299  O2    s     0.970937    0.545328    0.512581    0.000000
   300  O2    s     0.581001    0.020890    0.181213    0.000000
   301  O2    s     0.574493    0.152006    0.251364    0.000000
   302  O2    s     0.837580    0.408050    0.582241    0.000000
   303  O3    s     0.596235    0.409177    0.912649    0.000000
   304  O3    s     0.420292    0.801901    0.749034    0.000000
   305  O2    s     0.157808    0.574592    0.085991    0.000000
   306  O2    s     0.420872    0.573310    0.417656    0.000000
   307  F     s     0.450917    0.900521    0.253267    0.000000
   308  F     s     0.082672    0.575482    0.590577    0.000000
   309  F     s     0.482067    0.510426    0.931940    0.000000
   310  F     s     0.516523    0.020226    0.764920    0.000000
   311  F     s     0.914013    0.453109    0.087348    0.000000
   312  F     s     0.544543    0.446955    0.420144    0.000000
--------------------------------------------------------------------------------

  Final Cartesian lattice vectors (Angstroms) :

       11.989778    0.011722    0.013270
       -5.888410   10.334272   -0.006599
        0.122516    0.147555   29.534872


  Final cell parameters and derivatives :

--------------------------------------------------------------------------------
       a           11.989792 Angstrom     dE/de1(xx)     0.000885 eV/strain
       b           11.894142 Angstrom     dE/de2(yy)     0.000965 eV/strain
       c           29.535494 Angstrom     dE/de3(zz)     0.001164 eV/strain
       alpha       89.900747 Degrees      dE/de4(yz)     0.000093 eV/strain
       beta        89.698638 Degrees      dE/de5(xz)     0.000043 eV/strain
       gamma      119.618248 Degrees      dE/de6(xy)     0.000016 eV/strain
--------------------------------------------------------------------------------

  Primitive cell volume =          3661.558948 Angs**3

  Density of cell =      1.747368 g/cm**3

  Non-primitive cell volume =          3661.558948 Angs**3


  Final internal derivatives :

--------------------------------------------------------------------------------
   No.  Atomic          a             b             c           Radius
        Label          (eV)          (eV)          (eV)        (eV/Angs)
--------------------------------------------------------------------------------
      1 Si    c       0.000000      0.000000      0.000000      0.000000
      2 Si    c      -0.000034      0.000023     -0.000078      0.000000
      3 Si    c       0.000010     -0.000160     -0.000139      0.000000
      4 Si    c      -0.000010     -0.000047     -0.000104      0.000000
      5 Si    c      -0.000070      0.000236      0.000046      0.000000
      6 Si    c       0.000031     -0.000010      0.000118      0.000000
      7 Si    c       0.000036     -0.000045     -0.000178      0.000000
      8 Si    c      -0.000040      0.000051     -0.000220      0.000000
      9 Si    c      -0.000101      0.000010     -0.000420      0.000000
     10 Si    c      -0.000076     -0.000142      0.000484      0.000000
     11 Si    c      -0.000043      0.000034      0.000030      0.000000
     12 Si    c       0.000039      0.000058     -0.000201      0.000000
     13 Ge    c       0.000527     -0.000513     -0.000096      0.000000
     14 Si    c      -0.000029      0.000018     -0.000203      0.000000
     15 Si    c       0.000245      0.000047     -0.000373      0.000000
     16 Si    c       0.000101     -0.000067      0.000051      0.000000
     17 Ge    c      -0.000010      0.000460      0.000511      0.000000
     18 Si    c      -0.000013     -0.000040      0.000177      0.000000
     19 Si    c       0.000031     -0.000044     -0.000097      0.000000
     20 Si    c      -0.000062     -0.000031     -0.000016      0.000000
     21 Si    c       0.000194      0.000051     -0.000830      0.000000
     22 Si    c       0.000108     -0.000107      0.000982      0.000000
     23 Si    c       0.000037     -0.000028      0.000034      0.000000
     24 Si    c      -0.000030      0.000050      0.000141      0.000000
     25 Si    c      -0.000038     -0.000044      0.000173      0.000000
     26 Si    c       0.000043     -0.000068      0.000025      0.000000
     27 Si    c      -0.000045      0.000064     -0.000167      0.000000
     28 Si    c      -0.000039      0.000054     -0.000085      0.000000
     29 Si    c       0.000001     -0.000005     -0.000458      0.000000
     30 Si    c       0.000042      0.000034      0.000090      0.000000
     31 Si    c      -0.000039      0.000041      0.000210      0.000000
     32 Si    c      -0.000048     -0.000008      0.000091      0.000000
     33 Si    c      -0.000064     -0.000066      0.000395      0.000000
     34 Si    c       0.000056      0.000026     -0.000279      0.000000
     35 Si    c      -0.000038     -0.000100      0.000075      0.000000
     36 Si    c      -0.000075      0.000075     -0.000033      0.000000
     37 Si    c      -0.000174     -0.000080     -0.000125      0.000000
     38 Si    c       0.000023     -0.000021     -0.000033      0.000000
     39 Ge    c      -0.000018     -0.000120     -0.000203      0.000000
     40 Si    c       0.000009      0.000016      0.000084      0.000000
     41 Si    c       0.000048      0.000015      0.000240      0.000000
     42 Si    c       0.000027      0.000007     -0.000003      0.000000
     43 Si    c      -0.000016      0.000003     -0.000067      0.000000
     44 Si    c       0.000006     -0.000107     -0.000139      0.000000
     45 Si    c       0.000063      0.000006     -0.000140      0.000000
     46 Si    c       0.000005      0.000102     -0.000020      0.000000
     47 Si    c      -0.000001     -0.000017     -0.000058      0.000000
     48 Si    c      -0.000053      0.000056      0.000071      0.000000
     49 Si    c      -0.000036     -0.000051     -0.000160      0.000000
     50 Si    c      -0.000021     -0.000042      0.000243      0.000000
     51 Si    c      -0.000110      0.000217      0.000599      0.000000
     52 Si    c      -0.000023     -0.000081      0.000183      0.000000
     53 Si    c      -0.000031      0.000035      0.000195      0.000000
     54 Si    c      -0.000054      0.000094     -0.000042      0.000000
     55 Si    c      -0.000020      0.000093     -0.000306      0.000000
     56 Si    c       0.000037     -0.000094      0.000269      0.000000
     57 Si    c      -0.000006     -0.000091     -0.000739      0.000000
     58 Si    c      -0.000159      0.000155      0.000485      0.000000
     59 Si    c       0.000061     -0.000023      0.000004      0.000000
     60 Si    c       0.000070     -0.000110     -0.000057      0.000000
     61 O2    c       0.000085      0.000118     -0.000344      0.000000
     62 O2    c       0.000008      0.000011      0.000106      0.000000
     63 O2    c      -0.000006      0.000017      0.000166      0.000000
     64 O2    c       0.000033     -0.000033      0.000003      0.000000
     65 O2    c       0.000085     -0.000005     -0.000182      0.000000
     66 O2    c      -0.000019      0.000077      0.000075      0.000000
     67 O2    c      -0.000054      0.000007     -0.000035      0.000000
     68 O2    c       0.000153     -0.000210     -0.000165      0.000000
     69 O2    c       0.000056      0.000033     -0.000147      0.000000
     70 O2    c       0.000065      0.000003     -0.000319      0.000000
     71 O2    c      -0.000064     -0.000020      0.000113      0.000000
     72 O2    c       0.000088     -0.000085      0.000049      0.000000
     73 O3    c      -0.000322      0.000112     -0.000484      0.000000
     74 O2    c      -0.000332      0.000047      0.000379      0.000000
     75 O2    c       0.000028     -0.000006      0.000025      0.000000
     76 O2    c       0.000086      0.000010     -0.000039      0.000000
     77 O2    c      -0.000016     -0.000043     -0.000096      0.000000
     78 O3    c       0.000079     -0.000168      0.000181      0.000000
     79 O2    c       0.000280      0.000207     -0.000057      0.000000
     80 O2    c      -0.000086      0.000076      0.000007      0.000000
     81 O3    c       0.000010     -0.000623      0.000299      0.000000
     82 O2    c       0.000041      0.000005     -0.000028      0.000000
     83 O2    c      -0.000043     -0.000021      0.000040      0.000000
     84 O2    c       0.000023     -0.000032      0.000001      0.000000
     85 O2    c      -0.000028      0.000015     -0.000010      0.000000
     86 O2    c       0.000049     -0.000038     -0.000022      0.000000
     87 O2    c      -0.000214     -0.000024      0.000031      0.000000
     88 O2    c       0.000044      0.000028      0.000007      0.000000
     89 O2    c       0.000023     -0.000039     -0.000037      0.000000
     90 O2    c       0.000047     -0.000014     -0.000012      0.000000
     91 O2    c       0.000090     -0.000033     -0.000134      0.000000
     92 O2    c      -0.000110      0.000329     -0.001512      0.000000
     93 O2    c      -0.000130     -0.000026     -0.000937      0.000000
     94 O2    c       0.000110      0.000083      0.001207      0.000000
     95 O2    c       0.000049     -0.000047     -0.000125      0.000000
     96 O2    c       0.000031     -0.000094      0.000277      0.000000
     97 O2    c      -0.000204      0.000195      0.000017      0.000000
     98 O2    c       0.000018     -0.000013     -0.000060      0.000000
     99 O2    c       0.000378      0.000046      0.000012      0.000000
    100 O2    c       0.000018     -0.000024     -0.000030      0.000000
    101 O2    c       0.000053      0.000068     -0.000034      0.000000
    102 O2    c      -0.000038     -0.000002      0.000032      0.000000
    103 O2    c       0.000085     -0.000077     -0.000068      0.000000
    104 O2    c      -0.000147      0.000026     -0.000139      0.000000
    105 O2    c      -0.000038      0.000193     -0.000136      0.000000
    106 O2    c       0.000211     -0.000202     -0.000003      0.000000
    107 O2    c      -0.000036     -0.000005      0.000084      0.000000
    108 O2    c      -0.000010      0.000011      0.000033      0.000000
    109 O2    c       0.000003      0.000004      0.000070      0.000000
    110 O2    c       0.000041      0.000002      0.000079      0.000000
    111 O2    c       0.000047     -0.000042     -0.000109      0.000000
    112 O2    c       0.000032      0.000088     -0.000302      0.000000
    113 O2    c      -0.000029      0.000040     -0.000224      0.000000
    114 O2    c       0.000035     -0.000034      0.000026      0.000000
    115 O3    c       0.000128     -0.000082     -0.000009      0.000000
    116 O2    c      -0.000000      0.000022      0.000022      0.000000
    117 O3    c      -0.000035      0.000051     -0.000045      0.000000
    118 O2    c      -0.000056      0.000000      0.000020      0.000000
    119 O3    c       0.000025     -0.000087      0.000150      0.000000
    120 O2    c      -0.000005      0.000021      0.000026      0.000000
    121 O2    c      -0.000016      0.000012     -0.000013      0.000000
    122 O2    c      -0.000014      0.000022     -0.000036      0.000000
    123 O2    c       0.000050     -0.000002     -0.000041      0.000000
    124 O2    c       0.000041     -0.000029     -0.000136      0.000000
    125 O2    c      -0.000065      0.000033     -0.000086      0.000000
    126 O2    c      -0.000003      0.000003     -0.000010      0.000000
    127 O2    c       0.000105     -0.000102     -0.000040      0.000000
    128 O2    c       0.000037     -0.000055     -0.000022      0.000000
    129 O2    c       0.000035      0.000076     -0.000060      0.000000
    130 O2    c       0.000105     -0.000044     -0.000045      0.000000
    131 O2    c       0.000013     -0.000112     -0.000037      0.000000
    132 O2    c       0.000005     -0.000002     -0.000011      0.000000
    133 O2    c      -0.000037      0.000011      0.000075      0.000000
    134 O2    c       0.000054     -0.000025      0.000074      0.000000
    135 O2    c       0.000047     -0.000018      0.000054      0.000000
    136 O2    c      -0.000096      0.000167     -0.000039      0.000000
    137 O2    c       0.000067     -0.000035      0.000028      0.000000
    138 O2    c       0.000001     -0.000023     -0.000033      0.000000
    139 O2    c       0.000106      0.000013      0.000029      0.000000
    140 O2    c       0.000061     -0.000026     -0.000056      0.000000
    141 O2    c       0.000042     -0.000014     -0.000108      0.000000
    142 O2    c       0.000029     -0.000008     -0.000073      0.000000
    143 O2    c      -0.000019      0.000031     -0.000053      0.000000
    144 O2    c      -0.000004     -0.000035     -0.000082      0.000000
    145 O2    c       0.000008     -0.000021      0.000047      0.000000
    146 O2    c      -0.000018      0.000021      0.000051      0.000000
    147 O3    c       0.000136      0.000028      0.000419      0.000000
    148 O2    c       0.000016      0.000011     -0.000023      0.000000
    149 O2    c       0.000030      0.000005      0.000047      0.000000
    150 O2    c      -0.000074      0.000045      0.000066      0.000000
    151 O2    c       0.000007      0.000057     -0.000088      0.000000
    152 O2    c      -0.000011      0.000010     -0.000059      0.000000
    153 O3    c       0.000015      0.000049     -0.000037      0.000000
    154 O2    c       0.000018      0.000000     -0.000030      0.000000
    155 O2    c      -0.000201      0.000045      0.000509      0.000000
    156 O2    c      -0.000007     -0.000005      0.000012      0.000000
    157 O2    c      -0.000040     -0.000039     -0.000069      0.000000
    158 O2    c      -0.000004      0.000019      0.000064      0.000000
    159 O2    c       0.000190     -0.000166     -0.000718      0.000000
    160 O2    c      -0.000048     -0.000068      0.000585      0.000000
    161 O2    c       0.000017     -0.000023      0.000093      0.000000
    162 O2    c       0.000020     -0.000007      0.000060      0.000000
    163 O3    c      -0.000126      0.000098     -0.000089      0.000000
    164 O2    c      -0.000001      0.000002     -0.000001      0.000000
    165 O2    c      -0.000033      0.000018      0.000041      0.000000
    166 O2    c      -0.000007      0.000010     -0.000041      0.000000
    167 O3    c      -0.000086     -0.000019     -0.000202      0.000000
    168 O2    c       0.000057     -0.000032      0.000036      0.000000
    169 O2    c       0.000002     -0.000003     -0.000007      0.000000
    170 O2    c      -0.000023      0.000027      0.000032      0.000000
    171 O2    c       0.000110     -0.000162     -0.000197      0.000000
    172 O2    c      -0.000021     -0.000013     -0.000043      0.000000
    173 O2    c      -0.000021     -0.000025     -0.000020      0.000000
    174 O2    c      -0.000005      0.000030     -0.000087      0.000000
    175 O2    c      -0.000001     -0.000033     -0.000001      0.000000
    176 O2    c      -0.000032     -0.000002     -0.000179      0.000000
    177 O3    c      -0.000393      0.000381      0.000468      0.000000
    178 O3    c       0.000042     -0.000713      0.000239      0.000000
    179 O2    c       0.000032      0.000011     -0.000095      0.000000
    180 O2    c      -0.000047      0.000053      0.000135      0.000000
    181 F     c       0.000002     -0.000011     -0.000033      0.000000
    182 F     c      -0.000042      0.000039      0.000012      0.000000
    183 F     c      -0.000004      0.000039     -0.000424      0.000000
    184 F     c       0.000011      0.000049      0.000477      0.000000
    185 F     c      -0.000008     -0.000015      0.000021      0.000000
    186 F     c      -0.000002     -0.000028      0.000009      0.000000
    187 O2    s       0.000015     -0.000125      0.000198      0.000000
    188 O2    s      -0.000016      0.000042      0.000025      0.000000
    189 O2    s      -0.000097      0.000063      0.000064      0.000000
    190 O2    s      -0.000006      0.000035      0.000026      0.000000
    191 O2    s      -0.000085      0.000040      0.000317      0.000000
    192 O2    s      -0.000006     -0.000000     -0.000044      0.000000
    193 O2    s       0.000021      0.000002      0.000009      0.000000
    194 O2    s      -0.000144      0.000140     -0.000020      0.000000
    195 O2    s       0.000011     -0.000036      0.000004      0.000000
    196 O2    s      -0.000036      0.000121      0.000252      0.000000
    197 O2    s       0.000014     -0.000018      0.000027      0.000000
    198 O2    s      -0.000021     -0.000023      0.000047      0.000000
    199 O3    s       0.000166     -0.000064      0.000193      0.000000
    200 O2    s       0.000082      0.000025     -0.000084      0.000000
    201 O2    s       0.000002     -0.000023     -0.000023      0.000000
    202 O2    s       0.000013      0.000025     -0.000050      0.000000
    203 O2    s       0.000031     -0.000025     -0.000007      0.000000
    204 O3    s      -0.000137      0.000073     -0.000171      0.000000
    205 O2    s       0.000093     -0.000073     -0.000128      0.000000
    206 O2    s      -0.000046      0.000035      0.000027      0.000000
    207 O3    s      -0.000127     -0.000182     -0.000074      0.000000
    208 O2    s      -0.000043      0.000023      0.000061      0.000000
    209 O2    s      -0.000035      0.000029      0.000051      0.000000
    210 O2    s      -0.000026      0.000021      0.000046      0.000000
    211 O2    s      -0.000037      0.000053     -0.000151      0.000000
    212 O2    s       0.000055     -0.000075     -0.000099      0.000000
    213 O2    s      -0.000067     -0.000118     -0.000280      0.000000
    214 O2    s      -0.000003      0.000039      0.000065      0.000000
    215 O2    s      -0.000006     -0.000022     -0.000059      0.000000
    216 O2    s       0.000018     -0.000003     -0.000052      0.000000
    217 O2    s       0.000001      0.000005      0.000033      0.000000
    218 O2    s      -0.000144      0.000117     -0.000004      0.000000
    219 O2    s       0.000003     -0.000021     -0.000125      0.000000
    220 O2    s       0.000076     -0.000093     -0.000145      0.000000
    221 O2    s      -0.000049      0.000040      0.000101      0.000000
    222 O2    s      -0.000046      0.000064     -0.000041      0.000000
    223 O2    s      -0.000088      0.000087      0.000191      0.000000
    224 O2    s      -0.000025     -0.000020      0.000057      0.000000
    225 O2    s       0.000110      0.000087     -0.000041      0.000000
    226 O2    s      -0.000009     -0.000028     -0.000066      0.000000
    227 O2    s       0.000043      0.000004     -0.000008      0.000000
    228 O2    s      -0.000031      0.000016      0.000006      0.000000
    229 O2    s       0.000057     -0.000032     -0.000149      0.000000
    230 O2    s      -0.000044     -0.000051     -0.000030      0.000000
    231 O2    s       0.000006      0.000149     -0.000089      0.000000
    232 O2    s       0.000065      0.000004      0.000495      0.000000
    233 O2    s       0.000002     -0.000018      0.000058      0.000000
    234 O2    s       0.000007     -0.000035     -0.000077      0.000000
    235 O2    s      -0.000001     -0.000008     -0.000022      0.000000
    236 O2    s      -0.000010      0.000007      0.000103      0.000000
    237 O2    s       0.000020      0.000005      0.000133      0.000000
    238 O2    s      -0.000010      0.000070     -0.000084      0.000000
    239 O2    s       0.000024     -0.000030      0.000159      0.000000
    240 O2    s       0.000005     -0.000018     -0.000135      0.000000
    241 O3    s      -0.000143      0.000092      0.000183      0.000000
    242 O2    s       0.000021     -0.000022      0.000051      0.000000
    243 O3    s       0.000024      0.000098      0.000262      0.000000
    244 O2    s      -0.000002      0.000070      0.000059      0.000000
    245 O3    s      -0.000040     -0.000025     -0.000114      0.000000
    246 O2    s       0.000064     -0.000023      0.000022      0.000000
    247 O2    s      -0.000014     -0.000011     -0.000062      0.000000
    248 O2    s       0.000001      0.000034      0.000030      0.000000
    249 O2    s      -0.000021     -0.000028      0.000120      0.000000
    250 O2    s      -0.000027      0.000033      0.000172      0.000000
    251 O2    s      -0.000026     -0.000020      0.000010      0.000000
    252 O2    s       0.000009      0.000012     -0.000043      0.000000
    253 O2    s       0.000102     -0.000088     -0.000215      0.000000
    254 O2    s       0.000014     -0.000026     -0.000081      0.000000
    255 O2    s      -0.000046      0.000109     -0.000108      0.000000
    256 O2    s      -0.000037      0.000033     -0.000041      0.000000
    257 O2    s       0.000057     -0.000004     -0.000052      0.000000
    258 O2    s       0.000011      0.000009     -0.000021      0.000000
    259 O2    s       0.000017      0.000023     -0.000036      0.000000
    260 O2    s      -0.000013      0.000048     -0.000041      0.000000
    261 O2    s       0.000015      0.000032      0.000097      0.000000
    262 O2    s       0.000050      0.000106      0.000418      0.000000
    263 O2    s      -0.000038      0.000011      0.000054      0.000000
    264 O2    s      -0.000014      0.000036      0.000128      0.000000
    265 O2    s      -0.000127      0.000080      0.000057      0.000000
    266 O2    s       0.000002     -0.000010     -0.000045      0.000000
    267 O2    s       0.000006     -0.000016      0.000013      0.000000
    268 O2    s      -0.000010     -0.000005     -0.000047      0.000000
    269 O2    s       0.000051     -0.000103      0.000107      0.000000
    270 O2    s       0.000001      0.000018      0.000037      0.000000
    271 O2    s      -0.000020      0.000029     -0.000043      0.000000
    272 O2    s       0.000074     -0.000063     -0.000033      0.000000
    273 O3    s      -0.000040     -0.000056     -0.000312      0.000000
    274 O2    s      -0.000112      0.000056      0.000082      0.000000
    275 O2    s      -0.000021      0.000036      0.000057      0.000000
    276 O2    s      -0.000004     -0.000061      0.000054      0.000000
    277 O2    s      -0.000009     -0.000022     -0.000014      0.000000
    278 O2    s       0.000010     -0.000008     -0.000010      0.000000
    279 O3    s      -0.000073      0.000034      0.000184      0.000000
    280 O2    s      -0.000011      0.000038      0.000056      0.000000
    281 O2    s       0.000074     -0.000042      0.000073      0.000000
    282 O2    s       0.000002     -0.000006     -0.000137      0.000000
    283 O2    s       0.000023      0.000038      0.000020      0.000000
    284 O2    s      -0.000007     -0.000009     -0.000052      0.000000
    285 O2    s       0.000030      0.000030     -0.000054      0.000000
    286 O2    s      -0.000010     -0.000034     -0.000126      0.000000
    287 O2    s       0.000004     -0.000006     -0.000023      0.000000
    288 O2    s      -0.000009     -0.000002      0.000075      0.000000
    289 O3    s       0.000071      0.000013      0.000105      0.000000
    290 O2    s      -0.000009     -0.000015      0.000011      0.000000
    291 O2    s       0.000042     -0.000046      0.000064      0.000000
    292 O2    s      -0.000014     -0.000003      0.000177      0.000000
    293 O3    s       0.000061     -0.000290      0.000953      0.000000
    294 O2    s       0.000004      0.000010     -0.000056      0.000000
    295 O2    s      -0.000036      0.000035     -0.000077      0.000000
    296 O2    s       0.000006     -0.000042     -0.000013      0.000000
    297 O2    s       0.000080     -0.000150      0.000083      0.000000
    298 O2    s      -0.000089      0.000067     -0.000011      0.000000
    299 O2    s      -0.000034      0.000010     -0.000133      0.000000
    300 O2    s       0.000003     -0.000018      0.000063      0.000000
    301 O2    s      -0.000003      0.000034     -0.000025      0.000000
    302 O2    s      -0.000002     -0.000050     -0.000160      0.000000
    303 O3    s       0.000325     -0.000312     -0.000277      0.000000
    304 O3    s      -0.000104      0.000618      0.000147      0.000000
    305 O2    s      -0.000025     -0.000006      0.000061      0.000000
    306 O2    s      -0.000001      0.000026     -0.000089      0.000000
    307 F     s       0.000000      0.000017      0.000068      0.000000
    308 F     s       0.000035     -0.000005      0.000044      0.000000
    309 F     s      -0.000340      0.000376     -0.000209      0.000000
    310 F     s      -0.000120     -0.000271     -0.000310      0.000000
    311 F     s       0.000022      0.000045     -0.000052      0.000000
    312 F     s       0.000004      0.000051     -0.000040      0.000000
--------------------------------------------------------------------------------
  Maximum abs         0.000527      0.000713      0.001512      0.000000
--------------------------------------------------------------------------------


  Time to end of optimisation =       7.1887 seconds


  Peak dynamic memory used =      19.13 MB 


  Timing analysis for GULP :

--------------------------------------------------------------------------------
  Task / Subroutine                                          Time (Seconds)
--------------------------------------------------------------------------------
  Calculation of reciprocal space energy and derivatives          0.2819
  Calculation of real space energy and derivatives                5.9184
  Calculation of three-body energy and derivatives                0.6687
  Calculation of matrix inversion                                 0.1921
--------------------------------------------------------------------------------
  Total CPU time                                                  7.1888
--------------------------------------------------------------------------------


  Dump file written as out.res                                                 
  CIF file written as out.cif                                                 


  Job Finished at 03:44.15 30th November   2016                               

