********************************************************************************
*                       GENERAL UTILITY LATTICE PROGRAM                        *
*                                 Julian Gale                                  *
*                      Nanochemistry Research Institute                        *
*                           Department of Chemistry                            *
*                    Curtin University, Western Australia                      *
********************************************************************************
* Version = 4.2.0 * Last modified =  20th January 2014                         *
********************************************************************************
*  optimise     - perform optimisation run                                     *
*  conp         - constant pressure calculation                                *
*  qok          - running with non charge neutral cell is OK                   *
********************************************************************************

  Job Started  at 03:24.29 30th November   2016                               

  Number of CPUs =     1


  Total number of configurations input =   1

********************************************************************************
*  Input for Configuration =   1                                               *
********************************************************************************

  Formula = Si57Ge3O120F6                                               

  Number of irreducible atoms/shells =     312


  Total number atoms/shells =     312

  Dimensionality = 3               :  Bulk   


  Charge on solid   =  -6.000000 =>neutralising background added


  Cartesian lattice vectors (Angstroms) :

       11.982614    0.000000    0.000000
       -5.927594   10.350200    0.000000
        0.030890    0.255838   29.495870

  Cell parameters (Angstroms/Degrees):

  a =      11.9826    alpha =  89.5986
  b =      11.9274    beta  =  89.9400
  c =      29.4970    gamma = 119.7999

  Initial cell volume =        3658.150173 Angs**3

  Temperature of configuration =  0.000     K 

  Pressure of configuration =         0.000 GPa 

  Fractional coordinates of asymmetric unit :

--------------------------------------------------------------------------------
   No.  Atomic       x           y          z         Charge      Occupancy
        Label      (Frac)      (Frac)     (Frac)        (e)         (Frac)  
--------------------------------------------------------------------------------
      1 Si    c    0.699600    0.375700    0.033890     4.00000    1.000000    
      2 Si    c    0.620475 *  0.322466 *  0.366884 *   4.00000    1.000000    
      3 Si    c    0.677399 *  0.299018 *  0.697516 *   4.00000    1.000000    
      4 Si    c    0.295410 *  0.619908 *  0.531003 *   4.00000    1.000000    
      5 Si    c    0.379468 *  0.679535 *  0.868002 *   4.00000    1.000000    
      6 Si    c    0.323961 *  0.702786 *  0.200511 *   4.00000    1.000000    
      7 Si    c    0.379058 *  0.704098 *  0.300923 *   4.00000    1.000000    
      8 Si    c    0.325450 *  0.620769 *  0.970903 *   4.00000    1.000000    
      9 Si    c    0.292721 *  0.672403 *  0.631198 *   4.00000    1.000000    
     10 Si    c    0.624677 *  0.299348 *  0.799898 *   4.00000    1.000000    
     11 Si    c    0.673698 *  0.378183 *  0.467070 *   4.00000    1.000000    
     12 Si    c    0.704069 *  0.324665 *  0.135446 *   4.00000    1.000000    
     13 Ge    c    0.533043 *  0.430488 *  0.966551 *   4.00000    1.000000    
     14 Si    c    0.581583 *  0.112434 *  0.302022 *   4.00000    1.000000    
     15 Si    c    0.885746 *  0.471167 *  0.632435 *   4.00000    1.000000    
     16 Si    c    0.469585 *  0.582464 *  0.467078 *   4.00000    1.000000    
     17 Ge    c    0.434228 *  0.898788 *  0.798447 *   4.00000    1.000000    
     18 Si    c    0.113789 *  0.531087 *  0.135978 *   4.00000    1.000000    
     19 Si    c    0.417388 *  0.531092 *  0.365742 *   4.00000    1.000000    
     20 Si    c    0.111689 *  0.581861 *  0.034650 *   4.00000    1.000000    
     21 Si    c    0.467220 *  0.872097 *  0.697976 *   4.00000    1.000000    
     22 Si    c    0.591800 *  0.468644 *  0.867074 *   4.00000    1.000000    
     23 Si    c    0.884366 *  0.417136 *  0.531263 *   4.00000    1.000000    
     24 Si    c    0.530296 *  0.114453 *  0.200506 *   4.00000    1.000000    
     25 Si    c    0.305322 *  0.395616 *  0.855162 *   4.00000    1.000000    
     26 Si    c    0.602167 *  0.904487 *  0.186118 *   4.00000    1.000000    
     27 Si    c    0.094618 *  0.697966 *  0.517044 *   4.00000    1.000000    
     28 Si    c    0.697937 *  0.601837 *  0.352323 *   4.00000    1.000000    
     29 Si    c    0.397811 *  0.090396 *  0.683918 *   4.00000    1.000000    
     30 Si    c    0.904351 *  0.301191 *  0.020715 *   4.00000    1.000000    
     31 Si    c    0.396671 *  0.301078 *  0.481900 *   4.00000    1.000000    
     32 Si    c    0.904902 *  0.602384 *  0.150124 *   4.00000    1.000000    
     33 Si    c    0.706870 *  0.097967 *  0.819977 *   4.00000    1.000000    
     34 Si    c    0.608275 *  0.703634 *  0.988069 *   4.00000    1.000000    
     35 Si    c    0.091225 *  0.395017 *  0.647487 *   4.00000    1.000000    
     36 Si    c    0.301416 *  0.904552 *  0.316295 *   4.00000    1.000000    
     37 Si    c    0.253695 *  0.333368 *  0.957121 *   4.00000    1.000000    
     38 Si    c    0.659609 *  0.911067 *  0.286690 *   4.00000    1.000000    
     39 Si    c    0.087577 *  0.749280 *  0.617350 *   4.00000    1.000000    
     40 Si    c    0.748034 *  0.660633 *  0.452695 *   4.00000    1.000000    
     41 Si    c    0.338134 *  0.086928 *  0.785872 *   4.00000    1.000000    
     42 Si    c    0.913484 *  0.253326 *  0.121336 *   4.00000    1.000000    
     43 Si    c    0.339614 *  0.251280 *  0.381437 *   4.00000    1.000000    
     44 Si    c    0.909581 *  0.658063 *  0.049255 *   4.00000    1.000000    
     45 Ge    c    0.745477 *  0.080602 *  0.717135 *   4.00000    1.000000    
     46 Si    c    0.664493 *  0.749152 *  0.884858 *   4.00000    1.000000    
     47 Si    c    0.085488 *  0.338790 *  0.546882 *   4.00000    1.000000    
     48 Si    c    0.252152 *  0.912898 *  0.215689 *   4.00000    1.000000    
     49 Si    c    0.971225 *  0.121350 *  0.970480 *   4.00000    1.000000    
     50 Si    c    0.878859 *  0.850358 *  0.301905 *   4.00000    1.000000    
     51 Si    c    0.152184 *  0.029303 *  0.634133 *   4.00000    1.000000    
     52 Si    c    0.026828 *  0.879613 *  0.467548 *   4.00000    1.000000    
     53 Si    c    0.122345 *  0.153785 *  0.802433 *   4.00000    1.000000    
     54 Si    c    0.851628 *  0.973448 *  0.136871 *   4.00000    1.000000    
     55 Si    c    0.121069 *  0.972754 *  0.366632 *   4.00000    1.000000    
     56 Si    c    0.852540 *  0.882099 *  0.036532 *   4.00000    1.000000    
     57 Si    c    0.029839 *  0.148978 *  0.700527 *   4.00000    1.000000    
     58 Si    c    0.884291 *  0.030958 *  0.869650 *   4.00000    1.000000    
     59 Si    c    0.148736 *  0.121465 *  0.532963 *   4.00000    1.000000    
     60 Si    c    0.972699 *  0.849638 *  0.201282 *   4.00000    1.000000    
     61 O2    c    0.935438 *  0.002314 *  0.003749 *   0.87073    1.000000    
     62 O2    c    0.998936 *  0.930862 *  0.334710 *   0.87073    1.000000    
     63 O2    c    0.083018 *  0.074045 *  0.670145 *   0.87073    1.000000    
     64 O2    c    0.068170 *  0.997855 *  0.501702 *   0.87073    1.000000    
     65 O2    c    0.003765 *  0.068987 *  0.835870 *   0.87073    1.000000    
     66 O2    c    0.929795 *  0.931480 *  0.170158 *   0.87073    1.000000    
     67 O2    c    0.340266 *  0.579560 *  0.333544 *   0.87073    1.000000    
     68 O2    c    0.417270 *  0.753874 *  0.662641 *   0.87073    1.000000    
     69 O2    c    0.237771 *  0.658031 *  0.002011 *   0.87073    1.000000    
     70 O2    c    0.662946 *  0.426809 *  0.828895 *   0.87073    1.000000    
     71 O2    c    0.580281 *  0.240647 *  0.168178 *   0.87073    1.000000    
     72 O2    c    0.759078 *  0.339540 *  0.499599 *   0.87073    1.000000    
     73 O3    c    0.582711 *  0.341855 *  0.001748 *   1.33043    1.000000    
     74 O2    c    0.759327 *  0.422924 *  0.664740 *   0.87073    1.000000    
     75 O2    c    0.658490 *  0.237550 *  0.334401 *   0.87073    1.000000    
     76 O2    c    0.419029 *  0.659026 *  0.498830 *   0.87073    1.000000    
     77 O2    c    0.239612 *  0.580384 *  0.168084 *   0.87073    1.000000    
     78 O3    c    0.345864 *  0.761863 *  0.835308 *   1.33043    1.000000    
     79 O2    c    0.122595 *  0.213648 *  0.976379 *   0.87073    1.000000    
     80 O2    c    0.786602 *  0.912413 *  0.306677 *   0.87073    1.000000    
     81 O2    c    0.085951 *  0.874215 *  0.638023 *   0.87073    1.000000    
     82 O2    c    0.872940 *  0.787626 *  0.472706 *   0.87073    1.000000    
     83 O2    c    0.215387 *  0.092728 *  0.805153 *   0.87073    1.000000    
     84 O2    c    0.913791 *  0.127257 *  0.142263 *   0.87073    1.000000    
     85 O2    c    0.213613 *  0.126993 *  0.360952 *   0.87073    1.000000    
     86 O2    c    0.907631 *  0.784485 *  0.029426 *   0.87073    1.000000    
     87 O3    c    0.879129 *  0.078621 *  0.694125 *   1.33043    1.000000    
     88 O2    c    0.787610 *  0.877363 *  0.863814 *   0.87073    1.000000    
     89 O2    c    0.085303 *  0.212445 *  0.526775 *   0.87073    1.000000    
     90 O2    c    0.126431 *  0.913020 *  0.195462 *   0.87073    1.000000    
     91 O2    c    0.934522 *  0.862143 *  0.252065 *   0.87073    1.000000    
     92 O2    c    0.136643 *  0.073640 *  0.584524 *   0.87073    1.000000    
     93 O2    c    0.936398 *  0.065756 *  0.920100 *   0.87073    1.000000    
     94 O2    c    0.069437 *  0.145805 *  0.752255 *   0.87073    1.000000    
     95 O2    c    0.869876 *  0.933693 *  0.087124 *   0.87073    1.000000    
     96 O2    c    0.068138 *  0.936599 *  0.417495 *   0.87073    1.000000    
     97 O2    c    0.899676 *  0.201930 *  0.982044 *   0.87073    1.000000    
     98 O2    c    0.797131 *  0.698417 *  0.314193 *   0.87073    1.000000    
     99 O2    c    0.304064 *  0.091964 *  0.644782 *   0.87073    1.000000    
    100 O2    c    0.096322 *  0.796384 *  0.478507 *   0.87073    1.000000    
    101 O2    c    0.205886 *  0.303526 *  0.816491 *   0.87073    1.000000    
    102 O2    c    0.699384 *  0.903390 *  0.147916 *   0.87073    1.000000    
    103 O2    c    0.202521 *  0.902172 *  0.354760 *   0.87073    1.000000    
    104 O2    c    0.701831 *  0.813534 *  0.023876 *   0.87073    1.000000    
    105 O2    c    0.092466 *  0.300051 *  0.686666 *   0.87073    1.000000    
    106 O2    c    0.810643 *  0.109807 *  0.858079 *   0.87073    1.000000    
    107 O2    c    0.299686 *  0.202360 *  0.520435 *   0.87073    1.000000    
    108 O2    c    0.902832 *  0.698661 *  0.188553 *   0.87073    1.000000    
    109 O2    c    0.322721 *  0.645593 *  0.251044 *   0.87073    1.000000    
    110 O2    c    0.351201 *  0.674552 *  0.581198 *   0.87073    1.000000    
    111 O2    c    0.328716 *  0.673214 *  0.919747 *   0.87073    1.000000    
    112 O2    c    0.676545 *  0.347394 *  0.748635 *   0.87073    1.000000    
    113 O2    c    0.648004 *  0.323585 *  0.085434 *   0.87073    1.000000    
    114 O2    c    0.675854 *  0.320915 *  0.417288 *   0.87073    1.000000    
    115 O3    c    0.366431 *  0.315112 *  0.976323 *   1.33043    1.000000    
    116 O2    c    0.668858 *  0.043176 *  0.305195 *   0.87073    1.000000    
    117 O2    c    0.954946 *  0.627339 *  0.636027 *   0.87073    1.000000    
    118 O2    c    0.625136 *  0.670163 *  0.470856 *   0.87073    1.000000    
    119 O3    c    0.326734 *  0.957407 *  0.805143 *   1.33043    1.000000    
    120 O2    c    0.045615 *  0.374561 *  0.139939 *   0.87073    1.000000    
    121 O2    c    0.330407 *  0.374770 *  0.363339 *   0.87073    1.000000    
    122 O2    c    0.043799 *  0.670432 *  0.031184 *   0.87073    1.000000    
    123 O3    c    0.621728 *  0.938152 *  0.696179 *   1.33043    1.000000    
    124 O2    c    0.674785 *  0.626921 *  0.866166 *   0.87073    1.000000    
    125 O2    c    0.953517 *  0.329615 *  0.528949 *   0.87073    1.000000    
    126 O2    c    0.374451 *  0.046029 *  0.197635 *   0.87073    1.000000    
    127 O2    c    0.771225 *  0.300830 *  0.013687 *   0.87073    1.000000    
    128 O2    c    0.696769 *  0.466939 *  0.345028 *   0.87073    1.000000    
    129 O2    c    0.531830 *  0.224535 *  0.678177 *   0.87073    1.000000    
    130 O2    c    0.227369 *  0.696236 *  0.509131 *   0.87073    1.000000    
    131 O2    c    0.308682 *  0.531336 *  0.849832 *   0.87073    1.000000    
    132 O2    c    0.467977 *  0.771216 *  0.178723 *   0.87073    1.000000    
    133 O2    c    0.302965 *  0.770717 *  0.323950 *   0.87073    1.000000    
    134 O2    c    0.469129 *  0.696261 *  0.991836 *   0.87073    1.000000    
    135 O2    c    0.223920 *  0.529544 *  0.654491 *   0.87073    1.000000    
    136 O2    c    0.699118 *  0.230412 *  0.822241 *   0.87073    1.000000    
    137 O2    c    0.530950 *  0.301988 *  0.489973 *   0.87073    1.000000    
    138 O2    c    0.772223 *  0.467605 *  0.157986 *   0.87073    1.000000    
    139 O2    c    0.787360 *  0.532861 *  0.029234 *   0.87073    1.000000    
    140 O2    c    0.465037 *  0.250235 *  0.362290 *   0.87073    1.000000    
    141 O3    c    0.745461 *  0.213666 *  0.694155 *   1.33043    1.000000    
    142 O2    c    0.211466 *  0.463860 *  0.527036 *   0.87073    1.000000    
    143 O2    c    0.534525 *  0.740054 *  0.866351 *   0.87073    1.000000    
    144 O2    c    0.251807 *  0.786971 *  0.196126 *   0.87073    1.000000    
    145 O2    c    0.534719 *  0.783962 *  0.306337 *   0.87073    1.000000    
    146 O2    c    0.260777 *  0.465863 *  0.974449 *   0.87073    1.000000    
    147 O2    c    0.214222 *  0.750703 *  0.636758 *   0.87073    1.000000    
    148 O2    c    0.469906 *  0.210902 *  0.802948 *   0.87073    1.000000    
    149 O2    c    0.749037 *  0.534577 *  0.472421 *   0.87073    1.000000    
    150 O2    c    0.786230 *  0.250458 *  0.140790 *   0.87073    1.000000    
    151 O2    c    0.240090 *  0.322064 *  0.902072 *   0.87073    1.000000    
    152 O2    c    0.676552 *  0.908928 *  0.232478 *   0.87073    1.000000    
    153 O2    c    0.090212 *  0.769401 *  0.563097 *   0.87073    1.000000    
    154 O2    c    0.767329 *  0.677219 *  0.398463 *   0.87073    1.000000    
    155 O2    c    0.327717 *  0.086139 *  0.731091 *   0.87073    1.000000    
    156 O2    c    0.912005 *  0.232045 *  0.067197 *   0.87073    1.000000    
    157 O2    c    0.322226 *  0.231002 *  0.435795 *   0.87073    1.000000    
    158 O2    c    0.907818 *  0.676014 *  0.103531 *   0.87073    1.000000    
    159 O3    c    0.777726 *  0.090184 *  0.774185 *   1.33043    1.000000    
    160 O2    c    0.677476 *  0.763935 *  0.939020 *   0.87073    1.000000    
    161 O2    c    0.086845 *  0.320790 *  0.601208 *   0.87073    1.000000    
    162 O2    c    0.231926 *  0.910015 *  0.270000 *   0.87073    1.000000    
    163 O3    c    0.604867 *  0.573464 *  0.000782 *   1.33043    1.000000    
    164 O2    c    0.440272 *  0.029760 *  0.325296 *   0.87073    1.000000    
    165 O2    c    0.965576 *  0.409375 *  0.656068 *   0.87073    1.000000    
    166 O2    c    0.410365 *  0.440745 *  0.490785 *   0.87073    1.000000    
    167 O3    c    0.574705 *  0.970526 *  0.831849 *   1.33043    1.000000    
    168 O2    c    0.031130 *  0.589973 *  0.159229 *   0.87073    1.000000    
    169 O2    c    0.558927 *  0.587602 *  0.343182 *   0.87073    1.000000    
    170 O2    c    0.030088 *  0.440788 *  0.011370 *   0.87073    1.000000    
    171 O2    c    0.419586 *  0.969375 *  0.677722 *   0.87073    1.000000    
    172 O2    c    0.446039 *  0.412804 *  0.847110 *   0.87073    1.000000    
    173 O2    c    0.969498 *  0.558974 *  0.508420 *   0.87073    1.000000    
    174 O2    c    0.586919 *  0.029650 *  0.177570 *   0.87073    1.000000    
    175 O2    c    0.582378 *  0.166622 *  0.251289 *   0.87073    1.000000    
    176 O2    c    0.831788 *  0.418218 *  0.582109 *   0.87073    1.000000    
    177 O3    c    0.601739 *  0.410666 *  0.914360 *   1.33043    1.000000    
    178 O3    c    0.412856 *  0.813999 *  0.747466 *   1.33043    1.000000    
    179 O2    c    0.167871 *  0.583870 *  0.085071 *   0.87073    1.000000    
    180 O2    c    0.417517 *  0.583900 *  0.416450 *   0.87073    1.000000    
    181 F     c    0.451981 *  0.904472 *  0.252249 *   0.56000    1.000000    
    182 F     c    0.092891 *  0.549039 *  0.582992 *   0.56000    1.000000    
    183 F     c    0.476052 *  0.522506 *  0.929106 *   0.56000    1.000000    
    184 F     c    0.547204 *  0.058628 *  0.757368 *   0.56000    1.000000    
    185 F     c    0.911444 *  0.453889 *  0.086182 *   0.56000    1.000000    
    186 F     c    0.548058 *  0.451828 *  0.418202 *   0.56000    1.000000    
    187 O2    s    0.930037 *  0.002197 *  0.003676 *  -2.87073    1.000000    
    188 O2    s    0.999355 *  0.926657 *  0.334656 *  -2.87073    1.000000    
    189 O2    s    0.085128 *  0.077196 *  0.669386 *  -2.87073    1.000000    
    190 O2    s    0.072612 *  0.998609 *  0.501426 *  -2.87073    1.000000    
    191 O2    s    0.003948 *  0.074257 *  0.835833 *  -2.87073    1.000000    
    192 O2    s    0.925850 *  0.926909 *  0.169935 *  -2.87073    1.000000    
    193 O2    s    0.352326 *  0.587213 *  0.333578 *  -2.87073    1.000000    
    194 O2    s    0.409371 *  0.757638 *  0.663001 *  -2.87073    1.000000    
    195 O2    s    0.234307 *  0.646460 *  0.002018 *  -2.87073    1.000000    
    196 O2    s    0.651782 *  0.417154 *  0.829500 *  -2.87073    1.000000    
    197 O2    s    0.587673 *  0.236005 *  0.168221 *  -2.87073    1.000000    
    198 O2    s    0.763474 *  0.351578 *  0.499598 *  -2.87073    1.000000    
    199 O3    s    0.591883 *  0.351586 *  0.002773 *  -3.33043    1.000000    
    200 O2    s    0.763419 *  0.414831 *  0.664938 *  -2.87073    1.000000    
    201 O2    s    0.646681 *  0.233621 *  0.334488 *  -2.87073    1.000000    
    202 O2    s    0.411246 *  0.647084 *  0.498957 *  -2.87073    1.000000    
    203 O2    s    0.235589 *  0.588105 *  0.168201 *  -2.87073    1.000000    
    204 O3    s    0.355437 *  0.761783 *  0.836492 *  -3.33043    1.000000    
    205 O2    s    0.119748 *  0.216274 *  0.973640 *  -2.87073    1.000000    
    206 O2    s    0.783368 *  0.905661 *  0.304138 *  -2.87073    1.000000    
    207 O2    s    0.093189 *  0.877856 *  0.635507 *  -2.87073    1.000000    
    208 O2    s    0.876401 *  0.784336 *  0.470141 *  -2.87073    1.000000    
    209 O2    s    0.218575 *  0.098747 *  0.802796 *  -2.87073    1.000000    
    210 O2    s    0.907036 *  0.123702 *  0.139546 *  -2.87073    1.000000    
    211 O2    s    0.216864 *  0.123509 *  0.363647 *  -2.87073    1.000000    
    212 O2    s    0.901946 *  0.781863 *  0.032206 *  -2.87073    1.000000    
    213 O3    s    0.884964 *  0.086210 *  0.696528 *  -3.33043    1.000000    
    214 O2    s    0.785110 *  0.880301 *  0.866558 *  -2.87073    1.000000    
    215 O2    s    0.092054 *  0.215866 *  0.529491 *  -2.87073    1.000000    
    216 O2    s    0.123179 *  0.906297 *  0.198150 *  -2.87073    1.000000    
    217 O2    s    0.932426 *  0.859375 *  0.252062 *  -2.87073    1.000000    
    218 O2    s    0.139762 *  0.073932 *  0.584419 *  -2.87073    1.000000    
    219 O2    s    0.934299 *  0.067943 *  0.919906 *  -2.87073    1.000000    
    220 O2    s    0.071090 *  0.147042 *  0.752232 *  -2.87073    1.000000    
    221 O2    s    0.865786 *  0.932307 *  0.087014 *  -2.87073    1.000000    
    222 O2    s    0.069344 *  0.934145 *  0.417522 *  -2.87073    1.000000    
    223 O2    s    0.907803 *  0.203259 *  0.984669 *  -2.87073    1.000000    
    224 O2    s    0.795489 *  0.704510 *  0.316856 *  -2.87073    1.000000    
    225 O2    s    0.298025 *  0.085222 *  0.647773 *  -2.87073    1.000000    
    226 O2    s    0.088740 *  0.795041 *  0.481338 *  -2.87073    1.000000    
    227 O2    s    0.207110 *  0.296944 *  0.818915 *  -2.87073    1.000000    
    228 O2    s    0.705439 *  0.910897 *  0.150667 *  -2.87073    1.000000    
    229 O2    s    0.203827 *  0.909897 *  0.352149 *  -2.87073    1.000000    
    230 O2    s    0.708227 *  0.809695 *  0.021602 *  -2.87073    1.000000    
    231 O2    s    0.085804 *  0.294224 *  0.684022 *  -2.87073    1.000000    
    232 O2    s    0.808167 *  0.100414 *  0.855512 *  -2.87073    1.000000    
    233 O2    s    0.293452 *  0.203751 *  0.517860 *  -2.87073    1.000000    
    234 O2    s    0.910551 *  0.705089 *  0.186019 *  -2.87073    1.000000    
    235 O2    s    0.328617 *  0.657431 *  0.251012 *  -2.87073    1.000000    
    236 O2    s    0.339335 *  0.668660 *  0.581175 *  -2.87073    1.000000    
    237 O2    s    0.333525 *  0.668502 *  0.919809 *  -2.87073    1.000000    
    238 O2    s    0.671246 *  0.337306 *  0.748590 *  -2.87073    1.000000    
    239 O2    s    0.659064 *  0.328881 *  0.085597 *  -2.87073    1.000000    
    240 O2    s    0.669979 *  0.326935 *  0.417272 *  -2.87073    1.000000    
    241 O3    s    0.365626 *  0.324899 *  0.973571 *  -3.33043    1.000000    
    242 O2    s    0.658879 *  0.036508 *  0.302927 *  -2.87073    1.000000    
    243 O2    s    0.961579 *  0.623785 *  0.633702 *  -2.87073    1.000000    
    244 O2    s    0.621931 *  0.660132 *  0.468570 *  -2.87073    1.000000    
    245 O3    s    0.335957 *  0.966611 *  0.802619 *  -3.33043    1.000000    
    246 O2    s    0.038879 *  0.378058 *  0.137578 *  -2.87073    1.000000    
    247 O2    s    0.340416 *  0.377893 *  0.365518 *  -2.87073    1.000000    
    248 O2    s    0.037120 *  0.660073 *  0.033397 *  -2.87073    1.000000    
    249 O3    s    0.616930 *  0.943300 *  0.698091 *  -3.33043    1.000000    
    250 O2    s    0.665573 *  0.624018 *  0.868207 *  -2.87073    1.000000    
    251 O2    s    0.960273 *  0.339598 *  0.531087 *  -2.87073    1.000000    
    252 O2    s    0.377635 *  0.039098 *  0.199839 *  -2.87073    1.000000    
    253 O2    s    0.778562 *  0.308443 *  0.016539 *  -2.87073    1.000000    
    254 O2    s    0.688990 *  0.466251 *  0.348099 *  -2.87073    1.000000    
    255 O2    s    0.532790 *  0.218095 *  0.680824 *  -2.87073    1.000000    
    256 O2    s    0.220323 *  0.688511 *  0.512265 *  -2.87073    1.000000    
    257 O2    s    0.315471 *  0.531519 *  0.852252 *  -2.87073    1.000000    
    258 O2    s    0.467310 *  0.778208 *  0.181767 *  -2.87073    1.000000    
    259 O2    s    0.310604 *  0.778011 *  0.320749 *  -2.87073    1.000000    
    260 O2    s    0.468292 *  0.689127 *  0.989250 *  -2.87073    1.000000    
    261 O2    s    0.216884 *  0.529990 *  0.651307 *  -2.87073    1.000000    
    262 O2    s    0.692091 *  0.224025 *  0.819646 *  -2.87073    1.000000    
    263 O2    s    0.531474 *  0.309672 *  0.486755 *  -2.87073    1.000000    
    264 O2    s    0.779282 *  0.467210 *  0.154817 *  -2.87073    1.000000    
    265 O2    s    0.792466 *  0.531141 *  0.031916 *  -2.87073    1.000000    
    266 O2    s    0.467627 *  0.258002 *  0.364829 *  -2.87073    1.000000    
    267 O3    s    0.738339 *  0.211229 *  0.696410 *  -3.33043    1.000000    
    268 O2    s    0.206426 *  0.466600 *  0.529588 *  -2.87073    1.000000    
    269 O2    s    0.532990 *  0.734752 *  0.868539 *  -2.87073    1.000000    
    270 O2    s    0.259539 *  0.791956 *  0.198692 *  -2.87073    1.000000    
    271 O2    s    0.532123 *  0.789528 *  0.303691 *  -2.87073    1.000000    
    272 O2    s    0.267208 *  0.468944 *  0.972300 *  -2.87073    1.000000    
    273 O2    s    0.208567 *  0.742469 *  0.634142 *  -2.87073    1.000000    
    274 O2    s    0.472500 *  0.207151 *  0.800848 *  -2.87073    1.000000    
    275 O2    s    0.741060 *  0.532025 *  0.469781 *  -2.87073    1.000000    
    276 O2    s    0.791533 *  0.258571 *  0.138161 *  -2.87073    1.000000    
    277 O2    s    0.248494 *  0.331081 *  0.902548 *  -2.87073    1.000000    
    278 O2    s    0.666999 *  0.908689 *  0.233417 *  -2.87073    1.000000    
    279 O2    s    0.090372 *  0.759864 *  0.564102 *  -2.87073    1.000000    
    280 O2    s    0.758032 *  0.667592 *  0.399462 *  -2.87073    1.000000    
    281 O2    s    0.336256 *  0.086648 *  0.731730 *  -2.87073    1.000000    
    282 O2    s    0.911389 *  0.241477 *  0.068059 *  -2.87073    1.000000    
    283 O2    s    0.331860 *  0.240475 *  0.434915 *  -2.87073    1.000000    
    284 O2    s    0.907712 *  0.666379 *  0.102759 *  -2.87073    1.000000    
    285 O3    s    0.768332 *  0.090025 *  0.773715 *  -3.33043    1.000000    
    286 O2    s    0.669285 *  0.756353 *  0.937960 *  -2.87073    1.000000    
    287 O2    s    0.087148 *  0.330438 *  0.600319 *  -2.87073    1.000000    
    288 O2    s    0.241371 *  0.909762 *  0.269157 *  -2.87073    1.000000    
    289 O3    s    0.600139 *  0.577799 *  0.997092 *  -3.33043    1.000000    
    290 O2    s    0.440061 *  0.024764 *  0.321913 *  -2.87073    1.000000    
    291 O2    s    0.970681 *  0.414351 *  0.652719 *  -2.87073    1.000000    
    292 O2    s    0.415218 *  0.440487 *  0.487368 *  -2.87073    1.000000    
    293 O3    s    0.577857 *  0.978362 *  0.828152 *  -3.33043    1.000000    
    294 O2    s    0.026025 *  0.585040 *  0.155832 *  -2.87073    1.000000    
    295 O2    s    0.559098 *  0.583018 *  0.346549 *  -2.87073    1.000000    
    296 O2    s    0.025108 *  0.440620 *  0.014765 *  -2.87073    1.000000    
    297 O2    s    0.422076 *  0.973299 *  0.680458 *  -2.87073    1.000000    
    298 O2    s    0.445232 *  0.416526 *  0.849944 *  -2.87073    1.000000    
    299 O2    s    0.974209 *  0.559032 *  0.511769 *  -2.87073    1.000000    
    300 O2    s    0.582480 *  0.024746 *  0.180903 *  -2.87073    1.000000    
    301 O2    s    0.576920 *  0.155589 *  0.251354 *  -2.87073    1.000000    
    302 O2    s    0.842853 *  0.423653 *  0.582168 *  -2.87073    1.000000    
    303 O3    s    0.596254 *  0.418061 *  0.912761 *  -3.33043    1.000000    
    304 O3    s    0.419848 *  0.825989 *  0.746358 *  -3.33043    1.000000    
    305 O2    s    0.156517 *  0.578219 *  0.085131 *  -2.87073    1.000000    
    306 O2    s    0.422992 *  0.578287 *  0.416515 *  -2.87073    1.000000    
    307 F     s    0.451784 *  0.904022 *  0.252382 *  -1.56000    1.000000    
    308 F     s    0.093238 *  0.549418 *  0.583142 *  -1.56000    1.000000    
    309 F     s    0.479920 *  0.516599 *  0.931417 *  -1.56000    1.000000    
    310 F     s    0.544577 *  0.052364 *  0.758712 *  -1.56000    1.000000    
    311 F     s    0.911897 *  0.453962 *  0.086301 *  -1.56000    1.000000    
    312 F     s    0.548340 *  0.451603 *  0.418345 *  -1.56000    1.000000    
--------------------------------------------------------------------------------



********************************************************************************
*  General input information                                                   *
********************************************************************************

  Species output for all configurations : 

--------------------------------------------------------------------------------
  Species    Type    Atomic    Atomic    Charge       Radii (Angs)     Library
                     Number     Mass       (e)     Cova   Ionic  VDW   Symbol
--------------------------------------------------------------------------------
    Si       Core       14      28.09   4.000000   1.200  0.000  2.100          
    O1       Core        8      16.00   1.733957   0.730  0.000  1.360          
    O1       Shell       8       0.00  -3.733957   0.730  0.000  1.360          
    O2       Core        8      16.00   0.870733   0.730  0.000  1.360          
    O2       Shell       8       0.00  -2.870733   0.730  0.000  1.360          
    O3       Core        8      16.00   1.330431   0.730  0.000  1.360          
    O3       Shell       8       0.00  -3.330431   0.730  0.000  1.360          
    F        Core        9      19.00   0.560000   0.710  0.000  1.300          
    F        Shell       9       0.00  -1.560000   0.710  0.000  1.300          
    Ge       Core       32      72.61   4.000000   1.170  0.000  1.750          
--------------------------------------------------------------------------------


  Lattice summation method               =    Ewald          (3-D)
                                         =    Parry          (2-D)
                                         =    Saunders et al (1-D)
  Accuracy factor for lattice sums       =   12.000


  Time limit = Infinity

  Maximum range for interatomic potentials =        16.000000 Angstroms

  Taper potentials to zero over   1.0000 Angstroms using polynomial

  General interatomic potentials :

--------------------------------------------------------------------------------
Atom  Types   Potential         A         B         C         D     Cutoffs(Ang)
  1     2                                                            Min    Max 
--------------------------------------------------------------------------------
Si   c O1   s Buckingham    0.132E+04 0.318      10.1      0.00     0.000 16.000
Si   c O2   s Buckingham    0.132E+04 0.318      10.1      0.00     0.000 16.000
Si   c O3   s Buckingham    0.132E+04 0.318      10.1      0.00     0.000 16.000
Ge   c O1   s Buckingham    0.150E+04 0.326      16.8      0.00     0.000 16.000
Ge   c O2   s Buckingham    0.150E+04 0.326      16.8      0.00     0.000 16.000
Ge   c O3   s Buckingham    0.150E+04 0.326      16.8      0.00     0.000 16.000
O1   s O1   s Buckingham    0.228E+05 0.149      10.9      0.00     0.000 16.000
O1   s O2   s Buckingham    0.228E+05 0.149      10.9      0.00     0.000 16.000
O1   s O3   s Buckingham    0.228E+05 0.149      10.9      0.00     0.000 16.000
O2   s O2   s Buckingham    0.228E+05 0.149      10.9      0.00     0.000 16.000
O2   s O3   s Buckingham    0.228E+05 0.149      10.9      0.00     0.000 16.000
O3   s O3   s Buckingham    0.228E+05 0.149      10.9      0.00     0.000 16.000
Si   c F    s Buckingham     977.     0.282      0.00      0.00     0.000 16.000
Ge   c F    s Buckingham     681.     0.320      0.00      0.00     0.000 16.000
F    s F    s Buckingham     540.     0.262      0.00      0.00     0.000 16.000
O1   s F    s Buckingham    0.168E+04 0.268      0.00      0.00     0.000 16.000
O2   s F    s Buckingham    0.168E+04 0.268      0.00      0.00     0.000 16.000
O3   s F    s Buckingham    0.168E+04 0.268      0.00      0.00     0.000 16.000
O2   c O2   s Spring (c-s)   76.0      0.00      0.00      0.00     0.000  0.800
O3   c O3   s Spring (c-s)   128.      0.00      0.00      0.00     0.000  0.800
O1   c O1   s Spring (c-s)   180.      0.00      0.00      0.00     0.000  0.800
F    c F    s Spring (c-s)   33.5      0.00      0.00      0.00     0.000  0.800
--------------------------------------------------------------------------------

  General Three-body potentials :

  Harmonic form:

--------------------------------------------------------------------------------
Atom    Atom    Atom           Force Constants            Theta     Cutoffs  
  1       2       3     (eVrad**-2/eVrad**-3/eVrad**-4)   (deg)  1-2  1-3  2-3
--------------------------------------------------------------------------------
Si    c O1    s O1    s  1.261        0.0000    0.0000   109.470 0.00 0.00 0.00
                                                                 1.90 1.90 3.50
Si    c O1    s O2    s  1.261        0.0000    0.0000   109.470 0.00 0.00 0.00
                                                                 1.90 1.90 3.50
Si    c O2    s O2    s  1.261        0.0000    0.0000   109.470 0.00 0.00 0.00
                                                                 1.90 1.90 3.50
--------------------------------------------------------------------------------

********************************************************************************
*  Output for configuration   1                                                *
********************************************************************************


  Components of energy : 

--------------------------------------------------------------------------------
  Interatomic potentials     =        2063.99833760 eV
  Three-body potentials      =           0.44952148 eV
  Monopole - monopole (real) =       -6613.81622969 eV
  Monopole - monopole (recip)=       -3170.95125448 eV
  Monopole - monopole (total)=       -9784.76748418 eV
  Neutralising energy        =          -6.45924020 eV
--------------------------------------------------------------------------------
  Total lattice energy       =       -7726.77886530 eV
--------------------------------------------------------------------------------
  Total lattice energy       =         -745516.0459 kJ/(mole unit cells)
--------------------------------------------------------------------------------


  Number of variables =      939

  Maximum number of calculations  =          1000
  Maximum Hessian update interval =            10
  Maximum step size               =   1.000000000
  Maximum parameter tolerance     =   0.000010000
  Maximum function  tolerance     =   0.000010000
  Maximum gradient  tolerance     =   0.001000000
  Maximum gradient  component     =   0.010000000

  Symmetry not applied to optimisation

  Cell parameters to be optimised using strains

  Newton-Raphson optimiser to be used

  BFGS hessian update to be used

  Dumpfile to be written after every cycle

  Start of bulk optimisation :

  Cycle:      0 Energy:     -7726.778865  Gnorm:      0.013554  CPU:    1.059
  ** Hessian calculated **
  Cycle:      1 Energy:     -7726.836340  Gnorm:      0.018618  CPU:    3.297
  Cycle:      2 Energy:     -7726.894151  Gnorm:      0.007277  CPU:    5.009
  Cycle:      3 Energy:     -7726.895158  Gnorm:      0.001687  CPU:    6.391
  Cycle:      4 Energy:     -7726.895260  Gnorm:      0.000272  CPU:    7.772
  Cycle:      5 Energy:     -7726.895266  Gnorm:      0.000102  CPU:    9.154
  Cycle:      6 Energy:     -7726.895266  Gnorm:      0.000034  CPU:   10.535


  **** Optimisation achieved ****


  Final energy =   -7726.89526632 eV
  Final Gnorm  =       0.00000519

  Components of energy : 

--------------------------------------------------------------------------------
  Interatomic potentials     =        2064.17914918 eV
  Three-body potentials      =           0.45641678 eV
  Monopole - monopole (real) =       -6614.92242601 eV
  Monopole - monopole (recip)=       -3170.15079517 eV
  Monopole - monopole (total)=       -9785.07322118 eV
  Neutralising energy        =          -6.45761111 eV
--------------------------------------------------------------------------------
  Total lattice energy       =       -7726.89526632 eV
--------------------------------------------------------------------------------
  Total lattice energy       =         -745527.2768 kJ/(mole unit cells)
--------------------------------------------------------------------------------

  Final fractional coordinates of atoms :

--------------------------------------------------------------------------------
   No.  Atomic        x           y          z          Radius
        Label       (Frac)      (Frac)     (Frac)       (Angs) 
--------------------------------------------------------------------------------
     1  Si    c     0.699600    0.375700    0.033890    0.000000
     2  Si    c     0.614793    0.311708    0.367356    0.000000
     3  Si    c     0.669663    0.277105    0.698026    0.000000
     4  Si    c     0.286642    0.601939    0.531476    0.000000
     5  Si    c     0.384634    0.675073    0.868840    0.000000
     6  Si    c     0.323183    0.697717    0.200932    0.000000
     7  Si    c     0.376271    0.695639    0.301430    0.000000
     8  Si    c     0.329583    0.618352    0.971734    0.000000
     9  Si    c     0.284139    0.653706    0.631968    0.000000
    10  Si    c     0.620678    0.285394    0.800557    0.000000
    11  Si    c     0.666653    0.364009    0.467797    0.000000
    12  Si    c     0.704280    0.322015    0.135611    0.000000
    13  Ge    c     0.532841    0.426385    0.966273    0.000000
    14  Si    c     0.578031    0.103285    0.302382    0.000000
    15  Si    c     0.877427    0.450782    0.632729    0.000000
    16  Si    c     0.463371    0.568436    0.467714    0.000000
    17  Ge    c     0.431473    0.889550    0.798973    0.000000
    18  Si    c     0.113672    0.527439    0.136232    0.000000
    19  Si    c     0.412625    0.520736    0.366213    0.000000
    20  Si    c     0.114194    0.579780    0.034891    0.000000
    21  Si    c     0.458417    0.849228    0.699910    0.000000
    22  Si    c     0.594070    0.461304    0.866925    0.000000
    23  Si    c     0.875923    0.398245    0.531570    0.000000
    24  Si    c     0.530067    0.109986    0.200770    0.000000
    25  Si    c     0.308513    0.390954    0.855406    0.000000
    26  Si    c     0.601202    0.899242    0.186777    0.000000
    27  Si    c     0.085677    0.679454    0.517460    0.000000
    28  Si    c     0.692972    0.591546    0.352890    0.000000
    29  Si    c     0.390174    0.068962    0.685503    0.000000
    30  Si    c     0.904389    0.300193    0.020966    0.000000
    31  Si    c     0.389762    0.286965    0.482690    0.000000
    32  Si    c     0.906026    0.599496    0.150355    0.000000
    33  Si    c     0.702850    0.083707    0.822104    0.000000
    34  Si    c     0.611457    0.699525    0.988940    0.000000
    35  Si    c     0.082468    0.375770    0.647674    0.000000
    36  Si    c     0.298240    0.895960    0.316842    0.000000
    37  Si    c     0.254633    0.329649    0.957511    0.000000
    38  Si    c     0.656817    0.902753    0.287366    0.000000
    39  Si    c     0.078385    0.729550    0.618033    0.000000
    40  Si    c     0.741357    0.646854    0.453557    0.000000
    41  Si    c     0.332796    0.072536    0.787607    0.000000
    42  Si    c     0.912866    0.249757    0.121439    0.000000
    43  Si    c     0.334328    0.240487    0.382018    0.000000
    44  Si    c     0.912788    0.656530    0.049521    0.000000
    45  Ge    c     0.740119    0.058490    0.718031    0.000000
    46  Si    c     0.668514    0.742196    0.885447    0.000000
    47  Si    c     0.076615    0.320193    0.547114    0.000000
    48  Si    c     0.251727    0.908150    0.216138    0.000000
    49  Si    c     0.971555    0.119443    0.971738    0.000000
    50  Si    c     0.875292    0.841188    0.302887    0.000000
    51  Si    c     0.146272    0.010552    0.635306    0.000000
    52  Si    c     0.020700    0.863782    0.468458    0.000000
    53  Si    c     0.123634    0.148180    0.803650    0.000000
    54  Si    c     0.851668    0.969440    0.138032    0.000000
    55  Si    c     0.116495    0.961532    0.367763    0.000000
    56  Si    c     0.854908    0.879465    0.037661    0.000000
    57  Si    c     0.026164    0.132194    0.701897    0.000000
    58  Si    c     0.886216    0.025223    0.871245    0.000000
    59  Si    c     0.142757    0.104859    0.534262    0.000000
    60  Si    c     0.972709    0.845773    0.202251    0.000000
    61  O2    c     0.937284    0.003140    0.006197    0.000000
    62  O2    c     0.993476    0.919685    0.336533    0.000000
    63  O2    c     0.080527    0.057069    0.672228    0.000000
    64  O2    c     0.062993    0.979868    0.503623    0.000000
    65  O2    c     0.007179    0.066710    0.838145    0.000000
    66  O2    c     0.929740    0.929563    0.172197    0.000000
    67  O2    c     0.336927    0.570513    0.333962    0.000000
    68  O2    c     0.408820    0.733634    0.663375    0.000000
    69  O2    c     0.241227    0.655430    0.002603    0.000000
    70  O2    c     0.661633    0.415343    0.828628    0.000000
    71  O2    c     0.580758    0.236807    0.168566    0.000000
    72  O2    c     0.750703    0.322849    0.499866    0.000000
    73  O3    c     0.582770    0.339052    0.001995    0.000000
    74  O2    c     0.750690    0.400429    0.664935    0.000000
    75  O2    c     0.654114    0.228011    0.334901    0.000000
    76  O2    c     0.411075    0.643234    0.499593    0.000000
    77  O2    c     0.239013    0.575755    0.168387    0.000000
    78  O3    c     0.347492    0.754941    0.836618    0.000000
    79  O2    c     0.122845    0.211751    0.976888    0.000000
    80  O2    c     0.783311    0.903561    0.307284    0.000000
    81  O2    c     0.076521    0.854823    0.638439    0.000000
    82  O2    c     0.866706    0.773534    0.473413    0.000000
    83  O2    c     0.213744    0.084542    0.806600    0.000000
    84  O2    c     0.913085    0.123531    0.142324    0.000000
    85  O2    c     0.208197    0.115927    0.361854    0.000000
    86  O2    c     0.911789    0.783671    0.029770    0.000000
    87  O3    c     0.874825    0.057717    0.695981    0.000000
    88  O2    c     0.791844    0.871364    0.864803    0.000000
    89  O2    c     0.077378    0.193860    0.527475    0.000000
    90  O2    c     0.126385    0.909364    0.196240    0.000000
    91  O2    c     0.934015    0.854853    0.253401    0.000000
    92  O2    c     0.132549    0.058836    0.586086    0.000000
    93  O2    c     0.935373    0.059608    0.921971    0.000000
    94  O2    c     0.067581    0.135911    0.753726    0.000000
    95  O2    c     0.870087    0.926658    0.088810    0.000000
    96  O2    c     0.064751    0.924049    0.418839    0.000000
    97  O2    c     0.900364    0.200801    0.982303    0.000000
    98  O2    c     0.792393    0.688860    0.314813    0.000000
    99  O2    c     0.297175    0.068920    0.645872    0.000000
   100  O2    c     0.087527    0.777894    0.478901    0.000000
   101  O2    c     0.209565    0.298805    0.816513    0.000000
   102  O2    c     0.699420    0.899272    0.148783    0.000000
   103  O2    c     0.198242    0.891857    0.355251    0.000000
   104  O2    c     0.704790    0.809919    0.024520    0.000000
   105  O2    c     0.084866    0.281522    0.686815    0.000000
   106  O2    c     0.811722    0.102668    0.858947    0.000000
   107  O2    c     0.293139    0.187311    0.521239    0.000000
   108  O2    c     0.903159    0.695482    0.188734    0.000000
   109  O2    c     0.321050    0.638931    0.251317    0.000000
   110  O2    c     0.341331    0.655230    0.581824    0.000000
   111  O2    c     0.334742    0.670853    0.920589    0.000000
   112  O2    c     0.671708    0.328098    0.748893    0.000000
   113  O2    c     0.649091    0.323582    0.085720    0.000000
   114  O2    c     0.668714    0.308379    0.417761    0.000000
   115  O3    c     0.366765    0.310544    0.976524    0.000000
   116  O2    c     0.665687    0.034657    0.305928    0.000000
   117  O2    c     0.946371    0.606995    0.636970    0.000000
   118  O2    c     0.618706    0.656379    0.472012    0.000000
   119  O3    c     0.319381    0.943710    0.808056    0.000000
   120  O2    c     0.044690    0.370760    0.140195    0.000000
   121  O2    c     0.325349    0.364202    0.363913    0.000000
   122  O2    c     0.046829    0.668882    0.031394    0.000000
   123  O3    c     0.613616    0.915439    0.698992    0.000000
   124  O2    c     0.678931    0.620013    0.866428    0.000000
   125  O2    c     0.944368    0.309992    0.529150    0.000000
   126  O2    c     0.374322    0.041328    0.198079    0.000000
   127  O2    c     0.772195    0.300954    0.013981    0.000000
   128  O2    c     0.691508    0.456533    0.345678    0.000000
   129  O2    c     0.523625    0.203546    0.679619    0.000000
   130  O2    c     0.218579    0.678320    0.509923    0.000000
   131  O2    c     0.312853    0.526964    0.850501    0.000000
   132  O2    c     0.467135    0.766247    0.179129    0.000000
   133  O2    c     0.299818    0.761983    0.324311    0.000000
   134  O2    c     0.473005    0.693458    0.992659    0.000000
   135  O2    c     0.214248    0.510569    0.655027    0.000000
   136  O2    c     0.693694    0.215646    0.822901    0.000000
   137  O2    c     0.523914    0.288043    0.490642    0.000000
   138  O2    c     0.773367    0.464619    0.158410    0.000000
   139  O2    c     0.789670    0.532539    0.029354    0.000000
   140  O2    c     0.459618    0.239922    0.362594    0.000000
   141  O3    c     0.732835    0.187424    0.694728    0.000000
   142  O2    c     0.202058    0.445862    0.527138    0.000000
   143  O2    c     0.539101    0.733290    0.866870    0.000000
   144  O2    c     0.251669    0.782402    0.196525    0.000000
   145  O2    c     0.531717    0.775366    0.306959    0.000000
   146  O2    c     0.264607    0.463310    0.975016    0.000000
   147  O2    c     0.205400    0.731650    0.637236    0.000000
   148  O2    c     0.466217    0.197566    0.803419    0.000000
   149  O2    c     0.742097    0.520474    0.473268    0.000000
   150  O2    c     0.785499    0.246961    0.140638    0.000000
   151  O2    c     0.242723    0.317985    0.902409    0.000000
   152  O2    c     0.674558    0.901967    0.233139    0.000000
   153  O2    c     0.080276    0.749370    0.563763    0.000000
   154  O2    c     0.761242    0.665216    0.399334    0.000000
   155  O2    c     0.320519    0.066400    0.732631    0.000000
   156  O2    c     0.911718    0.229799    0.067244    0.000000
   157  O2    c     0.316324    0.218508    0.436362    0.000000
   158  O2    c     0.910003    0.673931    0.103820    0.000000
   159  O3    c     0.767613    0.071417    0.775176    0.000000
   160  O2    c     0.681223    0.757071    0.939643    0.000000
   161  O2    c     0.078397    0.301703    0.601417    0.000000
   162  O2    c     0.230622    0.903616    0.270473    0.000000
   163  O3    c     0.604982    0.567984    0.001474    0.000000
   164  O2    c     0.436962    0.020952    0.325990    0.000000
   165  O2    c     0.955420    0.387318    0.656517    0.000000
   166  O2    c     0.403256    0.426566    0.491566    0.000000
   167  O3    c     0.571715    0.958218    0.834325    0.000000
   168  O2    c     0.032177    0.587342    0.159640    0.000000
   169  O2    c     0.554201    0.577190    0.343759    0.000000
   170  O2    c     0.031336    0.439077    0.011503    0.000000
   171  O2    c     0.413466    0.948850    0.679678    0.000000
   172  O2    c     0.448827    0.407635    0.847210    0.000000
   173  O2    c     0.961508    0.540063    0.508625    0.000000
   174  O2    c     0.586589    0.024842    0.178148    0.000000
   175  O2    c     0.580508    0.159848    0.251867    0.000000
   176  O2    c     0.822855    0.398650    0.582399    0.000000
   177  O3    c     0.602136    0.403951    0.914513    0.000000
   178  O3    c     0.403637    0.792978    0.749167    0.000000
   179  O2    c     0.169101    0.580788    0.085408    0.000000
   180  O2    c     0.412544    0.572395    0.417115    0.000000
   181  F     c     0.450832    0.897912    0.252925    0.000000
   182  F     c     0.081353    0.527641    0.583837    0.000000
   183  F     c     0.478947    0.518617    0.929170    0.000000
   184  F     c     0.529818    0.033989    0.760048    0.000000
   185  F     c     0.913429    0.452818    0.086577    0.000000
   186  F     c     0.541583    0.440367    0.419054    0.000000
   187  O2    s     0.931738    0.002289    0.005843    0.000000
   188  O2    s     0.994201    0.915693    0.336314    0.000000
   189  O2    s     0.081995    0.060068    0.671318    0.000000
   190  O2    s     0.067274    0.981056    0.503172    0.000000
   191  O2    s     0.006876    0.071266    0.837925    0.000000
   192  O2    s     0.925853    0.924560    0.171765    0.000000
   193  O2    s     0.348844    0.578014    0.334023    0.000000
   194  O2    s     0.400852    0.737215    0.663846    0.000000
   195  O2    s     0.237709    0.643946    0.002605    0.000000
   196  O2    s     0.650635    0.405976    0.829355    0.000000
   197  O2    s     0.587922    0.232177    0.168594    0.000000
   198  O2    s     0.755261    0.334912    0.499919    0.000000
   199  O3    s     0.592198    0.349114    0.003040    0.000000
   200  O2    s     0.754934    0.392564    0.665175    0.000000
   201  O2    s     0.642210    0.224032    0.334991    0.000000
   202  O2    s     0.403333    0.631239    0.499698    0.000000
   203  O2    s     0.235087    0.583575    0.168531    0.000000
   204  O3    s     0.357389    0.755080    0.837699    0.000000
   205  O2    s     0.120192    0.214299    0.974189    0.000000
   206  O2    s     0.780090    0.896844    0.304798    0.000000
   207  O2    s     0.084098    0.858471    0.636034    0.000000
   208  O2    s     0.870139    0.770103    0.470883    0.000000
   209  O2    s     0.216871    0.090292    0.804201    0.000000
   210  O2    s     0.906421    0.119931    0.139731    0.000000
   211  O2    s     0.211554    0.112472    0.364547    0.000000
   212  O2    s     0.905833    0.780840    0.032604    0.000000
   213  O3    s     0.880113    0.065444    0.698259    0.000000
   214  O2    s     0.789106    0.874248    0.867553    0.000000
   215  O2    s     0.084216    0.197534    0.530209    0.000000
   216  O2    s     0.123115    0.902529    0.198907    0.000000
   217  O2    s     0.931614    0.852269    0.253336    0.000000
   218  O2    s     0.135201    0.058440    0.585921    0.000000
   219  O2    s     0.933730    0.062300    0.921654    0.000000
   220  O2    s     0.069289    0.136850    0.753605    0.000000
   221  O2    s     0.866246    0.926157    0.088583    0.000000
   222  O2    s     0.065479    0.921357    0.418809    0.000000
   223  O2    s     0.908371    0.201954    0.984995    0.000000
   224  O2    s     0.790875    0.694940    0.317501    0.000000
   225  O2    s     0.291042    0.062784    0.648896    0.000000
   226  O2    s     0.080225    0.776811    0.481792    0.000000
   227  O2    s     0.210341    0.292019    0.819034    0.000000
   228  O2    s     0.705362    0.906653    0.151550    0.000000
   229  O2    s     0.199600    0.899668    0.352726    0.000000
   230  O2    s     0.711156    0.806117    0.022302    0.000000
   231  O2    s     0.078381    0.275588    0.684291    0.000000
   232  O2    s     0.808680    0.092654    0.856563    0.000000
   233  O2    s     0.286840    0.188576    0.518731    0.000000
   234  O2    s     0.910929    0.701911    0.186299    0.000000
   235  O2    s     0.326945    0.650731    0.251355    0.000000
   236  O2    s     0.329671    0.649528    0.581822    0.000000
   237  O2    s     0.339253    0.665799    0.920715    0.000000
   238  O2    s     0.666187    0.318287    0.748918    0.000000
   239  O2    s     0.659864    0.328536    0.085905    0.000000
   240  O2    s     0.662982    0.314472    0.417790    0.000000
   241  O3    s     0.365971    0.320396    0.973769    0.000000
   242  O2    s     0.655723    0.027916    0.303613    0.000000
   243  O2    s     0.952978    0.603575    0.634553    0.000000
   244  O2    s     0.615522    0.646379    0.469653    0.000000
   245  O3    s     0.328705    0.953629    0.805216    0.000000
   246  O2    s     0.038050    0.374280    0.137824    0.000000
   247  O2    s     0.335295    0.367284    0.366075    0.000000
   248  O2    s     0.040069    0.658504    0.033609    0.000000
   249  O3    s     0.609507    0.920894    0.700655    0.000000
   250  O2    s     0.669662    0.617116    0.868426    0.000000
   251  O2    s     0.951192    0.320092    0.531291    0.000000
   252  O2    s     0.377423    0.034416    0.200256    0.000000
   253  O2    s     0.779550    0.308293    0.016765    0.000000
   254  O2    s     0.683722    0.455884    0.348724    0.000000
   255  O2    s     0.524768    0.197020    0.682182    0.000000
   256  O2    s     0.211504    0.670525    0.512990    0.000000
   257  O2    s     0.319591    0.526836    0.852902    0.000000
   258  O2    s     0.466499    0.773224    0.182201    0.000000
   259  O2    s     0.307482    0.769270    0.321155    0.000000
   260  O2    s     0.472092    0.686261    0.990083    0.000000
   261  O2    s     0.207388    0.511033    0.651809    0.000000
   262  O2    s     0.686901    0.209613    0.820441    0.000000
   263  O2    s     0.524482    0.295714    0.487444    0.000000
   264  O2    s     0.780265    0.464217    0.155204    0.000000
   265  O2    s     0.794516    0.530546    0.032031    0.000000
   266  O2    s     0.462164    0.247589    0.365187    0.000000
   267  O3    s     0.726901    0.185856    0.696984    0.000000
   268  O2    s     0.197167    0.448544    0.529739    0.000000
   269  O2    s     0.537561    0.728159    0.869109    0.000000
   270  O2    s     0.259281    0.787359    0.199105    0.000000
   271  O2    s     0.529138    0.780933    0.304317    0.000000
   272  O2    s     0.270742    0.466250    0.972869    0.000000
   273  O2    s     0.199806    0.723385    0.634675    0.000000
   274  O2    s     0.468962    0.193944    0.801490    0.000000
   275  O2    s     0.734150    0.517908    0.470626    0.000000
   276  O2    s     0.790903    0.255156    0.138070    0.000000
   277  O2    s     0.250965    0.326926    0.902877    0.000000
   278  O2    s     0.665005    0.901769    0.234096    0.000000
   279  O2    s     0.080624    0.740010    0.564745    0.000000
   280  O2    s     0.751992    0.655573    0.400290    0.000000
   281  O2    s     0.329182    0.067271    0.733188    0.000000
   282  O2    s     0.911111    0.239186    0.068173    0.000000
   283  O2    s     0.325949    0.228024    0.435536    0.000000
   284  O2    s     0.909892    0.664244    0.103036    0.000000
   285  O3    s     0.759263    0.071370    0.774629    0.000000
   286  O2    s     0.673035    0.749784    0.938593    0.000000
   287  O2    s     0.078626    0.311454    0.600549    0.000000
   288  O2    s     0.239979    0.903296    0.269645    0.000000
   289  O3    s     0.600689    0.572812    0.997789    0.000000
   290  O2    s     0.436640    0.015871    0.322573    0.000000
   291  O2    s     0.960875    0.392740    0.653137    0.000000
   292  O2    s     0.408186    0.426244    0.488152    0.000000
   293  O3    s     0.576311    0.967128    0.830654    0.000000
   294  O2    s     0.026974    0.582274    0.156221    0.000000
   295  O2    s     0.554361    0.572640    0.347112    0.000000
   296  O2    s     0.026427    0.439021    0.014918    0.000000
   297  O2    s     0.415451    0.952560    0.682353    0.000000
   298  O2    s     0.448052    0.411198    0.850044    0.000000
   299  O2    s     0.966117    0.540211    0.512009    0.000000
   300  O2    s     0.582068    0.019992    0.181462    0.000000
   301  O2    s     0.575033    0.148803    0.251857    0.000000
   302  O2    s     0.834083    0.404096    0.582443    0.000000
   303  O3    s     0.596874    0.411446    0.912779    0.000000
   304  O3    s     0.411160    0.805247    0.747462    0.000000
   305  O2    s     0.157721    0.575180    0.085436    0.000000
   306  O2    s     0.417896    0.566626    0.417144    0.000000
   307  F     s     0.450694    0.897481    0.253081    0.000000
   308  F     s     0.081414    0.527790    0.584011    0.000000
   309  F     s     0.482928    0.512255    0.931662    0.000000
   310  F     s     0.524741    0.024764    0.762373    0.000000
   311  F     s     0.913980    0.452982    0.086716    0.000000
   312  F     s     0.541809    0.440242    0.419224    0.000000
--------------------------------------------------------------------------------

  Final Cartesian lattice vectors (Angstroms) :

       12.002876    0.001732    0.011948
       -5.936121   10.343063   -0.000005
        0.060389    0.272517   29.486478


  Final cell parameters and derivatives :

--------------------------------------------------------------------------------
       a           12.002882 Angstrom     dE/de1(xx)     0.000371 eV/strain
       b           11.925455 Angstrom     dE/de2(yy)     0.000438 eV/strain
       c           29.487799 Angstrom     dE/de3(zz)     0.000623 eV/strain
       alpha       89.599179 Degrees      dE/de4(yz)     0.000159 eV/strain
       beta        89.825554 Degrees      dE/de5(xz)    -0.000043 eV/strain
       gamma      119.844217 Degrees      dE/de6(xy)     0.000045 eV/strain
--------------------------------------------------------------------------------

  Primitive cell volume =          3660.919449 Angs**3

  Density of cell =      1.747674 g/cm**3

  Non-primitive cell volume =          3660.919449 Angs**3


  Final internal derivatives :

--------------------------------------------------------------------------------
   No.  Atomic          a             b             c           Radius
        Label          (eV)          (eV)          (eV)        (eV/Angs)
--------------------------------------------------------------------------------
      1 Si    c       0.000000      0.000000      0.000000      0.000000
      2 Si    c      -0.000022      0.000031     -0.000048      0.000000
      3 Si    c       0.000150     -0.000187     -0.000232      0.000000
      4 Si    c      -0.000044     -0.000013      0.000086      0.000000
      5 Si    c       0.000060      0.000063     -0.000156      0.000000
      6 Si    c      -0.000024      0.000030     -0.000113      0.000000
      7 Si    c       0.000007      0.000026      0.000146      0.000000
      8 Si    c       0.000093     -0.000065      0.000099      0.000000
      9 Si    c      -0.000056     -0.000016      0.000080      0.000000
     10 Si    c       0.000016     -0.000116      0.000391      0.000000
     11 Si    c      -0.000013      0.000059      0.000018      0.000000
     12 Si    c       0.000043     -0.000039      0.000065      0.000000
     13 Ge    c      -0.000178      0.000171      0.000187      0.000000
     14 Si    c       0.000006     -0.000068      0.000186      0.000000
     15 Si    c       0.000032     -0.000021      0.000032      0.000000
     16 Si    c       0.000045     -0.000048     -0.000035      0.000000
     17 Ge    c      -0.000639      0.000698      0.000369      0.000000
     18 Si    c       0.000039     -0.000032     -0.000021      0.000000
     19 Si    c       0.000029     -0.000047      0.000021      0.000000
     20 Si    c      -0.000024      0.000021      0.000083      0.000000
     21 Si    c       0.000012     -0.000368     -0.001082      0.000000
     22 Si    c      -0.000105      0.000242     -0.000238      0.000000
     23 Si    c       0.000095     -0.000025      0.000091      0.000000
     24 Si    c      -0.000028      0.000048     -0.000360      0.000000
     25 Si    c       0.000054     -0.000005     -0.000064      0.000000
     26 Si    c      -0.000040      0.000035     -0.000050      0.000000
     27 Si    c       0.000005     -0.000011     -0.000059      0.000000
     28 Si    c      -0.000004     -0.000023     -0.000092      0.000000
     29 Si    c      -0.000025      0.000033     -0.000181      0.000000
     30 Si    c      -0.000044      0.000048      0.000099      0.000000
     31 Si    c       0.000002      0.000037      0.000013      0.000000
     32 Si    c       0.000009     -0.000005      0.000097      0.000000
     33 Si    c      -0.000250      0.000044     -0.000868      0.000000
     34 Si    c      -0.000079      0.000074      0.000186      0.000000
     35 Si    c      -0.000001      0.000049     -0.000118      0.000000
     36 Si    c       0.000069     -0.000055      0.000150      0.000000
     37 Si    c       0.000027     -0.000043      0.000193      0.000000
     38 Si    c      -0.000008      0.000000      0.000142      0.000000
     39 Si    c       0.000015     -0.000026      0.000009      0.000000
     40 Si    c      -0.000002     -0.000024      0.000074      0.000000
     41 Si    c       0.000268     -0.000428      0.000392      0.000000
     42 Si    c      -0.000004      0.000002      0.000036      0.000000
     43 Si    c       0.000010      0.000019     -0.000004      0.000000
     44 Si    c       0.000036      0.000026      0.000028      0.000000
     45 Ge    c      -0.000210      0.000316      0.000491      0.000000
     46 Si    c      -0.000062     -0.000013      0.000003      0.000000
     47 Si    c      -0.000007      0.000040      0.000026      0.000000
     48 Si    c       0.000016     -0.000025     -0.000106      0.000000
     49 Si    c       0.000131     -0.000067      0.000155      0.000000
     50 Si    c      -0.000086      0.000010      0.000159      0.000000
     51 Si    c      -0.000041      0.000016     -0.000188      0.000000
     52 Si    c      -0.000027      0.000003      0.000274      0.000000
     53 Si    c      -0.000029     -0.000031      0.000373      0.000000
     54 Si    c      -0.000039     -0.000030      0.000063      0.000000
     55 Si    c       0.000022     -0.000022     -0.000042      0.000000
     56 Si    c       0.000012     -0.000116     -0.000162      0.000000
     57 Si    c       0.000046     -0.000030     -0.000082      0.000000
     58 Si    c       0.000090     -0.000044     -0.000139      0.000000
     59 Si    c      -0.000074     -0.000005      0.000018      0.000000
     60 Si    c       0.000129     -0.000095     -0.000183      0.000000
     61 O2    c       0.000008      0.000098      0.000007      0.000000
     62 O2    c      -0.000026      0.000008      0.000046      0.000000
     63 O2    c      -0.000069      0.000092      0.000269      0.000000
     64 O2    c       0.000026     -0.000037      0.000043      0.000000
     65 O2    c      -0.000031      0.000025     -0.000044      0.000000
     66 O2    c      -0.000093      0.000150     -0.000035      0.000000
     67 O2    c      -0.000035      0.000010     -0.000035      0.000000
     68 O2    c      -0.000004     -0.000026     -0.000077      0.000000
     69 O2    c      -0.000037      0.000030      0.000011      0.000000
     70 O2    c       0.000180     -0.000101     -0.000389      0.000000
     71 O2    c      -0.000027      0.000001      0.000061      0.000000
     72 O2    c      -0.000066     -0.000003     -0.000141      0.000000
     73 O3    c      -0.000010      0.000144      0.000050      0.000000
     74 O2    c      -0.000053      0.000001      0.000098      0.000000
     75 O2    c       0.000011     -0.000011     -0.000033      0.000000
     76 O2    c       0.000006      0.000019      0.000008      0.000000
     77 O2    c       0.000004     -0.000007     -0.000000      0.000000
     78 O3    c       0.000070     -0.000235      0.000511      0.000000
     79 O2    c      -0.000042     -0.000010     -0.000016      0.000000
     80 O2    c       0.000011     -0.000010      0.000013      0.000000
     81 O2    c      -0.000014     -0.000050     -0.000032      0.000000
     82 O2    c      -0.000036      0.000008      0.000005      0.000000
     83 O2    c      -0.000095      0.000051      0.000103      0.000000
     84 O2    c      -0.000015      0.000131     -0.000031      0.000000
     85 O2    c      -0.000011      0.000018     -0.000014      0.000000
     86 O2    c      -0.000053      0.000078      0.000000      0.000000
     87 O3    c      -0.000132     -0.000032     -0.000015      0.000000
     88 O2    c       0.000019     -0.000005     -0.000094      0.000000
     89 O2    c       0.000012     -0.000046     -0.000042      0.000000
     90 O2    c      -0.000050      0.000023      0.000024      0.000000
     91 O2    c       0.000012     -0.000022      0.000249      0.000000
     92 O2    c       0.000029     -0.000035      0.000170      0.000000
     93 O2    c      -0.000004     -0.000078     -0.000235      0.000000
     94 O2    c      -0.000110      0.000028     -0.000304      0.000000
     95 O2    c       0.000037      0.000010      0.000170      0.000000
     96 O2    c       0.000022      0.000044     -0.000270      0.000000
     97 O2    c      -0.000093      0.000092      0.000028      0.000000
     98 O2    c       0.000009     -0.000004     -0.000024      0.000000
     99 O2    c       0.000053      0.000008     -0.000081      0.000000
    100 O2    c       0.000024     -0.000037     -0.000037      0.000000
    101 O2    c       0.000048      0.000111     -0.000007      0.000000
    102 O2    c       0.000042     -0.000031     -0.000068      0.000000
    103 O2    c      -0.000009     -0.000015      0.000030      0.000000
    104 O2    c       0.000030      0.000019      0.000048      0.000000
    105 O2    c       0.000012      0.000016     -0.000060      0.000000
    106 O2    c       0.000419     -0.000057      0.000398      0.000000
    107 O2    c       0.000062     -0.000008      0.000027      0.000000
    108 O2    c      -0.000013     -0.000038      0.000025      0.000000
    109 O2    c       0.000009     -0.000050      0.000008      0.000000
    110 O2    c       0.000036     -0.000026     -0.000146      0.000000
    111 O2    c      -0.000039      0.000042      0.000189      0.000000
    112 O2    c       0.000048      0.000009     -0.000144      0.000000
    113 O2    c      -0.000025      0.000015     -0.000008      0.000000
    114 O2    c       0.000017     -0.000016      0.000030      0.000000
    115 O3    c      -0.000069     -0.000006      0.000062      0.000000
    116 O2    c      -0.000009      0.000003      0.000005      0.000000
    117 O2    c      -0.000012      0.000021      0.000022      0.000000
    118 O2    c       0.000026     -0.000001      0.000027      0.000000
    119 O3    c       0.000122      0.000051     -0.000766      0.000000
    120 O2    c      -0.000012     -0.000011      0.000009      0.000000
    121 O2    c      -0.000004     -0.000005      0.000006      0.000000
    122 O2    c       0.000014     -0.000014     -0.000012      0.000000
    123 O3    c       0.000174      0.000000     -0.000035      0.000000
    124 O2    c       0.000008      0.000053     -0.000020      0.000000
    125 O2    c       0.000012     -0.000014      0.000009      0.000000
    126 O2    c      -0.000013      0.000001     -0.000013      0.000000
    127 O2    c       0.000040     -0.000038      0.000025      0.000000
    128 O2    c      -0.000002     -0.000006      0.000002      0.000000
    129 O2    c       0.000078      0.000001     -0.000016      0.000000
    130 O2    c      -0.000020      0.000019     -0.000029      0.000000
    131 O2    c       0.000041     -0.000077     -0.000002      0.000000
    132 O2    c      -0.000012     -0.000019     -0.000011      0.000000
    133 O2    c      -0.000004      0.000004      0.000003      0.000000
    134 O2    c       0.000010     -0.000009     -0.000052      0.000000
    135 O2    c      -0.000011     -0.000003     -0.000023      0.000000
    136 O2    c       0.000013      0.000039     -0.000032      0.000000
    137 O2    c      -0.000020      0.000007      0.000045      0.000000
    138 O2    c      -0.000001      0.000003      0.000065      0.000000
    139 O2    c       0.000005      0.000113      0.000002      0.000000
    140 O2    c      -0.000013      0.000006      0.000013      0.000000
    141 O3    c      -0.000028     -0.000140      0.000333      0.000000
    142 O2    c       0.000015     -0.000004     -0.000008      0.000000
    143 O2    c       0.000002      0.000030      0.000020      0.000000
    144 O2    c      -0.000011      0.000021      0.000035      0.000000
    145 O2    c       0.000000     -0.000003      0.000004      0.000000
    146 O2    c      -0.000002      0.000033      0.000018      0.000000
    147 O2    c       0.000005     -0.000010     -0.000033      0.000000
    148 O2    c      -0.000020      0.000011      0.000110      0.000000
    149 O2    c       0.000010      0.000003      0.000026      0.000000
    150 O2    c       0.000014     -0.000006      0.000004      0.000000
    151 O2    c      -0.000001     -0.000041     -0.000146      0.000000
    152 O2    c       0.000027     -0.000023      0.000016      0.000000
    153 O2    c      -0.000017      0.000027     -0.000020      0.000000
    154 O2    c       0.000012      0.000018      0.000035      0.000000
    155 O2    c      -0.000038      0.000041     -0.000124      0.000000
    156 O2    c       0.000025     -0.000031     -0.000037      0.000000
    157 O2    c      -0.000013     -0.000016      0.000000      0.000000
    158 O2    c       0.000010     -0.000010     -0.000006      0.000000
    159 O3    c      -0.000011     -0.000012     -0.000642      0.000000
    160 O2    c       0.000047     -0.000021     -0.000220      0.000000
    161 O2    c       0.000009      0.000008      0.000120      0.000000
    162 O2    c      -0.000058      0.000020     -0.000114      0.000000
    163 O3    c       0.000003     -0.000022      0.000130      0.000000
    164 O2    c       0.000020     -0.000008     -0.000008      0.000000
    165 O2    c      -0.000020     -0.000003      0.000043      0.000000
    166 O2    c       0.000001     -0.000010      0.000038      0.000000
    167 O3    c       0.000100      0.000203      0.000775      0.000000
    168 O2    c      -0.000026      0.000027      0.000079      0.000000
    169 O2    c       0.000011      0.000003     -0.000018      0.000000
    170 O2    c      -0.000004     -0.000030     -0.000026      0.000000
    171 O2    c      -0.000091      0.000089     -0.000174      0.000000
    172 O2    c      -0.000037      0.000007      0.000010      0.000000
    173 O2    c      -0.000008      0.000002     -0.000012      0.000000
    174 O2    c       0.000020     -0.000017     -0.000060      0.000000
    175 O2    c       0.000020      0.000048      0.000233      0.000000
    176 O2    c      -0.000030      0.000011     -0.000098      0.000000
    177 O3    c       0.000232     -0.000270      0.000121      0.000000
    178 O3    c      -0.000111     -0.000719     -0.000997      0.000000
    179 O2    c      -0.000009     -0.000002     -0.000003      0.000000
    180 O2    c      -0.000019      0.000015     -0.000032      0.000000
    181 F     c      -0.000013      0.000014     -0.000067      0.000000
    182 F     c       0.000008      0.000016      0.000021      0.000000
    183 F     c       0.000007     -0.000036      0.000141      0.000000
    184 F     c      -0.000598      0.000143      0.000505      0.000000
    185 F     c      -0.000020     -0.000010     -0.000010      0.000000
    186 F     c       0.000008     -0.000004      0.000023      0.000000
    187 O2    s       0.000007     -0.000062      0.000002      0.000000
    188 O2    s       0.000012      0.000025     -0.000022      0.000000
    189 O2    s       0.000020     -0.000053     -0.000042      0.000000
    190 O2    s       0.000016      0.000017      0.000022      0.000000
    191 O2    s      -0.000028      0.000012      0.000259      0.000000
    192 O2    s       0.000042     -0.000008     -0.000009      0.000000
    193 O2    s       0.000007     -0.000005     -0.000000      0.000000
    194 O2    s       0.000019      0.000094      0.000088      0.000000
    195 O2    s       0.000023     -0.000026      0.000027      0.000000
    196 O2    s      -0.000122      0.000086      0.000156      0.000000
    197 O2    s       0.000023      0.000015     -0.000061      0.000000
    198 O2    s       0.000027      0.000006      0.000037      0.000000
    199 O3    s       0.000134     -0.000231      0.000008      0.000000
    200 O2    s       0.000006      0.000028      0.000076      0.000000
    201 O2    s       0.000013      0.000002      0.000007      0.000000
    202 O2    s      -0.000004      0.000001      0.000032      0.000000
    203 O2    s      -0.000016     -0.000004     -0.000054      0.000000
    204 O3    s      -0.000099      0.000148     -0.000370      0.000000
    205 O2    s      -0.000002      0.000035      0.000101      0.000000
    206 O2    s      -0.000004      0.000017      0.000015      0.000000
    207 O2    s      -0.000016     -0.000014     -0.000029      0.000000
    208 O2    s      -0.000038      0.000008     -0.000035      0.000000
    209 O2    s       0.000050     -0.000050      0.000016      0.000000
    210 O2    s      -0.000013     -0.000014      0.000022      0.000000
    211 O2    s      -0.000002      0.000003     -0.000006      0.000000
    212 O2    s       0.000022     -0.000055     -0.000044      0.000000
    213 O3    s       0.000124     -0.000037     -0.000089      0.000000
    214 O2    s       0.000022     -0.000016      0.000079      0.000000
    215 O2    s      -0.000014      0.000005     -0.000023      0.000000
    216 O2    s       0.000054     -0.000004     -0.000093      0.000000
    217 O2    s       0.000010      0.000018     -0.000027      0.000000
    218 O2    s      -0.000027      0.000030     -0.000081      0.000000
    219 O2    s      -0.000042      0.000052     -0.000015      0.000000
    220 O2    s       0.000053     -0.000004      0.000005      0.000000
    221 O2    s      -0.000015     -0.000043     -0.000011      0.000000
    222 O2    s       0.000007      0.000024      0.000125      0.000000
    223 O2    s      -0.000030      0.000050     -0.000090      0.000000
    224 O2    s      -0.000034     -0.000026      0.000040      0.000000
    225 O2    s       0.000081     -0.000050      0.000025      0.000000
    226 O2    s       0.000024     -0.000026      0.000116      0.000000
    227 O2    s       0.000018      0.000045     -0.000050      0.000000
    228 O2    s      -0.000032      0.000012     -0.000031      0.000000
    229 O2    s       0.000035     -0.000008     -0.000011      0.000000
    230 O2    s      -0.000003     -0.000050     -0.000084      0.000000
    231 O2    s      -0.000033      0.000033      0.000082      0.000000
    232 O2    s      -0.000168      0.000095      0.000358      0.000000
    233 O2    s       0.000011      0.000028     -0.000143      0.000000
    234 O2    s       0.000033     -0.000063     -0.000178      0.000000
    235 O2    s      -0.000015      0.000022     -0.000051      0.000000
    236 O2    s      -0.000025      0.000048      0.000071      0.000000
    237 O2    s      -0.000017     -0.000008     -0.000241      0.000000
    238 O2    s      -0.000103      0.000059     -0.000014      0.000000
    239 O2    s      -0.000008      0.000023     -0.000120      0.000000
    240 O2    s       0.000001      0.000009      0.000014      0.000000
    241 O3    s       0.000034      0.000027     -0.000157      0.000000
    242 O2    s       0.000017      0.000009     -0.000030      0.000000
    243 O2    s      -0.000017      0.000008      0.000031      0.000000
    244 O2    s      -0.000007      0.000016     -0.000004      0.000000
    245 O3    s      -0.000254      0.000022      0.000869      0.000000
    246 O2    s       0.000014      0.000004     -0.000009      0.000000
    247 O2    s      -0.000004     -0.000001     -0.000007      0.000000
    248 O2    s      -0.000021      0.000015      0.000015      0.000000
    249 O3    s      -0.000335     -0.000110      0.000157      0.000000
    250 O2    s       0.000060     -0.000071      0.000108      0.000000
    251 O2    s      -0.000030      0.000006     -0.000017      0.000000
    252 O2    s       0.000034     -0.000018      0.000073      0.000000
    253 O2    s      -0.000053      0.000068     -0.000039      0.000000
    254 O2    s       0.000020      0.000004     -0.000011      0.000000
    255 O2    s      -0.000079      0.000003      0.000102      0.000000
    256 O2    s      -0.000002     -0.000001      0.000019      0.000000
    257 O2    s      -0.000048      0.000030     -0.000020      0.000000
    258 O2    s       0.000002     -0.000002     -0.000028      0.000000
    259 O2    s      -0.000003     -0.000010      0.000008      0.000000
    260 O2    s      -0.000021      0.000012      0.000036      0.000000
    261 O2    s       0.000037      0.000010      0.000039      0.000000
    262 O2    s      -0.000140      0.000187      0.000348      0.000000
    263 O2    s       0.000014     -0.000007     -0.000088      0.000000
    264 O2    s      -0.000016      0.000035     -0.000033      0.000000
    265 O2    s       0.000007     -0.000053     -0.000019      0.000000
    266 O2    s      -0.000012     -0.000005     -0.000029      0.000000
    267 O3    s      -0.000037      0.000212     -0.000671      0.000000
    268 O2    s      -0.000008      0.000030     -0.000050      0.000000
    269 O2    s       0.000018     -0.000054     -0.000065      0.000000
    270 O2    s      -0.000011     -0.000020     -0.000074      0.000000
    271 O2    s       0.000009     -0.000000     -0.000007      0.000000
    272 O2    s      -0.000019     -0.000009     -0.000029      0.000000
    273 O2    s       0.000024      0.000025      0.000037      0.000000
    274 O2    s       0.000101      0.000040     -0.000071      0.000000
    275 O2    s      -0.000025     -0.000013     -0.000108      0.000000
    276 O2    s       0.000013     -0.000027     -0.000010      0.000000
    277 O2    s      -0.000008      0.000048      0.000056      0.000000
    278 O2    s      -0.000016      0.000030      0.000004      0.000000
    279 O2    s       0.000022     -0.000018     -0.000051      0.000000
    280 O2    s       0.000006     -0.000013      0.000010      0.000000
    281 O2    s      -0.000048      0.000107     -0.000116      0.000000
    282 O2    s      -0.000032      0.000030     -0.000003      0.000000
    283 O2    s       0.000009      0.000019     -0.000003      0.000000
    284 O2    s      -0.000012     -0.000008      0.000025      0.000000
    285 O3    s       0.000551     -0.000284      0.000802      0.000000
    286 O2    s       0.000008     -0.000019      0.000059      0.000000
    287 O2    s      -0.000024     -0.000008     -0.000111      0.000000
    288 O2    s       0.000025      0.000017      0.000051      0.000000
    289 O3    s       0.000007      0.000009     -0.000033      0.000000
    290 O2    s      -0.000023      0.000035      0.000019      0.000000
    291 O2    s      -0.000016      0.000017     -0.000049      0.000000
    292 O2    s      -0.000010     -0.000002     -0.000014      0.000000
    293 O3    s      -0.000421     -0.000273     -0.002093      0.000000
    294 O2    s      -0.000022      0.000003     -0.000126      0.000000
    295 O2    s      -0.000012      0.000002      0.000004      0.000000
    296 O2    s       0.000001     -0.000012     -0.000047      0.000000
    297 O2    s       0.000167     -0.000161      0.000381      0.000000
    298 O2    s      -0.000001      0.000003      0.000022      0.000000
    299 O2    s       0.000012     -0.000007      0.000046      0.000000
    300 O2    s      -0.000009      0.000007      0.000110      0.000000
    301 O2    s      -0.000014     -0.000023     -0.000145      0.000000
    302 O2    s       0.000086     -0.000018      0.000054      0.000000
    303 O3    s      -0.000194      0.000205      0.000156      0.000000
    304 O3    s       0.000484      0.000685      0.000681      0.000000
    305 O2    s       0.000004      0.000005      0.000027      0.000000
    306 O2    s       0.000001      0.000003     -0.000009      0.000000
    307 F     s       0.000029     -0.000029      0.000094      0.000000
    308 F     s      -0.000045     -0.000014     -0.000072      0.000000
    309 F     s       0.000134     -0.000109      0.000099      0.000000
    310 F     s       0.000891     -0.000424      0.000533      0.000000
    311 F     s       0.000019      0.000033      0.000028      0.000000
    312 F     s      -0.000009      0.000007     -0.000023      0.000000
--------------------------------------------------------------------------------
  Maximum abs         0.000891      0.000719      0.002093      0.000000
--------------------------------------------------------------------------------


  Time to end of optimisation =      11.9176 seconds


  Peak dynamic memory used =      19.13 MB 


  Timing analysis for GULP :

--------------------------------------------------------------------------------
  Task / Subroutine                                          Time (Seconds)
--------------------------------------------------------------------------------
  Calculation of reciprocal space energy and derivatives          0.3836
  Calculation of real space energy and derivatives               10.1579
  Calculation of three-body energy and derivatives                1.1419
  Calculation of matrix inversion                                 0.1920
--------------------------------------------------------------------------------
  Total CPU time                                                 11.9177
--------------------------------------------------------------------------------


  Dump file written as out.res                                                 
  CIF file written as out.cif                                                 


  Job Finished at 03:24.41 30th November   2016                               

