********************************************************************************
*                       GENERAL UTILITY LATTICE PROGRAM                        *
*                                 Julian Gale                                  *
*                      Nanochemistry Research Institute                        *
*                           Department of Chemistry                            *
*                    Curtin University, Western Australia                      *
********************************************************************************
* Version = 4.2.0 * Last modified =  20th January 2014                         *
********************************************************************************
*  optimise     - perform optimisation run                                     *
*  conp         - constant pressure calculation                                *
*  qok          - running with non charge neutral cell is OK                   *
********************************************************************************

  Job Started  at 03:42.33 30th November   2016                               

  Number of CPUs =     1


  Total number of configurations input =   1

********************************************************************************
*  Input for Configuration =   1                                               *
********************************************************************************

  Formula = Si57Ge3O120F6                                               

  Number of irreducible atoms/shells =     312


  Total number atoms/shells =     312

  Dimensionality = 3               :  Bulk   


  Charge on solid   =  -6.000000 =>neutralising background added


  Cartesian lattice vectors (Angstroms) :

       12.022938    0.000000    0.000000
       -6.000026   10.308297    0.000000
       -0.037145    0.077229   29.534899

  Cell parameters (Angstroms/Degrees):

  a =      12.0229    alpha =  89.8343
  b =      11.9273    beta  =  90.0721
  c =      29.5350    gamma = 120.2019

  Initial cell volume =        3660.437645 Angs**3

  Temperature of configuration =  0.000     K 

  Pressure of configuration =         0.000 GPa 

  Fractional coordinates of asymmetric unit :

--------------------------------------------------------------------------------
   No.  Atomic       x           y          z         Charge      Occupancy
        Label      (Frac)      (Frac)     (Frac)        (e)         (Frac)  
--------------------------------------------------------------------------------
      1 Si    c    0.699600    0.375700    0.033890     4.00000    1.000000    
      2 Si    c    0.627183 *  0.322287 *  0.368131 *   4.00000    1.000000    
      3 Si    c    0.676267 *  0.284515 *  0.700331 *   4.00000    1.000000    
      4 Si    c    0.284824 *  0.609489 *  0.531913 *   4.00000    1.000000    
      5 Si    c    0.388040 *  0.681818 *  0.868124 *   4.00000    1.000000    
      6 Si    c    0.330223 *  0.705634 *  0.199923 *   4.00000    1.000000    
      7 Si    c    0.384445 *  0.704704 *  0.300188 *   4.00000    1.000000    
      8 Si    c    0.331607 *  0.626040 *  0.970641 *   4.00000    1.000000    
      9 Si    c    0.293696 *  0.666523 *  0.632002 *   4.00000    1.000000    
     10 Si    c    0.626018 *  0.292082 *  0.802191 *   4.00000    1.000000    
     11 Si    c    0.677679 *  0.371308 *  0.470766 *   4.00000    1.000000    
     12 Si    c    0.709724 *  0.327715 *  0.135427 *   4.00000    1.000000    
     13 Ge    c    0.535757 *  0.432587 *  0.967002 *   4.00000    1.000000    
     14 Si    c    0.586008 *  0.110963 *  0.302600 *   4.00000    1.000000    
     15 Si    c    0.886499 *  0.457068 *  0.635374 *   4.00000    1.000000    
     16 Si    c    0.467771 *  0.585836 *  0.468518 *   4.00000    1.000000    
     17 Ge    c    0.437050 *  0.897443 *  0.798431 *   4.00000    1.000000    
     18 Si    c    0.118839 *  0.535946 *  0.134915 *   4.00000    1.000000    
     19 Si    c    0.421664 *  0.531879 *  0.365111 *   4.00000    1.000000    
     20 Si    c    0.115982 *  0.585703 *  0.033653 *   4.00000    1.000000    
     21 Si    c    0.468168 *  0.864345 *  0.699644 *   4.00000    1.000000    
     22 Si    c    0.597592 *  0.467566 *  0.867972 *   4.00000    1.000000    
     23 Si    c    0.879004 *  0.398375 *  0.534767 *   4.00000    1.000000    
     24 Si    c    0.538421 *  0.118022 *  0.201199 *   4.00000    1.000000    
     25 Si    c    0.312262 *  0.396834 *  0.855329 *   4.00000    1.000000    
     26 Si    c    0.609509 *  0.907525 *  0.186417 *   4.00000    1.000000    
     27 Si    c    0.081820 *  0.683193 *  0.518183 *   4.00000    1.000000    
     28 Si    c    0.706556 *  0.604654 *  0.350028 *   4.00000    1.000000    
     29 Si    c    0.394791 *  0.079420 *  0.686936 *   4.00000    1.000000    
     30 Si    c    0.905457 *  0.303324 *  0.020543 *   4.00000    1.000000    
     31 Si    c    0.396851 *  0.299949 *  0.484217 *   4.00000    1.000000    
     32 Si    c    0.911566 *  0.607241 *  0.149522 *   4.00000    1.000000    
     33 Si    c    0.709301 *  0.091327 *  0.820599 *   4.00000    1.000000    
     34 Si    c    0.613254 *  0.706727 *  0.988597 *   4.00000    1.000000    
     35 Si    c    0.094727 *  0.387564 *  0.649085 *   4.00000    1.000000    
     36 Si    c    0.305191 *  0.903355 *  0.316339 *   4.00000    1.000000    
     37 Si    c    0.257604 *  0.336998 *  0.957048 *   4.00000    1.000000    
     38 Si    c    0.665913 *  0.911827 *  0.287046 *   4.00000    1.000000    
     39 Si    c    0.083994 *  0.737248 *  0.619029 *   4.00000    1.000000    
     40 Ge    c    0.732045 *  0.640303 *  0.449866 *   4.00000    1.000000    
     41 Si    c    0.337926 *  0.078331 *  0.789012 *   4.00000    1.000000    
     42 Si    c    0.917625 *  0.256675 *  0.120830 *   4.00000    1.000000    
     43 Si    c    0.341199 *  0.249430 *  0.382207 *   4.00000    1.000000    
     44 Si    c    0.913331 *  0.660090 *  0.048728 *   4.00000    1.000000    
     45 Si    c    0.748837 *  0.071226 *  0.717706 *   4.00000    1.000000    
     46 Si    c    0.671641 *  0.748973 *  0.885677 *   4.00000    1.000000    
     47 Si    c    0.082427 *  0.325434 *  0.549026 *   4.00000    1.000000    
     48 Si    c    0.259036 *  0.915785 *  0.215708 *   4.00000    1.000000    
     49 Si    c    0.974619 *  0.124722 *  0.971120 *   4.00000    1.000000    
     50 Si    c    0.884572 *  0.851145 *  0.300875 *   4.00000    1.000000    
     51 Si    c    0.149292 *  0.018683 *  0.635939 *   4.00000    1.000000    
     52 Si    c    0.017467 *  0.867145 *  0.467705 *   4.00000    1.000000    
     53 Si    c    0.128326 *  0.152507 *  0.803401 *   4.00000    1.000000    
     54 Si    c    0.858670 *  0.977483 *  0.137055 *   4.00000    1.000000    
     55 Si    c    0.123269 *  0.966413 *  0.367973 *   4.00000    1.000000    
     56 Si    c    0.858507 *  0.885424 *  0.036808 *   4.00000    1.000000    
     57 Si    c    0.031248 *  0.142608 *  0.702067 *   4.00000    1.000000    
     58 Si    c    0.891447 *  0.031436 *  0.870142 *   4.00000    1.000000    
     59 Si    c    0.148787 *  0.111135 *  0.534382 *   4.00000    1.000000    
     60 Si    c    0.981338 *  0.855890 *  0.200940 *   4.00000    1.000000    
     61 O2    c    0.941882 *  0.007226 *  0.004710 *   0.87073    1.000000    
     62 O2    c    0.001828 *  0.925765 *  0.335695 *   0.87073    1.000000    
     63 O2    c    0.073937 *  0.061148 *  0.670470 *   0.87073    1.000000    
     64 O2    c    0.073517 *  0.988690 *  0.502429 *   0.87073    1.000000    
     65 O2    c    0.011717 *  0.069850 *  0.837474 *   0.87073    1.000000    
     66 O2    c    0.938819 *  0.938438 *  0.170320 *   0.87073    1.000000    
     67 O2    c    0.345386 *  0.579097 *  0.332389 *   0.87073    1.000000    
     68 O2    c    0.422491 *  0.751208 *  0.661903 *   0.87073    1.000000    
     69 O2    c    0.242313 *  0.661942 *  0.001289 *   0.87073    1.000000    
     70 O2    c    0.667364 *  0.422114 *  0.830672 *   0.87073    1.000000    
     71 O2    c    0.588076 *  0.244280 *  0.169114 *   0.87073    1.000000    
     72 O2    c    0.752092 *  0.318969 *  0.503246 *   0.87073    1.000000    
     73 O3    c    0.582115 *  0.341599 *  0.002475 *   1.33043    1.000000    
     74 O2    c    0.760917 *  0.406965 *  0.667904 *   0.87073    1.000000    
     75 O2    c    0.662000 *  0.235335 *  0.335989 *   0.87073    1.000000    
     76 O2    c    0.404675 *  0.653141 *  0.498073 *   0.87073    1.000000    
     77 O2    c    0.245285 *  0.584260 *  0.166825 *   0.87073    1.000000    
     78 O3    c    0.352376 *  0.761344 *  0.835389 *   1.33043    1.000000    
     79 O2    c    0.125789 *  0.219445 *  0.976711 *   0.87073    1.000000    
     80 O2    c    0.793293 *  0.913973 *  0.306613 *   0.87073    1.000000    
     81 O2    c    0.082978 *  0.863017 *  0.639590 *   0.87073    1.000000    
     82 O3    c    0.868265 *  0.786172 *  0.471438 *   1.33043    1.000000    
     83 O2    c    0.218746 *  0.090348 *  0.807515 *   0.87073    1.000000    
     84 O2    c    0.919525 *  0.131738 *  0.141862 *   0.87073    1.000000    
     85 O2    c    0.217456 *  0.122331 *  0.362200 *   0.87073    1.000000    
     86 O2    c    0.911673 *  0.786717 *  0.029076 *   0.87073    1.000000    
     87 O2    c    0.876621 *  0.076479 *  0.697278 *   0.87073    1.000000    
     88 O2    c    0.794819 *  0.877306 *  0.864616 *   0.87073    1.000000    
     89 O2    c    0.082723 *  0.199497 *  0.528871 *   0.87073    1.000000    
     90 O2    c    0.134952 *  0.917827 *  0.195125 *   0.87073    1.000000    
     91 O2    c    0.945859 *  0.871533 *  0.251708 *   0.87073    1.000000    
     92 O2    c    0.140349 *  0.064261 *  0.585883 *   0.87073    1.000000    
     93 O2    c    0.939568 *  0.067693 *  0.920918 *   0.87073    1.000000    
     94 O2    c    0.072143 *  0.138000 *  0.753214 *   0.87073    1.000000    
     95 O2    c    0.876307 *  0.935510 *  0.087689 *   0.87073    1.000000    
     96 O2    c    0.074664 *  0.930405 *  0.418794 *   0.87073    1.000000    
     97 O2    c    0.900965 *  0.203067 *  0.982134 *   0.87073    1.000000    
     98 O2    c    0.797471 *  0.696309 *  0.308866 *   0.87073    1.000000    
     99 O2    c    0.300092 *  0.082281 *  0.648457 *   0.87073    1.000000    
    100 O2    c    0.079364 *  0.776134 *  0.479142 *   0.87073    1.000000    
    101 O2    c    0.213098 *  0.304150 *  0.816162 *   0.87073    1.000000    
    102 O2    c    0.706568 *  0.906463 *  0.148494 *   0.87073    1.000000    
    103 O2    c    0.205785 *  0.898410 *  0.354701 *   0.87073    1.000000    
    104 O2    c    0.707612 *  0.817680 *  0.024382 *   0.87073    1.000000    
    105 O2    c    0.099212 *  0.293109 *  0.687889 *   0.87073    1.000000    
    106 O2    c    0.821090 *  0.111316 *  0.856054 *   0.87073    1.000000    
    107 O2    c    0.300075 *  0.200042 *  0.521985 *   0.87073    1.000000    
    108 O2    c    0.910154 *  0.704326 *  0.187928 *   0.87073    1.000000    
    109 O2    c    0.327612 *  0.646795 *  0.250195 *   0.87073    1.000000    
    110 O2    c    0.346312 *  0.664399 *  0.581638 *   0.87073    1.000000    
    111 O2    c    0.337741 *  0.678949 *  0.919665 *   0.87073    1.000000    
    112 O2    c    0.675327 *  0.336534 *  0.750632 *   0.87073    1.000000    
    113 O2    c    0.651130 *  0.324943 *  0.085756 *   0.87073    1.000000    
    114 O2    c    0.678210 *  0.321724 *  0.419085 *   0.87073    1.000000    
    115 O3    c    0.368982 *  0.318274 *  0.976945 *   1.33043    1.000000    
    116 O2    c    0.673558 *  0.042825 *  0.306435 *   0.87073    1.000000    
    117 O2    c    0.954822 *  0.613745 *  0.639388 *   0.87073    1.000000    
    118 O3    c    0.618759 *  0.676510 *  0.474362 *   1.33043    1.000000    
    119 O3    c    0.321387 *  0.947656 *  0.808611 *   1.33043    1.000000    
    120 O2    c    0.050260 *  0.379129 *  0.139198 *   0.87073    1.000000    
    121 O2    c    0.336153 *  0.374430 *  0.363926 *   0.87073    1.000000    
    122 O2    c    0.047268 *  0.673114 *  0.030481 *   0.87073    1.000000    
    123 O2    c    0.626381 *  0.938199 *  0.699723 *   0.87073    1.000000    
    124 O2    c    0.682569 *  0.626577 *  0.867416 *   0.87073    1.000000    
    125 O2    c    0.947025 *  0.310403 *  0.532627 *   0.87073    1.000000    
    126 O2    c    0.382637 *  0.049779 *  0.198757 *   0.87073    1.000000    
    127 O2    c    0.771780 *  0.301366 *  0.013795 *   0.87073    1.000000    
    128 O2    c    0.702480 *  0.466431 *  0.346185 *   0.87073    1.000000    
    129 O2    c    0.531119 *  0.212357 *  0.680649 *   0.87073    1.000000    
    130 O2    c    0.216269 *  0.685332 *  0.511355 *   0.87073    1.000000    
    131 O2    c    0.315793 *  0.532395 *  0.850342 *   0.87073    1.000000    
    132 O2    c    0.474595 *  0.773968 *  0.178819 *   0.87073    1.000000    
    133 O2    c    0.308552 *  0.770314 *  0.323676 *   0.87073    1.000000    
    134 O2    c    0.475228 *  0.701064 *  0.992113 *   0.87073    1.000000    
    135 O2    c    0.226091 *  0.524624 *  0.656341 *   0.87073    1.000000    
    136 O2    c    0.701187 *  0.223478 *  0.823445 *   0.87073    1.000000    
    137 O2    c    0.530782 *  0.300736 *  0.490187 *   0.87073    1.000000    
    138 O2    c    0.779151 *  0.471626 *  0.157879 *   0.87073    1.000000    
    139 O2    c    0.789872 *  0.533604 *  0.029182 *   0.87073    1.000000    
    140 O2    c    0.472730 *  0.258640 *  0.365804 *   0.87073    1.000000    
    141 O2    c    0.738545 *  0.192486 *  0.698801 *   0.87073    1.000000    
    142 O2    c    0.204124 *  0.452385 *  0.527630 *   0.87073    1.000000    
    143 O2    c    0.542361 *  0.739695 *  0.866960 *   0.87073    1.000000    
    144 O2    c    0.259728 *  0.790783 *  0.195694 *   0.87073    1.000000    
    145 O2    c    0.540392 *  0.783310 *  0.306118 *   0.87073    1.000000    
    146 O2    c    0.266028 *  0.470709 *  0.973755 *   0.87073    1.000000    
    147 O2    c    0.214113 *  0.743276 *  0.636916 *   0.87073    1.000000    
    148 O2    c    0.471379 *  0.203746 *  0.806161 *   0.87073    1.000000    
    149 O3    c    0.758896 *  0.524738 *  0.478065 *   1.33043    1.000000    
    150 O2    c    0.790527 *  0.252646 *  0.140557 *   0.87073    1.000000    
    151 O2    c    0.246006 *  0.323294 *  0.902033 *   0.87073    1.000000    
    152 O2    c    0.683046 *  0.911679 *  0.232889 *   0.87073    1.000000    
    153 O2    c    0.077710 *  0.752384 *  0.564962 *   0.87073    1.000000    
    154 O3    c    0.783751 *  0.687162 *  0.393159 *   1.33043    1.000000    
    155 O2    c    0.326610 *  0.077656 *  0.734008 *   0.87073    1.000000    
    156 O2    c    0.914258 *  0.234399 *  0.066770 *   0.87073    1.000000    
    157 O2    c    0.329042 *  0.238428 *  0.436407 *   0.87073    1.000000    
    158 O2    c    0.913312 *  0.679575 *  0.102970 *   0.87073    1.000000    
    159 O2    c    0.765785 *  0.077274 *  0.771759 *   0.87073    1.000000    
    160 O2    c    0.684287 *  0.765393 *  0.939835 *   0.87073    1.000000    
    161 O2    c    0.090907 *  0.311605 *  0.603232 *   0.87073    1.000000    
    162 O2    c    0.236800 *  0.909256 *  0.269907 *   0.87073    1.000000    
    163 O3    c    0.607683 *  0.575760 *  0.001713 *   1.33043    1.000000    
    164 O2    c    0.444023 *  0.030709 *  0.325600 *   0.87073    1.000000    
    165 O2    c    0.966487 *  0.395762 *  0.658728 *   0.87073    1.000000    
    166 O2    c    0.415339 *  0.441937 *  0.491019 *   0.87073    1.000000    
    167 O3    c    0.579356 *  0.965162 *  0.833404 *   1.33043    1.000000    
    168 O2    c    0.038539 *  0.596496 *  0.158462 *   0.87073    1.000000    
    169 O2    c    0.563058 *  0.583320 *  0.343774 *   0.87073    1.000000    
    170 O2    c    0.031617 *  0.443346 *  0.010836 *   0.87073    1.000000    
    171 O2    c    0.415380 *  0.957836 *  0.680307 *   0.87073    1.000000    
    172 O2    c    0.452650 *  0.413867 *  0.847547 *   0.87073    1.000000    
    173 O2    c    0.962261 *  0.538785 *  0.510931 *   0.87073    1.000000    
    174 O2    c    0.593847 *  0.032473 *  0.178382 *   0.87073    1.000000    
    175 O2    c    0.590347 *  0.168680 *  0.252331 *   0.87073    1.000000    
    176 O2    c    0.828231 *  0.401692 *  0.585539 *   0.87073    1.000000    
    177 O3    c    0.605053 *  0.410611 *  0.915657 *   1.33043    1.000000    
    178 O3    c    0.413567 *  0.802806 *  0.747940 *   1.33043    1.000000    
    179 O2    c    0.172311 *  0.588370 *  0.084086 *   0.87073    1.000000    
    180 O2    c    0.422023 *  0.582088 *  0.416034 *   0.87073    1.000000    
    181 F     c    0.458776 *  0.906123 *  0.253433 *   0.56000    1.000000    
    182 F     c    0.087425 *  0.532602 *  0.586015 *   0.56000    1.000000    
    183 F     c    0.481818 *  0.525051 *  0.929376 *   0.56000    1.000000    
    184 F     c    0.527867 *  0.043634 *  0.761499 *   0.56000    1.000000    
    185 F     c    0.915183 *  0.456338 *  0.086340 *   0.56000    1.000000    
    186 F     c    0.585153 *  0.489042 *  0.423431 *   0.56000    1.000000    
    187 O2    s    0.936082 *  0.006729 *  0.004531 *  -2.87073    1.000000    
    188 O2    s    0.002489 *  0.922103 *  0.335456 *  -2.87073    1.000000    
    189 O2    s    0.077512 *  0.065391 *  0.670143 *  -2.87073    1.000000    
    190 O2    s    0.076475 *  0.990306 *  0.502534 *  -2.87073    1.000000    
    191 O2    s    0.011387 *  0.074850 *  0.837281 *  -2.87073    1.000000    
    192 O2    s    0.934632 *  0.933462 *  0.170051 *  -2.87073    1.000000    
    193 O2    s    0.357382 *  0.586743 *  0.332595 *  -2.87073    1.000000    
    194 O2    s    0.413936 *  0.754176 *  0.662709 *  -2.87073    1.000000    
    195 O2    s    0.238919 *  0.650560 *  0.001341 *  -2.87073    1.000000    
    196 O2    s    0.656071 *  0.412694 *  0.831274 *  -2.87073    1.000000    
    197 O2    s    0.595124 *  0.239418 *  0.169086 *  -2.87073    1.000000    
    198 O2    s    0.757558 *  0.332147 *  0.503215 *  -2.87073    1.000000    
    199 O3    s    0.591973 *  0.351514 *  0.003543 *  -3.33043    1.000000    
    200 O2    s    0.764431 *  0.398777 *  0.668135 *  -2.87073    1.000000    
    201 O2    s    0.650589 *  0.232056 *  0.336063 *  -2.87073    1.000000    
    202 O2    s    0.398515 *  0.641276 *  0.498563 *  -2.87073    1.000000    
    203 O2    s    0.241430 *  0.592143 *  0.167084 *  -2.87073    1.000000    
    204 O3    s    0.362128 *  0.761542 *  0.836588 *  -3.33043    1.000000    
    205 O2    s    0.123021 *  0.221599 *  0.973931 *  -2.87073    1.000000    
    206 O2    s    0.789719 *  0.907185 *  0.304027 *  -2.87073    1.000000    
    207 O2    s    0.090140 *  0.866704 *  0.637120 *  -2.87073    1.000000    
    208 O3    s    0.876322 *  0.785866 *  0.469643 *  -3.33043    1.000000    
    209 O2    s    0.221652 *  0.096047 *  0.805044 *  -2.87073    1.000000    
    210 O2    s    0.912720 *  0.127918 *  0.139199 *  -2.87073    1.000000    
    211 O2    s    0.221190 *  0.120135 *  0.364918 *  -2.87073    1.000000    
    212 O2    s    0.906184 *  0.784223 *  0.031885 *  -2.87073    1.000000    
    213 O2    s    0.879555 *  0.082829 *  0.699874 *  -2.87073    1.000000    
    214 O2    s    0.792393 *  0.880457 *  0.867345 *  -2.87073    1.000000    
    215 O2    s    0.089696 *  0.203326 *  0.531546 *  -2.87073    1.000000    
    216 O2    s    0.131632 *  0.911087 *  0.197851 *  -2.87073    1.000000    
    217 O2    s    0.942828 *  0.867436 *  0.251627 *  -2.87073    1.000000    
    218 O2    s    0.142273 *  0.064245 *  0.585885 *  -2.87073    1.000000    
    219 O2    s    0.937903 *  0.069870 *  0.920648 *  -2.87073    1.000000    
    220 O2    s    0.073761 *  0.140097 *  0.753030 *  -2.87073    1.000000    
    221 O2    s    0.872248 *  0.934597 *  0.087531 *  -2.87073    1.000000    
    222 O2    s    0.074160 *  0.927836 *  0.418146 *  -2.87073    1.000000    
    223 O2    s    0.909259 *  0.204707 *  0.984783 *  -2.87073    1.000000    
    224 O2    s    0.797409 *  0.703233 *  0.312125 *  -2.87073    1.000000    
    225 O2    s    0.294120 *  0.075316 *  0.651146 *  -2.87073    1.000000    
    226 O2    s    0.073426 *  0.775258 *  0.482196 *  -2.87073    1.000000    
    227 O2    s    0.214001 *  0.297279 *  0.818719 *  -2.87073    1.000000    
    228 O2    s    0.712510 *  0.914008 *  0.151197 *  -2.87073    1.000000    
    229 O2    s    0.207162 *  0.906107 *  0.352204 *  -2.87073    1.000000    
    230 O2    s    0.713993 *  0.813677 *  0.022082 *  -2.87073    1.000000    
    231 O2    s    0.091407 *  0.286510 *  0.685441 *  -2.87073    1.000000    
    232 O2    s    0.817110 *  0.100883 *  0.853900 *  -2.87073    1.000000    
    233 O2    s    0.294489 *  0.201269 *  0.519329 *  -2.87073    1.000000    
    234 O2    s    0.917934 *  0.710787 *  0.185457 *  -2.87073    1.000000    
    235 O2    s    0.333725 *  0.658714 *  0.250256 *  -2.87073    1.000000    
    236 O2    s    0.334411 *  0.658898 *  0.581790 *  -2.87073    1.000000    
    237 O2    s    0.342130 *  0.673727 *  0.919856 *  -2.87073    1.000000    
    238 O2    s    0.670311 *  0.326360 *  0.750610 *  -2.87073    1.000000    
    239 O2    s    0.662057 *  0.330214 *  0.085895 *  -2.87073    1.000000    
    240 O2    s    0.672906 *  0.326734 *  0.418934 *  -2.87073    1.000000    
    241 O3    s    0.368404 *  0.328054 *  0.974112 *  -3.33043    1.000000    
    242 O2    s    0.663701 *  0.036241 *  0.304018 *  -2.87073    1.000000    
    243 O2    s    0.961151 *  0.610299 *  0.636855 *  -2.87073    1.000000    
    244 O3    s    0.611170 *  0.664542 *  0.472007 *  -3.33043    1.000000    
    245 O3    s    0.330958 *  0.958225 *  0.805803 *  -3.33043    1.000000    
    246 O2    s    0.043438 *  0.382522 *  0.136817 *  -2.87073    1.000000    
    247 O2    s    0.345432 *  0.377214 *  0.365996 *  -2.87073    1.000000    
    248 O2    s    0.040743 *  0.662823 *  0.032666 *  -2.87073    1.000000    
    249 O2    s    0.623999 *  0.945036 *  0.701617 *  -2.87073    1.000000    
    250 O2    s    0.673139 *  0.623632 *  0.869366 *  -2.87073    1.000000    
    251 O2    s    0.954237 *  0.321080 *  0.534596 *  -2.87073    1.000000    
    252 O2    s    0.385665 *  0.042687 *  0.200816 *  -2.87073    1.000000    
    253 O2    s    0.779152 *  0.308994 *  0.016575 *  -2.87073    1.000000    
    254 O2    s    0.695044 *  0.465492 *  0.348908 *  -2.87073    1.000000    
    255 O2    s    0.532104 *  0.206027 *  0.683386 *  -2.87073    1.000000    
    256 O2    s    0.209253 *  0.677059 *  0.514302 *  -2.87073    1.000000    
    257 O2    s    0.322686 *  0.532505 *  0.852703 *  -2.87073    1.000000    
    258 O2    s    0.473972 *  0.781021 *  0.181827 *  -2.87073    1.000000    
    259 O2    s    0.315996 *  0.777561 *  0.320467 *  -2.87073    1.000000    
    260 O2    s    0.474320 *  0.693860 *  0.989511 *  -2.87073    1.000000    
    261 O2    s    0.218998 *  0.524554 *  0.653055 *  -2.87073    1.000000    
    262 O2    s    0.694107 *  0.217227 *  0.820898 *  -2.87073    1.000000    
    263 O2    s    0.531364 *  0.307800 *  0.487566 *  -2.87073    1.000000    
    264 O2    s    0.786034 *  0.471201 *  0.154669 *  -2.87073    1.000000    
    265 O2    s    0.794949 *  0.532141 *  0.031802 *  -2.87073    1.000000    
    266 O2    s    0.474643 *  0.264470 *  0.367851 *  -2.87073    1.000000    
    267 O2    s    0.732863 *  0.189237 *  0.700992 *  -2.87073    1.000000    
    268 O2    s    0.199257 *  0.454963 *  0.530368 *  -2.87073    1.000000    
    269 O2    s    0.540776 *  0.734583 *  0.869160 *  -2.87073    1.000000    
    270 O2    s    0.267190 *  0.795635 *  0.198312 *  -2.87073    1.000000    
    271 O2    s    0.537837 *  0.789069 *  0.303516 *  -2.87073    1.000000    
    272 O2    s    0.272420 *  0.473719 *  0.971699 *  -2.87073    1.000000    
    273 O2    s    0.208317 *  0.734685 *  0.634533 *  -2.87073    1.000000    
    274 O2    s    0.474264 *  0.200239 *  0.804008 *  -2.87073    1.000000    
    275 O3    s    0.748606 *  0.517710 *  0.475305 *  -3.33043    1.000000    
    276 O2    s    0.795932 *  0.260973 *  0.137927 *  -2.87073    1.000000    
    277 O2    s    0.254233 *  0.332451 *  0.902553 *  -2.87073    1.000000    
    278 O2    s    0.673513 *  0.911267 *  0.233810 *  -2.87073    1.000000    
    279 O2    s    0.078781 *  0.743629 *  0.565944 *  -2.87073    1.000000    
    280 O3    s    0.772251 *  0.675446 *  0.392811 *  -3.33043    1.000000    
    281 O2    s    0.335086 *  0.077889 *  0.734495 *  -2.87073    1.000000    
    282 O2    s    0.913729 *  0.243890 *  0.067687 *  -2.87073    1.000000    
    283 O2    s    0.337577 *  0.246180 *  0.435626 *  -2.87073    1.000000    
    284 O2    s    0.913151 *  0.669884 *  0.102234 *  -2.87073    1.000000    
    285 O2    s    0.758339 *  0.077938 *  0.770654 *  -2.87073    1.000000    
    286 O2    s    0.675975 *  0.757822 *  0.938772 *  -2.87073    1.000000    
    287 O2    s    0.090414 *  0.321027 *  0.602319 *  -2.87073    1.000000    
    288 O2    s    0.246342 *  0.909318 *  0.269106 *  -2.87073    1.000000    
    289 O3    s    0.603232 *  0.580118 *  0.997978 *  -3.33043    1.000000    
    290 O2    s    0.443933 *  0.025369 *  0.322254 *  -2.87073    1.000000    
    291 O2    s    0.971820 *  0.401368 *  0.655286 *  -2.87073    1.000000    
    292 O2    s    0.418645 *  0.440579 *  0.488068 *  -2.87073    1.000000    
    293 O3    s    0.583896 *  0.974369 *  0.829729 *  -3.33043    1.000000    
    294 O2    s    0.033166 *  0.591227 *  0.155074 *  -2.87073    1.000000    
    295 O2    s    0.563035 *  0.579931 *  0.346718 *  -2.87073    1.000000    
    296 O2    s    0.026957 *  0.443366 *  0.014225 *  -2.87073    1.000000    
    297 O2    s    0.418481 *  0.962191 *  0.683000 *  -2.87073    1.000000    
    298 O2    s    0.451857 *  0.417405 *  0.850408 *  -2.87073    1.000000    
    299 O2    s    0.966607 *  0.539486 *  0.514275 *  -2.87073    1.000000    
    300 O2    s    0.589566 *  0.027703 *  0.181654 *  -2.87073    1.000000    
    301 O2    s    0.584586 *  0.157482 *  0.252348 *  -2.87073    1.000000    
    302 O2    s    0.839590 *  0.407167 *  0.585540 *  -2.87073    1.000000    
    303 O3    s    0.599774 *  0.418015 *  0.913990 *  -3.33043    1.000000    
    304 O3    s    0.420804 *  0.815444 *  0.746244 *  -3.33043    1.000000    
    305 O2    s    0.161004 *  0.582686 *  0.084150 *  -2.87073    1.000000    
    306 O2    s    0.426621 *  0.577172 *  0.415906 *  -2.87073    1.000000    
    307 F     s    0.458634 *  0.905676 *  0.253688 *  -1.56000    1.000000    
    308 F     s    0.087579 *  0.532504 *  0.586262 *  -1.56000    1.000000    
    309 F     s    0.485615 *  0.519006 *  0.931803 *  -1.56000    1.000000    
    310 F     s    0.521650 *  0.033380 *  0.764092 *  -1.56000    1.000000    
    311 F     s    0.915593 *  0.456302 *  0.086536 *  -1.56000    1.000000    
    312 F     s    0.593499 *  0.497410 *  0.424891 *  -1.56000    1.000000    
--------------------------------------------------------------------------------



********************************************************************************
*  General input information                                                   *
********************************************************************************

  Species output for all configurations : 

--------------------------------------------------------------------------------
  Species    Type    Atomic    Atomic    Charge       Radii (Angs)     Library
                     Number     Mass       (e)     Cova   Ionic  VDW   Symbol
--------------------------------------------------------------------------------
    Si       Core       14      28.09   4.000000   1.200  0.000  2.100          
    O1       Core        8      16.00   1.733957   0.730  0.000  1.360          
    O1       Shell       8       0.00  -3.733957   0.730  0.000  1.360          
    O2       Core        8      16.00   0.870733   0.730  0.000  1.360          
    O2       Shell       8       0.00  -2.870733   0.730  0.000  1.360          
    O3       Core        8      16.00   1.330431   0.730  0.000  1.360          
    O3       Shell       8       0.00  -3.330431   0.730  0.000  1.360          
    F        Core        9      19.00   0.560000   0.710  0.000  1.300          
    F        Shell       9       0.00  -1.560000   0.710  0.000  1.300          
    Ge       Core       32      72.61   4.000000   1.170  0.000  1.750          
--------------------------------------------------------------------------------


  Lattice summation method               =    Ewald          (3-D)
                                         =    Parry          (2-D)
                                         =    Saunders et al (1-D)
  Accuracy factor for lattice sums       =   12.000


  Time limit = Infinity

  Maximum range for interatomic potentials =        16.000000 Angstroms

  Taper potentials to zero over   1.0000 Angstroms using polynomial

  General interatomic potentials :

--------------------------------------------------------------------------------
Atom  Types   Potential         A         B         C         D     Cutoffs(Ang)
  1     2                                                            Min    Max 
--------------------------------------------------------------------------------
Si   c O1   s Buckingham    0.132E+04 0.318      10.1      0.00     0.000 16.000
Si   c O2   s Buckingham    0.132E+04 0.318      10.1      0.00     0.000 16.000
Si   c O3   s Buckingham    0.132E+04 0.318      10.1      0.00     0.000 16.000
Ge   c O1   s Buckingham    0.150E+04 0.326      16.8      0.00     0.000 16.000
Ge   c O2   s Buckingham    0.150E+04 0.326      16.8      0.00     0.000 16.000
Ge   c O3   s Buckingham    0.150E+04 0.326      16.8      0.00     0.000 16.000
O1   s O1   s Buckingham    0.228E+05 0.149      10.9      0.00     0.000 16.000
O1   s O2   s Buckingham    0.228E+05 0.149      10.9      0.00     0.000 16.000
O1   s O3   s Buckingham    0.228E+05 0.149      10.9      0.00     0.000 16.000
O2   s O2   s Buckingham    0.228E+05 0.149      10.9      0.00     0.000 16.000
O2   s O3   s Buckingham    0.228E+05 0.149      10.9      0.00     0.000 16.000
O3   s O3   s Buckingham    0.228E+05 0.149      10.9      0.00     0.000 16.000
Si   c F    s Buckingham     977.     0.282      0.00      0.00     0.000 16.000
Ge   c F    s Buckingham     681.     0.320      0.00      0.00     0.000 16.000
F    s F    s Buckingham     540.     0.262      0.00      0.00     0.000 16.000
O1   s F    s Buckingham    0.168E+04 0.268      0.00      0.00     0.000 16.000
O2   s F    s Buckingham    0.168E+04 0.268      0.00      0.00     0.000 16.000
O3   s F    s Buckingham    0.168E+04 0.268      0.00      0.00     0.000 16.000
O2   c O2   s Spring (c-s)   76.0      0.00      0.00      0.00     0.000  0.800
O3   c O3   s Spring (c-s)   128.      0.00      0.00      0.00     0.000  0.800
O1   c O1   s Spring (c-s)   180.      0.00      0.00      0.00     0.000  0.800
F    c F    s Spring (c-s)   33.5      0.00      0.00      0.00     0.000  0.800
--------------------------------------------------------------------------------

  General Three-body potentials :

  Harmonic form:

--------------------------------------------------------------------------------
Atom    Atom    Atom           Force Constants            Theta     Cutoffs  
  1       2       3     (eVrad**-2/eVrad**-3/eVrad**-4)   (deg)  1-2  1-3  2-3
--------------------------------------------------------------------------------
Si    c O1    s O1    s  1.261        0.0000    0.0000   109.470 0.00 0.00 0.00
                                                                 1.90 1.90 3.50
Si    c O1    s O2    s  1.261        0.0000    0.0000   109.470 0.00 0.00 0.00
                                                                 1.90 1.90 3.50
Si    c O2    s O2    s  1.261        0.0000    0.0000   109.470 0.00 0.00 0.00
                                                                 1.90 1.90 3.50
--------------------------------------------------------------------------------

********************************************************************************
*  Output for configuration   1                                                *
********************************************************************************


  Components of energy : 

--------------------------------------------------------------------------------
  Interatomic potentials     =        2066.23826238 eV
  Three-body potentials      =           0.47397540 eV
  Monopole - monopole (real) =       -6617.29943382 eV
  Monopole - monopole (recip)=       -3170.29511622 eV
  Monopole - monopole (total)=       -9787.59455004 eV
  Neutralising energy        =          -6.45789442 eV
--------------------------------------------------------------------------------
  Total lattice energy       =       -7727.34020668 eV
--------------------------------------------------------------------------------
  Total lattice energy       =         -745570.2067 kJ/(mole unit cells)
--------------------------------------------------------------------------------


  Number of variables =      939

  Maximum number of calculations  =          1000
  Maximum Hessian update interval =            10
  Maximum step size               =   1.000000000
  Maximum parameter tolerance     =   0.000010000
  Maximum function  tolerance     =   0.000010000
  Maximum gradient  tolerance     =   0.001000000
  Maximum gradient  component     =   0.010000000

  Symmetry not applied to optimisation

  Cell parameters to be optimised using strains

  Newton-Raphson optimiser to be used

  BFGS hessian update to be used

  Dumpfile to be written after every cycle

  Start of bulk optimisation :

  Cycle:      0 Energy:     -7727.340207  Gnorm:      0.000403  CPU:    1.043
  ** Hessian calculated **
  Cycle:      1 Energy:     -7727.360895  Gnorm:      0.001227  CPU:    2.949
  Cycle:      2 Energy:     -7727.360955  Gnorm:      0.000089  CPU:    4.330


  **** Optimisation achieved ****


  Final energy =   -7727.36095562 eV
  Final Gnorm  =       0.00001315

  Components of energy : 

--------------------------------------------------------------------------------
  Interatomic potentials     =        2066.18904572 eV
  Three-body potentials      =           0.47741507 eV
  Monopole - monopole (real) =       -6617.93211860 eV
  Monopole - monopole (recip)=       -3169.63874114 eV
  Monopole - monopole (total)=       -9787.57085974 eV
  Neutralising energy        =          -6.45655668 eV
--------------------------------------------------------------------------------
  Total lattice energy       =       -7727.36095562 eV
--------------------------------------------------------------------------------
  Total lattice energy       =         -745572.2087 kJ/(mole unit cells)
--------------------------------------------------------------------------------

  Final fractional coordinates of atoms :

--------------------------------------------------------------------------------
   No.  Atomic        x           y          z          Radius
        Label       (Frac)      (Frac)     (Frac)       (Angs) 
--------------------------------------------------------------------------------
     1  Si    c     0.699600    0.375700    0.033890    0.000000
     2  Si    c     0.623704    0.315263    0.367989    0.000000
     3  Si    c     0.669197    0.271717    0.699929    0.000000
     4  Si    c     0.277606    0.596910    0.531527    0.000000
     5  Si    c     0.384509    0.671992    0.867638    0.000000
     6  Si    c     0.330001    0.702425    0.199506    0.000000
     7  Si    c     0.382990    0.698855    0.299845    0.000000
     8  Si    c     0.329202    0.618859    0.970268    0.000000
     9  Si    c     0.286152    0.653461    0.631674    0.000000
    10  Si    c     0.619421    0.280270    0.801785    0.000000
    11  Si    c     0.672113    0.361904    0.470782    0.000000
    12  Si    c     0.710192    0.325888    0.135394    0.000000
    13  Ge    c     0.531037    0.424479    0.966645    0.000000
    14  Si    c     0.584506    0.105120    0.302522    0.000000
    15  Si    c     0.879466    0.444270    0.635048    0.000000
    16  Si    c     0.462688    0.576483    0.468274    0.000000
    17  Ge    c     0.430688    0.886071    0.797889    0.000000
    18  Si    c     0.119103    0.533086    0.134384    0.000000
    19  Si    c     0.418427    0.524404    0.364691    0.000000
    20  Si    c     0.115323    0.582396    0.033229    0.000000
    21  Si    c     0.460954    0.851495    0.699194    0.000000
    22  Si    c     0.592673    0.456886    0.867613    0.000000
    23  Si    c     0.872212    0.385904    0.534527    0.000000
    24  Si    c     0.538807    0.115186    0.201161    0.000000
    25  Si    c     0.307660    0.386791    0.854895    0.000000
    26  Si    c     0.609306    0.904378    0.186457    0.000000
    27  Si    c     0.074628    0.670614    0.517724    0.000000
    28  Si    c     0.703465    0.597756    0.349716    0.000000
    29  Si    c     0.387825    0.066778    0.686615    0.000000
    30  Si    c     0.903827    0.300826    0.020023    0.000000
    31  Si    c     0.391287    0.290350    0.484014    0.000000
    32  Si    c     0.912819    0.605134    0.149278    0.000000
    33  Si    c     0.702639    0.079411    0.820172    0.000000
    34  Si    c     0.610299    0.698818    0.988601    0.000000
    35  Si    c     0.087218    0.374448    0.648700    0.000000
    36  Si    c     0.303934    0.897713    0.316169    0.000000
    37  Si    c     0.253411    0.329112    0.956817    0.000000
    38  Si    c     0.664496    0.906329    0.287032    0.000000
    39  Si    c     0.076691    0.724519    0.618603    0.000000
    40  Ge    c     0.726725    0.630950    0.449702    0.000000
    41  Si    c     0.331364    0.066653    0.788717    0.000000
    42  Si    c     0.917399    0.253846    0.120269    0.000000
    43  Si    c     0.337584    0.241801    0.381852    0.000000
    44  Si    c     0.914535    0.658664    0.048581    0.000000
    45  Si    c     0.741638    0.058267    0.717294    0.000000
    46  Si    c     0.667753    0.738757    0.885499    0.000000
    47  Si    c     0.075220    0.312798    0.548638    0.000000
    48  Si    c     0.259257    0.912862    0.215547    0.000000
    49  Si    c     0.969604    0.119568    0.970735    0.000000
    50  Si    c     0.882279    0.844585    0.300701    0.000000
    51  Si    c     0.142374    0.006206    0.635689    0.000000
    52  Si    c     0.012588    0.856453    0.467298    0.000000
    53  Si    c     0.122778    0.142014    0.803197    0.000000
    54  Si    c     0.858333    0.974359    0.136945    0.000000
    55  Si    c     0.120538    0.958418    0.367889    0.000000
    56  Si    c     0.855456    0.880463    0.036751    0.000000
    57  Si    c     0.024119    0.129713    0.701895    0.000000
    58  Si    c     0.886160    0.021951    0.870067    0.000000
    59  Si    c     0.143200    0.099934    0.534163    0.000000
    60  Si    c     0.981672    0.853366    0.200818    0.000000
    61  O2    c     0.935754    0.002929    0.004754    0.000000
    62  O2    c     0.999087    0.917576    0.335700    0.000000
    63  O2    c     0.066897    0.047995    0.670451    0.000000
    64  O2    c     0.069464    0.977192    0.502327    0.000000
    65  O2    c     0.007078    0.060813    0.837729    0.000000
    66  O2    c     0.939441    0.936389    0.170227    0.000000
    67  O2    c     0.343175    0.572596    0.331834    0.000000
    68  O2    c     0.414909    0.738160    0.661538    0.000000
    69  O2    c     0.241248    0.656976    0.000648    0.000000
    70  O2    c     0.661438    0.410511    0.830245    0.000000
    71  O2    c     0.588974    0.241984    0.169239    0.000000
    72  O2    c     0.745212    0.307675    0.503030    0.000000
    73  O3    c     0.580865    0.337928    0.002726    0.000000
    74  O2    c     0.753858    0.394229    0.667525    0.000000
    75  O2    c     0.659800    0.229071    0.336045    0.000000
    76  O2    c     0.397865    0.642023    0.497785    0.000000
    77  O2    c     0.245585    0.581429    0.166237    0.000000
    78  O3    c     0.347347    0.750222    0.834867    0.000000
    79  O2    c     0.120970    0.212453    0.976307    0.000000
    80  O2    c     0.791407    0.907747    0.306648    0.000000
    81  O2    c     0.075833    0.850442    0.639058    0.000000
    82  O3    c     0.863408    0.776844    0.470992    0.000000
    83  O2    c     0.212425    0.079006    0.807185    0.000000
    84  O2    c     0.919410    0.128804    0.141164    0.000000
    85  O2    c     0.213916    0.114434    0.362016    0.000000
    86  O2    c     0.912299    0.784928    0.028872    0.000000
    87  O2    c     0.869516    0.063283    0.697084    0.000000
    88  O2    c     0.791126    0.867498    0.864689    0.000000
    89  O2    c     0.075787    0.186988    0.528497    0.000000
    90  O2    c     0.135412    0.915884    0.195241    0.000000
    91  O2    c     0.944369    0.866759    0.251587    0.000000
    92  O2    c     0.134480    0.053131    0.585724    0.000000
    93  O2    c     0.933299    0.060558    0.920834    0.000000
    94  O2    c     0.065372    0.126423    0.753137    0.000000
    95  O2    c     0.873498    0.930224    0.087662    0.000000
    96  O2    c     0.071630    0.921015    0.418661    0.000000
    97  O2    c     0.898111    0.200196    0.981473    0.000000
    98  O2    c     0.794587    0.689646    0.308560    0.000000
    99  O2    c     0.292978    0.069474    0.648219    0.000000
   100  O2    c     0.072387    0.763490    0.478598    0.000000
   101  O2    c     0.208510    0.293722    0.815790    0.000000
   102  O2    c     0.706642    0.903655    0.148659    0.000000
   103  O2    c     0.203934    0.891510    0.354504    0.000000
   104  O2    c     0.704427    0.809630    0.024422    0.000000
   105  O2    c     0.091831    0.279978    0.687472    0.000000
   106  O2    c     0.814793    0.100326    0.855488    0.000000
   107  O2    c     0.294281    0.190188    0.521718    0.000000
   108  O2    c     0.911362    0.702099    0.187648    0.000000
   109  O2    c     0.327016    0.642632    0.249652    0.000000
   110  O2    c     0.338598    0.651182    0.581324    0.000000
   111  O2    c     0.334633    0.670081    0.919109    0.000000
   112  O2    c     0.667947    0.324124    0.750120    0.000000
   113  O2    c     0.651890    0.324953    0.085879    0.000000
   114  O2    c     0.673752    0.313968    0.418983    0.000000
   115  O3    c     0.364408    0.309648    0.976672    0.000000
   116  O2    c     0.672247    0.037243    0.306517    0.000000
   117  O2    c     0.947704    0.600964    0.639033    0.000000
   118  O3    c     0.613483    0.667252    0.474323    0.000000
   119  O3    c     0.314784    0.935878    0.808225    0.000000
   120  O2    c     0.050174    0.376187    0.138563    0.000000
   121  O2    c     0.332745    0.366907    0.363449    0.000000
   122  O2    c     0.047808    0.671019    0.030019    0.000000
   123  O2    c     0.619156    0.925537    0.699157    0.000000
   124  O2    c     0.678112    0.616071    0.867138    0.000000
   125  O2    c     0.939774    0.297530    0.532213    0.000000
   126  O2    c     0.383050    0.046840    0.198632    0.000000
   127  O2    c     0.771189    0.300700    0.013708    0.000000
   128  O2    c     0.699181    0.459424    0.346020    0.000000
   129  O2    c     0.524274    0.199358    0.680141    0.000000
   130  O2    c     0.208959    0.672649    0.511040    0.000000
   131  O2    c     0.312119    0.522702    0.849747    0.000000
   132  O2    c     0.474430    0.771198    0.178511    0.000000
   133  O2    c     0.307127    0.764499    0.323227    0.000000
   134  O2    c     0.472760    0.694179    0.991640    0.000000
   135  O2    c     0.218468    0.511523    0.655999    0.000000
   136  O2    c     0.694786    0.211730    0.822831    0.000000
   137  O2    c     0.525028    0.290985    0.489981    0.000000
   138  O2    c     0.780487    0.469669    0.157897    0.000000
   139  O2    c     0.790121    0.532993    0.029062    0.000000
   140  O2    c     0.469261    0.251440    0.365476    0.000000
   141  O2    c     0.731617    0.179807    0.698497    0.000000
   142  O2    c     0.196927    0.439806    0.527204    0.000000
   143  O2    c     0.538761    0.729760    0.866634    0.000000
   144  O2    c     0.259861    0.787940    0.195413    0.000000
   145  O2    c     0.538762    0.777555    0.305881    0.000000
   146  O2    c     0.263461    0.463468    0.973684    0.000000
   147  O2    c     0.206564    0.730157    0.636461    0.000000
   148  O2    c     0.464886    0.191829    0.805912    0.000000
   149  O3    c     0.752900    0.515244    0.478273    0.000000
   150  O2    c     0.790855    0.250628    0.140058    0.000000
   151  O2    c     0.241627    0.314766    0.901827    0.000000
   152  O2    c     0.682306    0.907236    0.232893    0.000000
   153  O2    c     0.070305    0.739464    0.564538    0.000000
   154  O3    c     0.779594    0.679170    0.393079    0.000000
   155  O2    c     0.320194    0.065873    0.733712    0.000000
   156  O2    c     0.913171    0.231898    0.066199    0.000000
   157  O2    c     0.324429    0.229963    0.436019    0.000000
   158  O2    c     0.914809    0.678108    0.102810    0.000000
   159  O2    c     0.758198    0.063972    0.771340    0.000000
   160  O2    c     0.681075    0.755618    0.939631    0.000000
   161  O2    c     0.083468    0.298590    0.602840    0.000000
   162  O2    c     0.236604    0.905218    0.269723    0.000000
   163  O3    c     0.602890    0.567226    0.001698    0.000000
   164  O2    c     0.442630    0.024791    0.325619    0.000000
   165  O2    c     0.959081    0.382628    0.658459    0.000000
   166  O2    c     0.410138    0.432465    0.490736    0.000000
   167  O3    c     0.572659    0.953722    0.833084    0.000000
   168  O2    c     0.039636    0.594212    0.158157    0.000000
   169  O2    c     0.559897    0.576126    0.343445    0.000000
   170  O2    c     0.030505    0.440353    0.010302    0.000000
   171  O2    c     0.407795    0.944819    0.680004    0.000000
   172  O2    c     0.447802    0.403341    0.847250    0.000000
   173  O2    c     0.955344    0.526141    0.510529    0.000000
   174  O2    c     0.594593    0.029930    0.178407    0.000000
   175  O2    c     0.589862    0.164509    0.252436    0.000000
   176  O2    c     0.821104    0.388772    0.585262    0.000000
   177  O3    c     0.599653    0.400377    0.915413    0.000000
   178  O3    c     0.406868    0.790606    0.747570    0.000000
   179  O2    c     0.172516    0.585490    0.083539    0.000000
   180  O2    c     0.418108    0.573795    0.415675    0.000000
   181  F     c     0.458927    0.902572    0.253240    0.000000
   182  F     c     0.079387    0.518859    0.585668    0.000000
   183  F     c     0.477907    0.516383    0.929008    0.000000
   184  F     c     0.521114    0.031647    0.760974    0.000000
   185  F     c     0.916485    0.455852    0.085951    0.000000
   186  F     c     0.580695    0.480796    0.423164    0.000000
   187  O2    s     0.930359    0.002225    0.004519    0.000000
   188  O2    s     0.999793    0.914098    0.335430    0.000000
   189  O2    s     0.070465    0.052337    0.670086    0.000000
   190  O2    s     0.072182    0.978960    0.502393    0.000000
   191  O2    s     0.006579    0.065615    0.837447    0.000000
   192  O2    s     0.935138    0.931265    0.169955    0.000000
   193  O2    s     0.355110    0.580203    0.332067    0.000000
   194  O2    s     0.406407    0.741156    0.662339    0.000000
   195  O2    s     0.237730    0.645502    0.000754    0.000000
   196  O2    s     0.650190    0.401201    0.830862    0.000000
   197  O2    s     0.595905    0.237122    0.169177    0.000000
   198  O2    s     0.750827    0.320943    0.503018    0.000000
   199  O3    s     0.590566    0.348007    0.003699    0.000000
   200  O2    s     0.757377    0.386021    0.667760    0.000000
   201  O2    s     0.648291    0.225745    0.336085    0.000000
   202  O2    s     0.391869    0.630181    0.498264    0.000000
   203  O2    s     0.241671    0.589262    0.166522    0.000000
   204  O3    s     0.357246    0.750646    0.836046    0.000000
   205  O2    s     0.118326    0.214784    0.973537    0.000000
   206  O2    s     0.787839    0.901000    0.304037    0.000000
   207  O2    s     0.082999    0.854115    0.636628    0.000000
   208  O3    s     0.871439    0.776397    0.469222    0.000000
   209  O2    s     0.215403    0.084763    0.804731    0.000000
   210  O2    s     0.912572    0.124988    0.138578    0.000000
   211  O2    s     0.217727    0.112264    0.364726    0.000000
   212  O2    s     0.906488    0.782116    0.031704    0.000000
   213  O2    s     0.872444    0.069686    0.699655    0.000000
   214  O2    s     0.788528    0.870655    0.867373    0.000000
   215  O2    s     0.082872    0.190941    0.531183    0.000000
   216  O2    s     0.132053    0.908992    0.197906    0.000000
   217  O2    s     0.941455    0.862719    0.251501    0.000000
   218  O2    s     0.136316    0.052953    0.585717    0.000000
   219  O2    s     0.931898    0.062693    0.920538    0.000000
   220  O2    s     0.067092    0.128493    0.752935    0.000000
   221  O2    s     0.869691    0.929606    0.087498    0.000000
   222  O2    s     0.070961    0.918474    0.417991    0.000000
   223  O2    s     0.906282    0.201590    0.984145    0.000000
   224  O2    s     0.794577    0.696553    0.311816    0.000000
   225  O2    s     0.287035    0.062551    0.650905    0.000000
   226  O2    s     0.066647    0.762804    0.481676    0.000000
   227  O2    s     0.209301    0.286891    0.818348    0.000000
   228  O2    s     0.712550    0.911171    0.151332    0.000000
   229  O2    s     0.205282    0.899222    0.352021    0.000000
   230  O2    s     0.710861    0.805966    0.022107    0.000000
   231  O2    s     0.084030    0.273391    0.685051    0.000000
   232  O2    s     0.810851    0.089910    0.853386    0.000000
   233  O2    s     0.288747    0.191303    0.519080    0.000000
   234  O2    s     0.919078    0.708565    0.185189    0.000000
   235  O2    s     0.333082    0.654471    0.249758    0.000000
   236  O2    s     0.326754    0.645761    0.581473    0.000000
   237  O2    s     0.339081    0.664913    0.919318    0.000000
   238  O2    s     0.663044    0.313974    0.750126    0.000000
   239  O2    s     0.662701    0.330012    0.086033    0.000000
   240  O2    s     0.668416    0.318917    0.418834    0.000000
   241  O3    s     0.363877    0.319491    0.973851    0.000000
   242  O2    s     0.662366    0.030622    0.304072    0.000000
   243  O2    s     0.954034    0.597543    0.636497    0.000000
   244  O3    s     0.605856    0.655293    0.471952    0.000000
   245  O3    s     0.324351    0.946505    0.805416    0.000000
   246  O2    s     0.043385    0.379601    0.136204    0.000000
   247  O2    s     0.341991    0.369685    0.365530    0.000000
   248  O2    s     0.041174    0.660710    0.032243    0.000000
   249  O2    s     0.616796    0.932324    0.701073    0.000000
   250  O2    s     0.668758    0.613203    0.869083    0.000000
   251  O2    s     0.947023    0.308264    0.534200    0.000000
   252  O2    s     0.386038    0.039766    0.200690    0.000000
   253  O2    s     0.778683    0.308147    0.016440    0.000000
   254  O2    s     0.691747    0.458509    0.348728    0.000000
   255  O2    s     0.525214    0.193078    0.682909    0.000000
   256  O2    s     0.201960    0.664388    0.513969    0.000000
   257  O2    s     0.318922    0.522706    0.852139    0.000000
   258  O2    s     0.473788    0.778169    0.181547    0.000000
   259  O2    s     0.314601    0.771746    0.320054    0.000000
   260  O2    s     0.471788    0.686834    0.989092    0.000000
   261  O2    s     0.211417    0.511487    0.652710    0.000000
   262  O2    s     0.687641    0.205484    0.820319    0.000000
   263  O2    s     0.525627    0.298101    0.487383    0.000000
   264  O2    s     0.787252    0.469213    0.154653    0.000000
   265  O2    s     0.795076    0.531167    0.031695    0.000000
   266  O2    s     0.471113    0.257227    0.367538    0.000000
   267  O2    s     0.725901    0.176510    0.700664    0.000000
   268  O2    s     0.192089    0.442409    0.529944    0.000000
   269  O2    s     0.537132    0.724632    0.868829    0.000000
   270  O2    s     0.267280    0.792742    0.198027    0.000000
   271  O2    s     0.536206    0.783301    0.303293    0.000000
   272  O2    s     0.269692    0.466406    0.971585    0.000000
   273  O2    s     0.200804    0.721615    0.634093    0.000000
   274  O2    s     0.467766    0.188379    0.803741    0.000000
   275  O3    s     0.742718    0.508200    0.475480    0.000000
   276  O2    s     0.796221    0.258881    0.137466    0.000000
   277  O2    s     0.249863    0.323845    0.902311    0.000000
   278  O2    s     0.672745    0.906845    0.233822    0.000000
   279  O2    s     0.071411    0.730766    0.565520    0.000000
   280  O3    s     0.768106    0.667448    0.392651    0.000000
   281  O2    s     0.328599    0.066027    0.734199    0.000000
   282  O2    s     0.912678    0.241339    0.067142    0.000000
   283  O2    s     0.332983    0.237697    0.435270    0.000000
   284  O2    s     0.914590    0.668359    0.102041    0.000000
   285  O2    s     0.750885    0.064813    0.770223    0.000000
   286  O2    s     0.672733    0.748198    0.938585    0.000000
   287  O2    s     0.082999    0.308049    0.601928    0.000000
   288  O2    s     0.246084    0.905225    0.268925    0.000000
   289  O3    s     0.598695    0.571899    0.997955    0.000000
   290  O2    s     0.442479    0.019440    0.322246    0.000000
   291  O2    s     0.964452    0.388270    0.655001    0.000000
   292  O2    s     0.413408    0.431079    0.487800    0.000000
   293  O3    s     0.577340    0.962963    0.829395    0.000000
   294  O2    s     0.034172    0.588906    0.154755    0.000000
   295  O2    s     0.559839    0.572733    0.346379    0.000000
   296  O2    s     0.025826    0.440382    0.013705    0.000000
   297  O2    s     0.411004    0.949238    0.682678    0.000000
   298  O2    s     0.447021    0.406918    0.850089    0.000000
   299  O2    s     0.959695    0.526898    0.513882    0.000000
   300  O2    s     0.590165    0.025087    0.181673    0.000000
   301  O2    s     0.584070    0.153272    0.252396    0.000000
   302  O2    s     0.832533    0.394317    0.585258    0.000000
   303  O3    s     0.594502    0.407878    0.913681    0.000000
   304  O3    s     0.414094    0.803238    0.745821    0.000000
   305  O2    s     0.161117    0.579759    0.083623    0.000000
   306  O2    s     0.422649    0.568857    0.415538    0.000000
   307  F     s     0.458882    0.902242    0.253490    0.000000
   308  F     s     0.079454    0.518671    0.585918    0.000000
   309  F     s     0.481761    0.510145    0.931513    0.000000
   310  F     s     0.514797    0.021247    0.763612    0.000000
   311  F     s     0.917027    0.456003    0.086135    0.000000
   312  F     s     0.589186    0.489335    0.424673    0.000000
--------------------------------------------------------------------------------

  Final Cartesian lattice vectors (Angstroms) :

       12.029793    0.001705    0.000859
       -6.001985   10.307738    0.003335
       -0.035046    0.088009   29.535614


  Final cell parameters and derivatives :

--------------------------------------------------------------------------------
       a           12.029793 Angstrom     dE/de1(xx)    -0.000836 eV/strain
       b           11.927837 Angstrom     dE/de2(yy)    -0.001373 eV/strain
       c           29.535766 Angstrom     dE/de3(zz)    -0.002766 eV/strain
       alpha       89.802234 Degrees      dE/de4(yz)    -0.000066 eV/strain
       beta        90.063872 Degrees      dE/de5(xz)     0.000069 eV/strain
       gamma      120.203242 Degrees      dE/de6(xy)    -0.000014 eV/strain
--------------------------------------------------------------------------------

  Primitive cell volume =          3662.713345 Angs**3

  Density of cell =      1.746818 g/cm**3

  Non-primitive cell volume =          3662.713345 Angs**3


  Final internal derivatives :

--------------------------------------------------------------------------------
   No.  Atomic          a             b             c           Radius
        Label          (eV)          (eV)          (eV)        (eV/Angs)
--------------------------------------------------------------------------------
      1 Si    c       0.000000      0.000000      0.000000      0.000000
      2 Si    c       0.000264     -0.000383     -0.000180      0.000000
      3 Si    c      -0.000054      0.000069      0.000382      0.000000
      4 Si    c       0.000521     -0.000102     -0.000867      0.000000
      5 Si    c      -0.000347      0.000464      0.000180      0.000000
      6 Si    c       0.000080     -0.000176      0.000822      0.000000
      7 Si    c      -0.000185     -0.000260     -0.001305      0.000000
      8 Si    c      -0.000168      0.000254     -0.000732      0.000000
      9 Si    c      -0.000018      0.000084     -0.000055      0.000000
     10 Si    c       0.000046      0.000110     -0.000095      0.000000
     11 Si    c       0.000630     -0.000589      0.000405      0.000000
     12 Si    c      -0.000080      0.000039     -0.000335      0.000000
     13 Ge    c      -0.000568     -0.000104     -0.003408      0.000000
     14 Si    c       0.000031      0.000260     -0.001441      0.000000
     15 Si    c      -0.000014     -0.000049     -0.000013      0.000000
     16 Si    c      -0.000678      0.000581      0.000766      0.000000
     17 Ge    c      -0.000077     -0.000140     -0.000249      0.000000
     18 Si    c       0.000085      0.000035      0.000115      0.000000
     19 Si    c      -0.000285      0.000284     -0.000155      0.000000
     20 Si    c      -0.000338      0.000255      0.000560      0.000000
     21 Si    c      -0.000080      0.000004      0.000595      0.000000
     22 Si    c       0.000169     -0.000408      0.001048      0.000000
     23 Si    c      -0.000227     -0.000215     -0.000731      0.000000
     24 Si    c       0.000123      0.000099      0.001128      0.000000
     25 Si    c      -0.000032     -0.000212      0.001068      0.000000
     26 Si    c       0.000080     -0.000049      0.000693      0.000000
     27 Si    c       0.000017      0.000169     -0.000081      0.000000
     28 Si    c       0.000134      0.000037      0.001588      0.000000
     29 Si    c      -0.000043      0.000026      0.000128      0.000000
     30 Si    c      -0.000304      0.000236      0.000532      0.000000
     31 Si    c      -0.000023     -0.000145     -0.000778      0.000000
     32 Si    c      -0.000085      0.000005     -0.000312      0.000000
     33 Si    c       0.000320     -0.000178     -0.000142      0.000000
     34 Si    c       0.000308      0.000292     -0.001322      0.000000
     35 Si    c      -0.000003     -0.000047      0.000034      0.000000
     36 Si    c      -0.000533      0.000182     -0.000366      0.000000
     37 Si    c      -0.000272     -0.000141     -0.000915      0.000000
     38 Si    c       0.000236     -0.000058     -0.000726      0.000000
     39 Si    c       0.000047      0.000024      0.000005      0.000000
     40 Ge    c       0.000321      0.000183     -0.000780      0.000000
     41 Si    c      -0.000062      0.000002     -0.000119      0.000000
     42 Si    c      -0.000120      0.000099     -0.000691      0.000000
     43 Si    c      -0.000137     -0.000051      0.000578      0.000000
     44 Si    c       0.000197     -0.000321     -0.000487      0.000000
     45 Si    c       0.000058     -0.000046     -0.000055      0.000000
     46 Si    c       0.000015      0.000277      0.000587      0.000000
     47 Si    c      -0.000019     -0.000153     -0.000038      0.000000
     48 Si    c      -0.000184      0.000077      0.000664      0.000000
     49 Si    c      -0.000322     -0.000064     -0.002589      0.000000
     50 Si    c       0.000466      0.000052     -0.001434      0.000000
     51 Si    c      -0.000020      0.000032     -0.000647      0.000000
     52 Si    c       0.000103     -0.000155     -0.000677      0.000000
     53 Si    c      -0.000154     -0.000062     -0.000126      0.000000
     54 Si    c       0.000125      0.000074     -0.001057      0.000000
     55 Si    c       0.000127     -0.000038      0.000881      0.000000
     56 Si    c      -0.000285     -0.000027      0.002799      0.000000
     57 Si    c       0.000139      0.000004      0.000905      0.000000
     58 Si    c      -0.000114     -0.000001      0.000508      0.000000
     59 Si    c      -0.000055      0.000053     -0.000730      0.000000
     60 Si    c      -0.000361      0.000250      0.002443      0.000000
     61 O2    c       0.001064      0.000201     -0.001722      0.000000
     62 O2    c      -0.000379     -0.000124     -0.000804      0.000000
     63 O2    c       0.000014     -0.000012     -0.000053      0.000000
     64 O2    c       0.000169      0.000203      0.000640      0.000000
     65 O2    c       0.000342      0.000136     -0.000498      0.000000
     66 O2    c      -0.000006     -0.000053     -0.000197      0.000000
     67 O2    c       0.000240     -0.000149      0.000314      0.000000
     68 O2    c      -0.000004      0.000035      0.000047      0.000000
     69 O2    c       0.000164     -0.000083     -0.000326      0.000000
     70 O2    c      -0.000245      0.000149      0.000413      0.000000
     71 O2    c       0.000110      0.000001     -0.000202      0.000000
     72 O2    c      -0.000337      0.000529     -0.000608      0.000000
     73 O3    c       0.001407     -0.000593      0.003248      0.000000
     74 O2    c      -0.000001      0.000017     -0.000054      0.000000
     75 O2    c      -0.000282      0.000329      0.000651      0.000000
     76 O2    c       0.000169     -0.000530     -0.000194      0.000000
     77 O2    c       0.000004      0.000047      0.000114      0.000000
     78 O3    c       0.000641     -0.000804      0.001352      0.000000
     79 O2    c       0.000725      0.000295     -0.000223      0.000000
     80 O2    c      -0.000065      0.000039     -0.000124      0.000000
     81 O2    c       0.000016      0.000008     -0.000015      0.000000
     82 O3    c       0.000304      0.000002     -0.000606      0.000000
     83 O2    c      -0.000044      0.000043     -0.000101      0.000000
     84 O2    c       0.000050     -0.000295      0.000070      0.000000
     85 O2    c      -0.000015     -0.000099      0.000314      0.000000
     86 O2    c       0.000767     -0.000943     -0.000480      0.000000
     87 O2    c      -0.000125      0.000048      0.000027      0.000000
     88 O2    c       0.000020      0.000038      0.000239      0.000000
     89 O2    c       0.000329     -0.000339      0.000195      0.000000
     90 O2    c       0.000243     -0.000143      0.000104      0.000000
     91 O2    c       0.000078     -0.000271     -0.001107      0.000000
     92 O2    c       0.000140     -0.000197      0.001026      0.000000
     93 O2    c       0.000025      0.000323      0.002131      0.000000
     94 O2    c      -0.000086      0.000048     -0.000538      0.000000
     95 O2    c      -0.000181      0.000019      0.000003      0.000000
     96 O2    c      -0.000035     -0.000013      0.000108      0.000000
     97 O2    c      -0.000354      0.000410      0.000349      0.000000
     98 O2    c       0.000057      0.000058     -0.000121      0.000000
     99 O2    c       0.000011     -0.000012      0.000020      0.000000
    100 O2    c      -0.000508      0.000611     -0.000145      0.000000
    101 O2    c      -0.000017     -0.000108     -0.000070      0.000000
    102 O2    c      -0.000013     -0.000022      0.000008      0.000000
    103 O2    c      -0.000075      0.000153     -0.000263      0.000000
    104 O2    c      -0.001072      0.000224     -0.000767      0.000000
    105 O2    c       0.000001     -0.000079      0.000001      0.000000
    106 O2    c      -0.000069     -0.000037     -0.000248      0.000000
    107 O2    c      -0.000332     -0.000087      0.000318      0.000000
    108 O2    c       0.000001      0.000058     -0.000006      0.000000
    109 O2    c       0.000069      0.000296      0.000845      0.000000
    110 O2    c      -0.000032     -0.000003     -0.000094      0.000000
    111 O2    c       0.000211     -0.000212     -0.000240      0.000000
    112 O2    c       0.000005     -0.000104     -0.000018      0.000000
    113 O2    c       0.000101      0.000031      0.000644      0.000000
    114 O2    c      -0.000176      0.000217      0.000740      0.000000
    115 O3    c       0.000186     -0.000176      0.000107      0.000000
    116 O2    c      -0.000038      0.000057     -0.000070      0.000000
    117 O2    c       0.000004      0.000013      0.000020      0.000000
    118 O3    c      -0.000059      0.000074      0.000013      0.000000
    119 O3    c       0.000064     -0.000044     -0.000132      0.000000
    120 O2    c      -0.000005     -0.000033      0.000016      0.000000
    121 O2    c      -0.000022     -0.000008      0.000072      0.000000
    122 O2    c      -0.000161     -0.000039      0.000198      0.000000
    123 O2    c       0.000004      0.000016      0.000095      0.000000
    124 O2    c       0.000068     -0.000059     -0.000107      0.000000
    125 O2    c      -0.000064      0.000075      0.000044      0.000000
    126 O2    c      -0.000025      0.000011      0.000005      0.000000
    127 O2    c       0.000584     -0.000105      0.000479      0.000000
    128 O2    c       0.000002      0.000059      0.000012      0.000000
    129 O2    c      -0.000014     -0.000049      0.000007      0.000000
    130 O2    c      -0.000055      0.000042      0.000060      0.000000
    131 O2    c      -0.000061      0.000031     -0.000085      0.000000
    132 O2    c       0.000057      0.000071      0.000014      0.000000
    133 O2    c      -0.000045      0.000061     -0.000085      0.000000
    134 O2    c      -0.000231      0.000118      0.000080      0.000000
    135 O2    c       0.000006      0.000001     -0.000005      0.000000
    136 O2    c      -0.000001     -0.000021     -0.000046      0.000000
    137 O2    c       0.000059     -0.000029     -0.000046      0.000000
    138 O2    c       0.000043      0.000026     -0.000122      0.000000
    139 O2    c       0.000166      0.000444     -0.000194      0.000000
    140 O2    c       0.000010      0.000027      0.000084      0.000000
    141 O2    c      -0.000012      0.000008     -0.000026      0.000000
    142 O2    c      -0.000032      0.000032      0.000009      0.000000
    143 O2    c       0.000172     -0.000017      0.000041      0.000000
    144 O2    c       0.000003     -0.000017     -0.000001      0.000000
    145 O2    c       0.000022      0.000050     -0.000030      0.000000
    146 O2    c      -0.000036      0.000127      0.000069      0.000000
    147 O2    c       0.000001     -0.000021     -0.000086      0.000000
    148 O2    c       0.000042     -0.000004     -0.000020      0.000000
    149 O3    c      -0.000208      0.000121     -0.000656      0.000000
    150 O2    c       0.000118      0.000013     -0.000190      0.000000
    151 O2    c       0.000072      0.000263      0.000092      0.000000
    152 O2    c      -0.000194      0.000126     -0.000019      0.000000
    153 O2    c       0.000023     -0.000018     -0.000045      0.000000
    154 O3    c      -0.000394     -0.000532      0.000311      0.000000
    155 O2    c       0.000082     -0.000042     -0.000249      0.000000
    156 O2    c      -0.000068      0.000114      0.000737      0.000000
    157 O2    c       0.000127      0.000108      0.000077      0.000000
    158 O2    c       0.000063     -0.000090      0.000137      0.000000
    159 O2    c      -0.000221      0.000184      0.001074      0.000000
    160 O2    c      -0.000164     -0.000106      0.001084      0.000000
    161 O2    c      -0.000012      0.000004     -0.000096      0.000000
    162 O2    c       0.000290     -0.000128      0.000229      0.000000
    163 O3    c      -0.000012      0.000236      0.000847      0.000000
    164 O2    c       0.000005      0.000031      0.000020      0.000000
    165 O2    c      -0.000007      0.000006     -0.000049      0.000000
    166 O2    c       0.000028     -0.000052     -0.000059      0.000000
    167 O3    c       0.000003      0.000123     -0.000458      0.000000
    168 O2    c       0.000058     -0.000036     -0.000068      0.000000
    169 O2    c       0.000002     -0.000006      0.000079      0.000000
    170 O2    c      -0.000044     -0.000017     -0.000040      0.000000
    171 O2    c       0.000020     -0.000014      0.000047      0.000000
    172 O2    c       0.000017     -0.000001      0.000074      0.000000
    173 O2    c       0.000113     -0.000095      0.000182      0.000000
    174 O2    c       0.000039     -0.000088      0.000096      0.000000
    175 O2    c       0.000038     -0.000385      0.000598      0.000000
    176 O2    c       0.000040     -0.000026     -0.000136      0.000000
    177 O3    c      -0.000652      0.000891      0.000659      0.000000
    178 O3    c       0.000015      0.000360      0.000307      0.000000
    179 O2    c      -0.000107      0.000060     -0.000536      0.000000
    180 O2    c       0.000094     -0.000156      0.000163      0.000000
    181 F     c      -0.000063      0.000006     -0.000482      0.000000
    182 F     c       0.000028     -0.000008      0.000116      0.000000
    183 F     c       0.000066     -0.000270     -0.000093      0.000000
    184 F     c      -0.000004     -0.000009     -0.000134      0.000000
    185 F     c      -0.000059      0.000047     -0.000098      0.000000
    186 F     c      -0.000065      0.000054     -0.000223      0.000000
    187 O2    s       0.000147      0.000084      0.000485      0.000000
    188 O2    s       0.000186     -0.000125      0.000014      0.000000
    189 O2    s       0.000037      0.000089     -0.000065      0.000000
    190 O2    s      -0.000023     -0.000105     -0.000098      0.000000
    191 O2    s      -0.000069      0.000026     -0.000203      0.000000
    192 O2    s      -0.000030     -0.000133      0.000246      0.000000
    193 O2    s      -0.000100      0.000181     -0.000042      0.000000
    194 O2    s       0.000005     -0.000028      0.000031      0.000000
    195 O2    s      -0.000011     -0.000060     -0.000134      0.000000
    196 O2    s       0.000128     -0.000085     -0.000053      0.000000
    197 O2    s      -0.000009     -0.000062     -0.000120      0.000000
    198 O2    s       0.000054     -0.000128      0.000189      0.000000
    199 O3    s      -0.000918      0.000719     -0.002280      0.000000
    200 O2    s       0.000016     -0.000022      0.000070      0.000000
    201 O2    s       0.000073     -0.000133     -0.000236      0.000000
    202 O2    s      -0.000043      0.000259     -0.000279      0.000000
    203 O2    s      -0.000042      0.000029     -0.000019      0.000000
    204 O3    s      -0.000419      0.000309     -0.000472      0.000000
    205 O2    s      -0.000044      0.000018     -0.000315      0.000000
    206 O2    s       0.000071     -0.000148      0.000073      0.000000
    207 O2    s      -0.000001      0.000050     -0.000033      0.000000
    208 O3    s       0.000248     -0.000138      0.000853      0.000000
    209 O2    s      -0.000065      0.000073      0.000213      0.000000
    210 O2    s      -0.000081      0.000087     -0.000108      0.000000
    211 O2    s       0.000166     -0.000147     -0.000457      0.000000
    212 O2    s       0.000520     -0.000367      0.000561      0.000000
    213 O2    s       0.000090      0.000027      0.000060      0.000000
    214 O2    s      -0.000091      0.000027     -0.000492      0.000000
    215 O2    s       0.000107     -0.000096     -0.000214      0.000000
    216 O2    s      -0.000155     -0.000016      0.000335      0.000000
    217 O2    s      -0.000004      0.000215      0.000516      0.000000
    218 O2    s      -0.000199      0.000173     -0.000520      0.000000
    219 O2    s      -0.000071     -0.000052     -0.001095      0.000000
    220 O2    s      -0.000033      0.000011      0.000278      0.000000
    221 O2    s       0.000176      0.000167      0.001290      0.000000
    222 O2    s       0.000095     -0.000214     -0.000005      0.000000
    223 O2    s      -0.000432      0.000236     -0.000048      0.000000
    224 O2    s      -0.000082      0.000112      0.000229      0.000000
    225 O2    s      -0.000024     -0.000002      0.000107      0.000000
    226 O2    s      -0.000112      0.000025     -0.000429      0.000000
    227 O2    s       0.000027     -0.000072      0.000114      0.000000
    228 O2    s      -0.000039      0.000127      0.000375      0.000000
    229 O2    s      -0.000069      0.000069     -0.000041      0.000000
    230 O2    s      -0.000696     -0.000001      0.000072      0.000000
    231 O2    s       0.000000     -0.000036      0.000015      0.000000
    232 O2    s      -0.000088     -0.000011     -0.000337      0.000000
    233 O2    s      -0.000114      0.000133     -0.000264      0.000000
    234 O2    s       0.000058      0.000046      0.000027      0.000000
    235 O2    s       0.000004     -0.000176     -0.000477      0.000000
    236 O2    s       0.000054     -0.000064     -0.000099      0.000000
    237 O2    s      -0.000025      0.000030      0.000438      0.000000
    238 O2    s      -0.000001     -0.000015     -0.000015      0.000000
    239 O2    s       0.000094     -0.000118     -0.000190      0.000000
    240 O2    s       0.000025      0.000080     -0.000077      0.000000
    241 O3    s       0.000010      0.000045      0.000027      0.000000
    242 O2    s      -0.000003     -0.000138      0.000243      0.000000
    243 O2    s       0.000023     -0.000037     -0.000129      0.000000
    244 O3    s      -0.000077     -0.000162     -0.000048      0.000000
    245 O3    s      -0.000031      0.000028      0.000204      0.000000
    246 O2    s      -0.000031      0.000115     -0.000085      0.000000
    247 O2    s       0.000093      0.000004     -0.000045      0.000000
    248 O2    s       0.000071      0.000172     -0.000242      0.000000
    249 O2    s       0.000032      0.000027     -0.000050      0.000000
    250 O2    s      -0.000076      0.000042      0.000047      0.000000
    251 O2    s       0.000022      0.000012     -0.000078      0.000000
    252 O2    s       0.000012     -0.000050     -0.000025      0.000000
    253 O2    s      -0.000173     -0.000218     -0.000531      0.000000
    254 O2    s      -0.000078     -0.000108      0.000025      0.000000
    255 O2    s       0.000007     -0.000035      0.000165      0.000000
    256 O2    s       0.000043     -0.000095     -0.000055      0.000000
    257 O2    s       0.000049      0.000026     -0.000046      0.000000
    258 O2    s      -0.000023     -0.000001      0.000078      0.000000
    259 O2    s       0.000015      0.000140      0.000151      0.000000
    260 O2    s       0.000097     -0.000149     -0.000331      0.000000
    261 O2    s      -0.000038      0.000006     -0.000043      0.000000
    262 O2    s       0.000027     -0.000109     -0.000177      0.000000
    263 O2    s       0.000065      0.000049     -0.000049      0.000000
    264 O2    s       0.000108     -0.000114     -0.000035      0.000000
    265 O2    s       0.000073     -0.000344      0.001055      0.000000
    266 O2    s       0.000016     -0.000041     -0.000068      0.000000
    267 O2    s      -0.000033      0.000020      0.000103      0.000000
    268 O2    s       0.000049     -0.000023      0.000064      0.000000
    269 O2    s      -0.000075     -0.000005      0.000007      0.000000
    270 O2    s       0.000019      0.000037      0.000052      0.000000
    271 O2    s      -0.000000      0.000063     -0.000109      0.000000
    272 O2    s       0.000032      0.000120      0.000255      0.000000
    273 O2    s      -0.000007      0.000019      0.000164      0.000000
    274 O2    s      -0.000031      0.000053      0.000065      0.000000
    275 O3    s       0.000043     -0.000083      0.000389      0.000000
    276 O2    s      -0.000266      0.000013      0.000306      0.000000
    277 O2    s      -0.000034     -0.000318     -0.000122      0.000000
    278 O2    s       0.000051     -0.000130      0.000146      0.000000
    279 O2    s      -0.000072      0.000018      0.000033      0.000000
    280 O3    s       0.000283      0.000583     -0.000762      0.000000
    281 O2    s       0.000030      0.000003     -0.000134      0.000000
    282 O2    s       0.000062     -0.000131     -0.000681      0.000000
    283 O2    s      -0.000050     -0.000054      0.000071      0.000000
    284 O2    s      -0.000126      0.000151     -0.000303      0.000000
    285 O2    s      -0.000020     -0.000063     -0.000252      0.000000
    286 O2    s       0.000005     -0.000131     -0.000267      0.000000
    287 O2    s       0.000056     -0.000009      0.000112      0.000000
    288 O2    s      -0.000096      0.000018      0.000071      0.000000
    289 O3    s       0.000131     -0.000481     -0.000657      0.000000
    290 O2    s       0.000011     -0.000207     -0.000095      0.000000
    291 O2    s       0.000021      0.000028      0.000054      0.000000
    292 O2    s      -0.000000      0.000076      0.000177      0.000000
    293 O3    s       0.000027      0.000005      0.000312      0.000000
    294 O2    s      -0.000015     -0.000084     -0.000139      0.000000
    295 O2    s      -0.000070      0.000016     -0.000111      0.000000
    296 O2    s       0.000040     -0.000081      0.000178      0.000000
    297 O2    s      -0.000043      0.000141      0.000110      0.000000
    298 O2    s       0.000012      0.000006     -0.000379      0.000000
    299 O2    s      -0.000236      0.000184     -0.000306      0.000000
    300 O2    s      -0.000063      0.000027     -0.000088      0.000000
    301 O2    s      -0.000061      0.000257     -0.000454      0.000000
    302 O2    s      -0.000123      0.000071      0.000092      0.000000
    303 O3    s       0.000435     -0.000780     -0.000658      0.000000
    304 O3    s      -0.000003     -0.000340     -0.000541      0.000000
    305 O2    s       0.000053     -0.000114      0.000433      0.000000
    306 O2    s      -0.000018      0.000167     -0.000034      0.000000
    307 F     s       0.000101      0.000033      0.000873      0.000000
    308 F     s      -0.000019      0.000015     -0.000280      0.000000
    309 F     s       0.000072      0.000200      0.000668      0.000000
    310 F     s       0.000077      0.000172     -0.000133      0.000000
    311 F     s       0.000062     -0.000042      0.000189      0.000000
    312 F     s       0.000099     -0.000216      0.000184      0.000000
--------------------------------------------------------------------------------
  Maximum abs         0.001407      0.000943      0.003408      0.000000
--------------------------------------------------------------------------------


  Time to end of optimisation =       5.7135 seconds


  Peak dynamic memory used =      19.13 MB 


  Timing analysis for GULP :

--------------------------------------------------------------------------------
  Task / Subroutine                                          Time (Seconds)
--------------------------------------------------------------------------------
  Calculation of reciprocal space energy and derivatives          0.2514
  Calculation of real space energy and derivatives                4.7178
  Calculation of three-body energy and derivatives                0.5199
  Calculation of matrix inversion                                 0.1920
--------------------------------------------------------------------------------
  Total CPU time                                                  5.7136
--------------------------------------------------------------------------------


  Dump file written as out.res                                                 
  CIF file written as out.cif                                                 


  Job Finished at 03:42.38 30th November   2016                               

