********************************************************************************
*                       GENERAL UTILITY LATTICE PROGRAM                        *
*                                 Julian Gale                                  *
*                      Nanochemistry Research Institute                        *
*                           Department of Chemistry                            *
*                    Curtin University, Western Australia                      *
********************************************************************************
* Version = 4.2.0 * Last modified =  20th January 2014                         *
********************************************************************************
*  optimise     - perform optimisation run                                     *
*  conp         - constant pressure calculation                                *
*  qok          - running with non charge neutral cell is OK                   *
********************************************************************************

  Job Started  at 17:34.28 29th November   2016                               

  Number of CPUs =     1


  Total number of configurations input =   1

********************************************************************************
*  Input for Configuration =   1                                               *
********************************************************************************

  Formula = Si57Ge3O120F6                                               

  Number of irreducible atoms/shells =     312


  Total number atoms/shells =     312

  Dimensionality = 3               :  Bulk   


  Charge on solid   =  -6.000000 =>neutralising background added


  Cartesian lattice vectors (Angstroms) :

       11.966724    0.000000    0.000000
       -5.937086   10.379669    0.000000
       -0.167128    0.146560   29.459682

  Cell parameters (Angstroms/Degrees):

  a =      11.9667    alpha =  89.5912
  b =      11.9577    beta  =  90.3250
  c =      29.4605    gamma = 119.7692

  Initial cell volume =        3659.205790 Angs**3

  Temperature of configuration =  0.000     K 

  Pressure of configuration =         0.000 GPa 

  Fractional coordinates of asymmetric unit :

--------------------------------------------------------------------------------
   No.  Atomic       x           y          z         Charge      Occupancy
        Label      (Frac)      (Frac)     (Frac)        (e)         (Frac)  
--------------------------------------------------------------------------------
      1 Si    c    0.699600    0.375700    0.033890     4.00000    1.000000    
      2 Si    c    0.624103 *  0.322280 *  0.366978 *   4.00000    1.000000    
      3 Si    c    0.675921 *  0.292930 *  0.697677 *   4.00000    1.000000    
      4 Si    c    0.301046 *  0.614726 *  0.534653 *   4.00000    1.000000    
      5 Si    c    0.385646 *  0.676715 *  0.869053 *   4.00000    1.000000    
      6 Si    c    0.328115 *  0.703282 *  0.201130 *   4.00000    1.000000    
      7 Si    c    0.383857 *  0.703596 *  0.301884 *   4.00000    1.000000    
      8 Si    c    0.326205 *  0.617441 *  0.971167 *   4.00000    1.000000    
      9 Si    c    0.298300 *  0.670223 *  0.634873 *   4.00000    1.000000    
     10 Si    c    0.633772 *  0.299229 *  0.799049 *   4.00000    1.000000    
     11 Si    c    0.680042 *  0.375269 *  0.467599 *   4.00000    1.000000    
     12 Si    c    0.706425 *  0.325047 *  0.135756 *   4.00000    1.000000    
     13 Ge    c    0.532757 *  0.426712 *  0.965676 *   4.00000    1.000000    
     14 Si    c    0.586222 *  0.112696 *  0.302145 *   4.00000    1.000000    
     15 Si    c    0.887033 *  0.463568 *  0.633436 *   4.00000    1.000000    
     16 Si    c    0.474005 *  0.579455 *  0.469127 *   4.00000    1.000000    
     17 Si    c    0.427674 *  0.889271 *  0.802869 *   4.00000    1.000000    
     18 Si    c    0.116879 *  0.531092 *  0.136511 *   4.00000    1.000000    
     19 Si    c    0.420777 *  0.530028 *  0.367350 *   4.00000    1.000000    
     20 Si    c    0.113178 *  0.580331 *  0.035068 *   4.00000    1.000000    
     21 Si    c    0.465268 *  0.878936 *  0.701101 *   4.00000    1.000000    
     22 Si    c    0.604150 *  0.467315 *  0.866672 *   4.00000    1.000000    
     23 Si    c    0.890635 *  0.411099 *  0.532169 *   4.00000    1.000000    
     24 Si    c    0.533540 *  0.114117 *  0.200409 *   4.00000    1.000000    
     25 Ge    c    0.312855 *  0.392909 *  0.853614 *   4.00000    1.000000    
     26 Si    c    0.605507 *  0.904810 *  0.186257 *   4.00000    1.000000    
     27 Si    c    0.099080 *  0.691540 *  0.517879 *   4.00000    1.000000    
     28 Si    c    0.701089 *  0.601021 *  0.353116 *   4.00000    1.000000    
     29 Si    c    0.396782 *  0.091344 *  0.687217 *   4.00000    1.000000    
     30 Si    c    0.904911 *  0.301150 *  0.021524 *   4.00000    1.000000    
     31 Si    c    0.402815 *  0.298759 *  0.482461 *   4.00000    1.000000    
     32 Si    c    0.907900 *  0.602350 *  0.150340 *   4.00000    1.000000    
     33 Si    c    0.709646 *  0.095707 *  0.813684 *   4.00000    1.000000    
     34 Si    c    0.609678 *  0.700067 *  0.989034 *   4.00000    1.000000    
     35 Si    c    0.096571 *  0.393739 *  0.650459 *   4.00000    1.000000    
     36 Si    c    0.306672 *  0.904652 *  0.316491 *   4.00000    1.000000    
     37 Si    c    0.252214 *  0.328071 *  0.956580 *   4.00000    1.000000    
     38 Si    c    0.663879 *  0.911515 *  0.287016 *   4.00000    1.000000    
     39 Si    c    0.089016 *  0.740540 *  0.618333 *   4.00000    1.000000    
     40 Si    c    0.752398 *  0.656897 *  0.453840 *   4.00000    1.000000    
     41 Si    c    0.351041 *  0.091836 *  0.788469 *   4.00000    1.000000    
     42 Si    c    0.916238 *  0.253505 *  0.122127 *   4.00000    1.000000    
     43 Si    c    0.343250 *  0.250520 *  0.381853 *   4.00000    1.000000    
     44 Si    c    0.911544 *  0.657206 *  0.049328 *   4.00000    1.000000    
     45 Si    c    0.744452 *  0.080973 *  0.712401 *   4.00000    1.000000    
     46 Si    c    0.671197 *  0.744892 *  0.886122 *   4.00000    1.000000    
     47 Si    c    0.091690 *  0.333560 *  0.550217 *   4.00000    1.000000    
     48 Si    c    0.255896 *  0.912582 *  0.215779 *   4.00000    1.000000    
     49 Si    c    0.968746 *  0.120305 *  0.970708 *   4.00000    1.000000    
     50 Si    c    0.882028 *  0.848924 *  0.302428 *   4.00000    1.000000    
     51 Si    c    0.150760 *  0.019406 *  0.633903 *   4.00000    1.000000    
     52 Si    c    0.032416 *  0.874557 *  0.467903 *   4.00000    1.000000    
     53 Si    c    0.125715 *  0.143582 *  0.803586 *   4.00000    1.000000    
     54 Si    c    0.854867 *  0.974132 *  0.137237 *   4.00000    1.000000    
     55 Si    c    0.125808 *  0.971028 *  0.367161 *   4.00000    1.000000    
     56 Si    c    0.854750 *  0.881313 *  0.036906 *   4.00000    1.000000    
     57 Ge    c    0.026200 *  0.140456 *  0.700761 *   4.00000    1.000000    
     58 Si    c    0.885313 *  0.026764 *  0.868945 *   4.00000    1.000000    
     59 Si    c    0.155582 *  0.116996 *  0.532954 *   4.00000    1.000000    
     60 Si    c    0.975554 *  0.849093 *  0.201678 *   4.00000    1.000000    
     61 O2    c    0.932617 *  0.999167 *  0.002876 *   0.87073    1.000000    
     62 O2    c    0.003219 *  0.929386 *  0.335075 *   0.87073    1.000000    
     63 O3    c    0.064506 *  0.053587 *  0.664608 *   1.33043    1.000000    
     64 O2    c    0.074753 *  0.996284 *  0.500296 *   0.87073    1.000000    
     65 O2    c    0.010859 *  0.063888 *  0.839255 *   0.87073    1.000000    
     66 O2    c    0.932647 *  0.931447 *  0.170676 *   0.87073    1.000000    
     67 O2    c    0.344857 *  0.580382 *  0.334940 *   0.87073    1.000000    
     68 O2    c    0.417776 *  0.753900 *  0.669005 *   0.87073    1.000000    
     69 O2    c    0.238925 *  0.654545 *  0.002219 *   0.87073    1.000000    
     70 O2    c    0.678799 *  0.426274 *  0.829819 *   0.87073    1.000000    
     71 O2    c    0.582955 *  0.240294 *  0.168267 *   0.87073    1.000000    
     72 O2    c    0.765842 *  0.335199 *  0.499550 *   0.87073    1.000000    
     73 O3    c    0.581843 *  0.339208 *  0.001862 *   1.33043    1.000000    
     74 O2    c    0.758956 *  0.414714 *  0.664377 *   0.87073    1.000000    
     75 O2    c    0.662643 *  0.238186 *  0.334363 *   0.87073    1.000000    
     76 O2    c    0.423957 *  0.653704 *  0.502131 *   0.87073    1.000000    
     77 O2    c    0.243293 *  0.580516 *  0.168721 *   0.87073    1.000000    
     78 O2    c    0.354043 *  0.768290 *  0.837501 *   0.87073    1.000000    
     79 O2    c    0.120722 *  0.211089 *  0.976744 *   0.87073    1.000000    
     80 O2    c    0.791107 *  0.912500 *  0.306974 *   0.87073    1.000000    
     81 O2    c    0.089412 *  0.865665 *  0.638591 *   0.87073    1.000000    
     82 O2    c    0.878646 *  0.783188 *  0.473693 *   0.87073    1.000000    
     83 O2    c    0.229187 *  0.094149 *  0.811022 *   0.87073    1.000000    
     84 O2    c    0.916708 *  0.127601 *  0.142958 *   0.87073    1.000000    
     85 O2    c    0.216356 *  0.125296 *  0.361939 *   0.87073    1.000000    
     86 O2    c    0.910711 *  0.784518 *  0.029836 *   0.87073    1.000000    
     87 O3    c    0.863821 *  0.076159 *  0.690824 *   1.33043    1.000000    
     88 O2    c    0.791975 *  0.872877 *  0.865080 *   0.87073    1.000000    
     89 O2    c    0.091658 *  0.208109 *  0.529657 *   0.87073    1.000000    
     90 O2    c    0.129278 *  0.912430 *  0.195723 *   0.87073    1.000000    
     91 O2    c    0.936800 *  0.859612 *  0.252513 *   0.87073    1.000000    
     92 O2    c    0.145601 *  0.062136 *  0.582954 *   0.87073    1.000000    
     93 O2    c    0.928672 *  0.069169 *  0.919960 *   0.87073    1.000000    
     94 O3    c    0.062924 *  0.111732 *  0.754329 *   1.33043    1.000000    
     95 O2    c    0.874320 *  0.935957 *  0.087237 *   0.87073    1.000000    
     96 O2    c    0.072487 *  0.929406 *  0.417600 *   0.87073    1.000000    
     97 O2    c    0.898385 *  0.200901 *  0.983086 *   0.87073    1.000000    
     98 O2    c    0.799390 *  0.697788 *  0.314973 *   0.87073    1.000000    
     99 O2    c    0.300041 *  0.093078 *  0.649104 *   0.87073    1.000000    
    100 O2    c    0.101690 *  0.791136 *  0.479539 *   0.87073    1.000000    
    101 O3    c    0.203086 *  0.295017 *  0.812087 *   1.33043    1.000000    
    102 O2    c    0.702483 *  0.904084 *  0.147927 *   0.87073    1.000000    
    103 O2    c    0.208536 *  0.902410 *  0.354919 *   0.87073    1.000000    
    104 O2    c    0.702386 *  0.808454 *  0.025452 *   0.87073    1.000000    
    105 O3    c    0.101345 *  0.303539 *  0.690450 *   1.33043    1.000000    
    106 O2    c    0.809724 *  0.099158 *  0.851631 *   0.87073    1.000000    
    107 O2    c    0.306319 *  0.199455 *  0.520561 *   0.87073    1.000000    
    108 O2    c    0.905739 *  0.698717 *  0.188551 *   0.87073    1.000000    
    109 O2    c    0.327659 *  0.646102 *  0.251654 *   0.87073    1.000000    
    110 O2    c    0.357738 *  0.672118 *  0.584984 *   0.87073    1.000000    
    111 O2    c    0.333130 *  0.672938 *  0.920054 *   0.87073    1.000000    
    112 O2    c    0.683844 *  0.352004 *  0.747939 *   0.87073    1.000000    
    113 O2    c    0.650125 *  0.324876 *  0.085664 *   0.87073    1.000000    
    114 O2    c    0.680397 *  0.319756 *  0.417297 *   0.87073    1.000000    
    115 O3    c    0.366953 *  0.312734 *  0.976242 *   1.33043    1.000000    
    116 O2    c    0.673739 *  0.043621 *  0.305488 *   0.87073    1.000000    
    117 O2    c    0.956048 *  0.619434 *  0.636651 *   0.87073    1.000000    
    118 O2    c    0.630051 *  0.666621 *  0.472482 *   0.87073    1.000000    
    119 O2    c    0.342773 *  0.960272 *  0.807365 *   0.87073    1.000000    
    120 O2    c    0.048771 *  0.374998 *  0.140581 *   0.87073    1.000000    
    121 O2    c    0.333256 *  0.374013 *  0.364202 *   0.87073    1.000000    
    122 O2    c    0.045518 *  0.669082 *  0.031159 *   0.87073    1.000000    
    123 O2    c    0.620214 *  0.946895 *  0.697274 *   0.87073    1.000000    
    124 O2    c    0.686464 *  0.625535 *  0.868410 *   0.87073    1.000000    
    125 O2    c    0.960259 *  0.324014 *  0.530651 *   0.87073    1.000000    
    126 O2    c    0.377411 *  0.045247 *  0.197406 *   0.87073    1.000000    
    127 O2    c    0.772067 *  0.301420 *  0.014106 *   0.87073    1.000000    
    128 O2    c    0.699606 *  0.466404 *  0.345264 *   0.87073    1.000000    
    129 O2    c    0.530005 *  0.224165 *  0.677890 *   0.87073    1.000000    
    130 O2    c    0.232372 *  0.689455 *  0.511745 *   0.87073    1.000000    
    131 O3    c    0.310061 *  0.535842 *  0.848187 *   1.33043    1.000000    
    132 O2    c    0.471402 *  0.771448 *  0.178953 *   0.87073    1.000000    
    133 O2    c    0.308349 *  0.771271 *  0.324235 *   0.87073    1.000000    
    134 O2    c    0.470002 *  0.691575 *  0.992392 *   0.87073    1.000000    
    135 O2    c    0.230323 *  0.527496 *  0.657408 *   0.87073    1.000000    
    136 O2    c    0.707864 *  0.228779 *  0.821055 *   0.87073    1.000000    
    137 O2    c    0.537424 *  0.299573 *  0.490257 *   0.87073    1.000000    
    138 O2    c    0.775459 *  0.467840 *  0.158243 *   0.87073    1.000000    
    139 O2    c    0.788119 *  0.532715 *  0.029206 *   0.87073    1.000000    
    140 O2    c    0.468351 *  0.250023 *  0.362055 *   0.87073    1.000000    
    141 O2    c    0.744585 *  0.206511 *  0.691966 *   0.87073    1.000000    
    142 O2    c    0.219339 *  0.458713 *  0.531485 *   0.87073    1.000000    
    143 O2    c    0.539231 *  0.732719 *  0.867216 *   0.87073    1.000000    
    144 O2    c    0.255060 *  0.786517 *  0.196342 *   0.87073    1.000000    
    145 O2    c    0.539729 *  0.784774 *  0.306829 *   0.87073    1.000000    
    146 O2    c    0.261343 *  0.463083 *  0.972109 *   0.87073    1.000000    
    147 O2    c    0.215975 *  0.743819 *  0.638541 *   0.87073    1.000000    
    148 O2    c    0.478202 *  0.219548 *  0.805921 *   0.87073    1.000000    
    149 O2    c    0.754211 *  0.531142 *  0.473191 *   0.87073    1.000000    
    150 O2    c    0.789330 *  0.251658 *  0.141220 *   0.87073    1.000000    
    151 O3    c    0.237006 *  0.310078 *  0.902128 *   1.33043    1.000000    
    152 O2    c    0.680599 *  0.909445 *  0.232724 *   0.87073    1.000000    
    153 O2    c    0.091589 *  0.760002 *  0.564013 *   0.87073    1.000000    
    154 O2    c    0.770999 *  0.674782 *  0.399564 *   0.87073    1.000000    
    155 O2    c    0.326961 *  0.091613 *  0.734267 *   0.87073    1.000000    
    156 O2    c    0.913672 *  0.232231 *  0.067928 *   0.87073    1.000000    
    157 O2    c    0.327463 *  0.229685 *  0.436165 *   0.87073    1.000000    
    158 O2    c    0.910254 *  0.675337 *  0.103635 *   0.87073    1.000000    
    159 O2    c    0.776311 *  0.091465 *  0.766522 *   0.87073    1.000000    
    160 O2    c    0.680177 *  0.759847 *  0.940345 *   0.87073    1.000000    
    161 O2    c    0.090665 *  0.314317 *  0.604889 *   0.87073    1.000000    
    162 O2    c    0.236523 *  0.910141 *  0.270107 *   0.87073    1.000000    
    163 O3    c    0.602839 *  0.568086 *  0.000192 *   1.33043    1.000000    
    164 O2    c    0.445567 *  0.029763 *  0.325519 *   0.87073    1.000000    
    165 O2    c    0.969523 *  0.406085 *  0.658275 *   0.87073    1.000000    
    166 O2    c    0.416048 *  0.437542 *  0.491897 *   0.87073    1.000000    
    167 O2    c    0.572285 *  0.968499 *  0.823608 *   0.87073    1.000000    
    168 O2    c    0.034620 *  0.590273 *  0.159597 *   0.87073    1.000000    
    169 O2    c    0.561737 *  0.587275 *  0.344426 *   0.87073    1.000000    
    170 O2    c    0.031610 *  0.439405 *  0.011763 *   0.87073    1.000000    
    171 O2    c    0.406593 *  0.963358 *  0.678983 *   0.87073    1.000000    
    172 O3    c    0.463867 *  0.418251 *  0.843235 *   1.33043    1.000000    
    173 O2    c    0.975482 *  0.551885 *  0.508805 *   0.87073    1.000000    
    174 O2    c    0.590152 *  0.029664 *  0.177387 *   0.87073    1.000000    
    175 O2    c    0.586182 *  0.166256 *  0.251314 *   0.87073    1.000000    
    176 O2    c    0.835921 *  0.411254 *  0.582555 *   0.87073    1.000000    
    177 O3    c    0.604931 *  0.407191 *  0.914786 *   1.33043    1.000000    
    178 O2    c    0.416461 *  0.828278 *  0.752667 *   0.87073    1.000000    
    179 O2    c    0.170825 *  0.583367 *  0.085523 *   0.87073    1.000000    
    180 O2    c    0.421022 *  0.581846 *  0.418365 *   0.87073    1.000000    
    181 F     c    0.456500 *  0.905180 *  0.252005 *   0.56000    1.000000    
    182 F     c    0.096348 *  0.539690 *  0.585004 *   0.56000    1.000000    
    183 F     c    0.474031 *  0.515235 *  0.926610 *   0.56000    1.000000    
    184 F     c    0.550209 *  0.090166 *  0.751124 *   0.56000    1.000000    
    185 F     c    0.915064 *  0.454979 *  0.086160 *   0.56000    1.000000    
    186 F     c    0.551599 *  0.450231 *  0.418495 *   0.56000    1.000000    
    187 O2    s    0.927842 *  0.999504 *  0.003089 *  -2.87073    1.000000    
    188 O2    s    0.003470 *  0.925093 *  0.335037 *  -2.87073    1.000000    
    189 O3    s    0.070614 *  0.057468 *  0.664419 *  -3.33043    1.000000    
    190 O2    s    0.079036 *  0.996181 *  0.500326 *  -2.87073    1.000000    
    191 O2    s    0.009227 *  0.068290 *  0.838734 *  -2.87073    1.000000    
    192 O2    s    0.928693 *  0.926945 *  0.170398 *  -2.87073    1.000000    
    193 O2    s    0.356724 *  0.587757 *  0.334913 *  -2.87073    1.000000    
    194 O2    s    0.410416 *  0.758274 *  0.668823 *  -2.87073    1.000000    
    195 O2    s    0.235680 *  0.643217 *  0.002174 *  -2.87073    1.000000    
    196 O2    s    0.666834 *  0.417219 *  0.830263 *  -2.87073    1.000000    
    197 O2    s    0.590393 *  0.235819 *  0.168291 *  -2.87073    1.000000    
    198 O2    s    0.770001 *  0.347133 *  0.499656 *  -2.87073    1.000000    
    199 O3    s    0.591423 *  0.349241 *  0.002886 *  -3.33043    1.000000    
    200 O2    s    0.763395 *  0.407063 *  0.664682 *  -2.87073    1.000000    
    201 O2    s    0.650816 *  0.234028 *  0.334449 *  -2.87073    1.000000    
    202 O2    s    0.416367 *  0.642076 *  0.502131 *  -2.87073    1.000000    
    203 O2    s    0.239201 *  0.588199 *  0.168803 *  -2.87073    1.000000    
    204 O2    s    0.364984 *  0.770957 *  0.837310 *  -2.87073    1.000000    
    205 O2    s    0.117813 *  0.213509 *  0.973941 *  -2.87073    1.000000    
    206 O2    s    0.787657 *  0.905620 *  0.304456 *  -2.87073    1.000000    
    207 O2    s    0.095961 *  0.868782 *  0.635944 *  -2.87073    1.000000    
    208 O2    s    0.881919 *  0.779864 *  0.471074 *  -2.87073    1.000000    
    209 O2    s    0.231454 *  0.098938 *  0.807951 *  -2.87073    1.000000    
    210 O2    s    0.910028 *  0.124123 *  0.140226 *  -2.87073    1.000000    
    211 O2    s    0.219895 *  0.121940 *  0.364520 *  -2.87073    1.000000    
    212 O2    s    0.904838 *  0.781825 *  0.032544 *  -2.87073    1.000000    
    213 O3    s    0.865017 *  0.081913 *  0.693811 *  -3.33043    1.000000    
    214 O2    s    0.789157 *  0.875746 *  0.867688 *  -2.87073    1.000000    
    215 O2    s    0.098460 *  0.211450 *  0.532122 *  -2.87073    1.000000    
    216 O2    s    0.126074 *  0.905719 *  0.198409 *  -2.87073    1.000000    
    217 O2    s    0.934924 *  0.857197 *  0.252459 *  -2.87073    1.000000    
    218 O2    s    0.147330 *  0.063586 *  0.582990 *  -2.87073    1.000000    
    219 O2    s    0.928163 *  0.069994 *  0.919773 *  -2.87073    1.000000    
    220 O3    s    0.066335 *  0.117513 *  0.754891 *  -3.33043    1.000000    
    221 O2    s    0.869896 *  0.934016 *  0.087120 *  -2.87073    1.000000    
    222 O2    s    0.073936 *  0.927855 *  0.417640 *  -2.87073    1.000000    
    223 O2    s    0.906660 *  0.202305 *  0.985625 *  -2.87073    1.000000    
    224 O2    s    0.798027 *  0.703884 *  0.317584 *  -2.87073    1.000000    
    225 O2    s    0.294345 *  0.085078 *  0.651511 *  -2.87073    1.000000    
    226 O2    s    0.094143 *  0.789699 *  0.482244 *  -2.87073    1.000000    
    227 O3    s    0.203496 *  0.287161 *  0.814285 *  -3.33043    1.000000    
    228 O2    s    0.708658 *  0.911521 *  0.150691 *  -2.87073    1.000000    
    229 O2    s    0.209709 *  0.909967 *  0.352315 *  -2.87073    1.000000    
    230 O2    s    0.708795 *  0.805018 *  0.022933 *  -2.87073    1.000000    
    231 O3    s    0.094753 *  0.298749 *  0.687512 *  -3.33043    1.000000    
    232 O2    s    0.807422 *  0.091036 *  0.849522 *  -2.87073    1.000000    
    233 O2    s    0.300095 *  0.200818 *  0.517974 *  -2.87073    1.000000    
    234 O2    s    0.913437 *  0.704995 *  0.186063 *  -2.87073    1.000000    
    235 O2    s    0.333460 *  0.657798 *  0.251655 *  -2.87073    1.000000    
    236 O2    s    0.345990 *  0.666143 *  0.584988 *  -2.87073    1.000000    
    237 O2    s    0.337847 *  0.667706 *  0.920006 *  -2.87073    1.000000    
    238 O2    s    0.677840 *  0.340429 *  0.748032 *  -2.87073    1.000000    
    239 O2    s    0.660983 *  0.329939 *  0.085838 *  -2.87073    1.000000    
    240 O2    s    0.674601 *  0.325717 *  0.417331 *  -2.87073    1.000000    
    241 O3    s    0.366061 *  0.322144 *  0.973392 *  -3.33043    1.000000    
    242 O2    s    0.663705 *  0.036926 *  0.303208 *  -2.87073    1.000000    
    243 O2    s    0.962797 *  0.615934 *  0.634395 *  -2.87073    1.000000    
    244 O2    s    0.626777 *  0.656689 *  0.470196 *  -2.87073    1.000000    
    245 O2    s    0.352540 *  0.966664 *  0.804893 *  -2.87073    1.000000    
    246 O2    s    0.041940 *  0.378343 *  0.138229 *  -2.87073    1.000000    
    247 O2    s    0.343283 *  0.377090 *  0.366386 *  -2.87073    1.000000    
    248 O2    s    0.038887 *  0.658775 *  0.033410 *  -2.87073    1.000000    
    249 O2    s    0.616976 *  0.953926 *  0.699310 *  -2.87073    1.000000    
    250 O2    s    0.676900 *  0.622797 *  0.870131 *  -2.87073    1.000000    
    251 O2    s    0.966809 *  0.333998 *  0.532866 *  -2.87073    1.000000    
    252 O2    s    0.380713 *  0.038437 *  0.199645 *  -2.87073    1.000000    
    253 O2    s    0.779394 *  0.308901 *  0.016963 *  -2.87073    1.000000    
    254 O2    s    0.691964 *  0.465714 *  0.348368 *  -2.87073    1.000000    
    255 O2    s    0.531169 *  0.217371 *  0.680961 *  -2.87073    1.000000    
    256 O2    s    0.225351 *  0.681986 *  0.514779 *  -2.87073    1.000000    
    257 O3    s    0.317971 *  0.538855 *  0.850740 *  -3.33043    1.000000    
    258 O2    s    0.470844 *  0.778494 *  0.182021 *  -2.87073    1.000000    
    259 O2    s    0.315937 *  0.778385 *  0.321089 *  -2.87073    1.000000    
    260 O2    s    0.469221 *  0.684680 *  0.989800 *  -2.87073    1.000000    
    261 O2    s    0.223343 *  0.528330 *  0.654277 *  -2.87073    1.000000    
    262 O2    s    0.700406 *  0.221925 *  0.817974 *  -2.87073    1.000000    
    263 O2    s    0.537929 *  0.307250 *  0.487087 *  -2.87073    1.000000    
    264 O2    s    0.782353 *  0.467384 *  0.155081 *  -2.87073    1.000000    
    265 O2    s    0.793308 *  0.531079 *  0.031875 *  -2.87073    1.000000    
    266 O2    s    0.470999 *  0.257700 *  0.364687 *  -2.87073    1.000000    
    267 O2    s    0.737181 *  0.202036 *  0.694751 *  -2.87073    1.000000    
    268 O2    s    0.214027 *  0.461566 *  0.533832 *  -2.87073    1.000000    
    269 O2    s    0.537210 *  0.728014 *  0.869453 *  -2.87073    1.000000    
    270 O2    s    0.262919 *  0.791618 *  0.198934 *  -2.87073    1.000000    
    271 O2    s    0.536925 *  0.790106 *  0.304206 *  -2.87073    1.000000    
    272 O2    s    0.267656 *  0.466242 *  0.970429 *  -2.87073    1.000000    
    273 O2    s    0.210808 *  0.735532 *  0.635969 *  -2.87073    1.000000    
    274 O2    s    0.480475 *  0.213910 *  0.803378 *  -2.87073    1.000000    
    275 O2    s    0.746261 *  0.528582 *  0.470565 *  -2.87073    1.000000    
    276 O2    s    0.794560 *  0.259583 *  0.138615 *  -2.87073    1.000000    
    277 O3    s    0.244805 *  0.318634 *  0.903240 *  -3.33043    1.000000    
    278 O2    s    0.670965 *  0.909185 *  0.233625 *  -2.87073    1.000000    
    279 O2    s    0.092082 *  0.750698 *  0.564944 *  -2.87073    1.000000    
    280 O2    s    0.761682 *  0.665142 *  0.400491 *  -2.87073    1.000000    
    281 O2    s    0.336648 *  0.091634 *  0.735055 *  -2.87073    1.000000    
    282 O2    s    0.913064 *  0.241653 *  0.068820 *  -2.87073    1.000000    
    283 O2    s    0.337062 *  0.239163 *  0.435268 *  -2.87073    1.000000    
    284 O2    s    0.910153 *  0.665733 *  0.102841 *  -2.87073    1.000000    
    285 O2    s    0.766239 *  0.090921 *  0.765957 *  -2.87073    1.000000    
    286 O2    s    0.672248 *  0.752294 *  0.939230 *  -2.87073    1.000000    
    287 O2    s    0.091314 *  0.324201 *  0.603876 *  -2.87073    1.000000    
    288 O2    s    0.245970 *  0.909834 *  0.269251 *  -2.87073    1.000000    
    289 O3    s    0.598543 *  0.572698 *  0.996596 *  -3.33043    1.000000    
    290 O2    s    0.445274 *  0.024775 *  0.322118 *  -2.87073    1.000000    
    291 O2    s    0.974620 *  0.410863 *  0.654879 *  -2.87073    1.000000    
    292 O2    s    0.420858 *  0.437443 *  0.488492 *  -2.87073    1.000000    
    293 O2    s    0.571769 *  0.973811 *  0.820383 *  -2.87073    1.000000    
    294 O2    s    0.029433 *  0.585250 *  0.156201 *  -2.87073    1.000000    
    295 O2    s    0.562048 *  0.582590 *  0.347775 *  -2.87073    1.000000    
    296 O2    s    0.026621 *  0.439461 *  0.015202 *  -2.87073    1.000000    
    297 O2    s    0.411871 *  0.968444 *  0.682217 *  -2.87073    1.000000    
    298 O3    s    0.463689 *  0.420679 *  0.846297 *  -3.33043    1.000000    
    299 O2    s    0.980164 *  0.552284 *  0.512223 *  -2.87073    1.000000    
    300 O2    s    0.585728 *  0.024812 *  0.180752 *  -2.87073    1.000000    
    301 O2    s    0.580732 *  0.155264 *  0.251350 *  -2.87073    1.000000    
    302 O2    s    0.846966 *  0.416721 *  0.582655 *  -2.87073    1.000000    
    303 O3    s    0.600035 *  0.414715 *  0.913125 *  -3.33043    1.000000    
    304 O2    s    0.422559 *  0.839666 *  0.752567 *  -2.87073    1.000000    
    305 O2    s    0.159357 *  0.577701 *  0.085526 *  -2.87073    1.000000    
    306 O2    s    0.426487 *  0.576274 *  0.418383 *  -2.87073    1.000000    
    307 F     s    0.456332 *  0.904818 *  0.252077 *  -1.56000    1.000000    
    308 F     s    0.096609 *  0.539731 *  0.585126 *  -1.56000    1.000000    
    309 F     s    0.477256 *  0.509214 *  0.928723 *  -1.56000    1.000000    
    310 F     s    0.550181 *  0.090177 *  0.751200 *  -1.56000    1.000000    
    311 F     s    0.915684 *  0.455153 *  0.086226 *  -1.56000    1.000000    
    312 F     s    0.551801 *  0.450031 *  0.418575 *  -1.56000    1.000000    
--------------------------------------------------------------------------------



********************************************************************************
*  General input information                                                   *
********************************************************************************

  Species output for all configurations : 

--------------------------------------------------------------------------------
  Species    Type    Atomic    Atomic    Charge       Radii (Angs)     Library
                     Number     Mass       (e)     Cova   Ionic  VDW   Symbol
--------------------------------------------------------------------------------
    Si       Core       14      28.09   4.000000   1.200  0.000  2.100          
    O1       Core        8      16.00   1.733957   0.730  0.000  1.360          
    O1       Shell       8       0.00  -3.733957   0.730  0.000  1.360          
    O2       Core        8      16.00   0.870733   0.730  0.000  1.360          
    O2       Shell       8       0.00  -2.870733   0.730  0.000  1.360          
    O3       Core        8      16.00   1.330431   0.730  0.000  1.360          
    O3       Shell       8       0.00  -3.330431   0.730  0.000  1.360          
    F        Core        9      19.00   0.560000   0.710  0.000  1.300          
    F        Shell       9       0.00  -1.560000   0.710  0.000  1.300          
    Ge       Core       32      72.61   4.000000   1.170  0.000  1.750          
--------------------------------------------------------------------------------


  Lattice summation method               =    Ewald          (3-D)
                                         =    Parry          (2-D)
                                         =    Saunders et al (1-D)
  Accuracy factor for lattice sums       =   12.000


  Time limit = Infinity

  Maximum range for interatomic potentials =        16.000000 Angstroms

  Taper potentials to zero over   1.0000 Angstroms using polynomial

  General interatomic potentials :

--------------------------------------------------------------------------------
Atom  Types   Potential         A         B         C         D     Cutoffs(Ang)
  1     2                                                            Min    Max 
--------------------------------------------------------------------------------
Si   c O1   s Buckingham    0.132E+04 0.318      10.1      0.00     0.000 16.000
Si   c O2   s Buckingham    0.132E+04 0.318      10.1      0.00     0.000 16.000
Si   c O3   s Buckingham    0.132E+04 0.318      10.1      0.00     0.000 16.000
Ge   c O1   s Buckingham    0.150E+04 0.326      16.8      0.00     0.000 16.000
Ge   c O2   s Buckingham    0.150E+04 0.326      16.8      0.00     0.000 16.000
Ge   c O3   s Buckingham    0.150E+04 0.326      16.8      0.00     0.000 16.000
O1   s O1   s Buckingham    0.228E+05 0.149      10.9      0.00     0.000 16.000
O1   s O2   s Buckingham    0.228E+05 0.149      10.9      0.00     0.000 16.000
O1   s O3   s Buckingham    0.228E+05 0.149      10.9      0.00     0.000 16.000
O2   s O2   s Buckingham    0.228E+05 0.149      10.9      0.00     0.000 16.000
O2   s O3   s Buckingham    0.228E+05 0.149      10.9      0.00     0.000 16.000
O3   s O3   s Buckingham    0.228E+05 0.149      10.9      0.00     0.000 16.000
Si   c F    s Buckingham     977.     0.282      0.00      0.00     0.000 16.000
Ge   c F    s Buckingham     681.     0.320      0.00      0.00     0.000 16.000
F    s F    s Buckingham     540.     0.262      0.00      0.00     0.000 16.000
O1   s F    s Buckingham    0.168E+04 0.268      0.00      0.00     0.000 16.000
O2   s F    s Buckingham    0.168E+04 0.268      0.00      0.00     0.000 16.000
O3   s F    s Buckingham    0.168E+04 0.268      0.00      0.00     0.000 16.000
O2   c O2   s Spring (c-s)   76.0      0.00      0.00      0.00     0.000  0.800
O3   c O3   s Spring (c-s)   128.      0.00      0.00      0.00     0.000  0.800
O1   c O1   s Spring (c-s)   180.      0.00      0.00      0.00     0.000  0.800
F    c F    s Spring (c-s)   33.5      0.00      0.00      0.00     0.000  0.800
--------------------------------------------------------------------------------

  General Three-body potentials :

  Harmonic form:

--------------------------------------------------------------------------------
Atom    Atom    Atom           Force Constants            Theta     Cutoffs  
  1       2       3     (eVrad**-2/eVrad**-3/eVrad**-4)   (deg)  1-2  1-3  2-3
--------------------------------------------------------------------------------
Si    c O1    s O1    s  1.261        0.0000    0.0000   109.470 0.00 0.00 0.00
                                                                 1.90 1.90 3.50
Si    c O1    s O2    s  1.261        0.0000    0.0000   109.470 0.00 0.00 0.00
                                                                 1.90 1.90 3.50
Si    c O2    s O2    s  1.261        0.0000    0.0000   109.470 0.00 0.00 0.00
                                                                 1.90 1.90 3.50
--------------------------------------------------------------------------------

********************************************************************************
*  Output for configuration   1                                                *
********************************************************************************


  Components of energy : 

--------------------------------------------------------------------------------
  Interatomic potentials     =        2061.73216927 eV
  Three-body potentials      =           0.43742721 eV
  Monopole - monopole (real) =       -6611.17496876 eV
  Monopole - monopole (recip)=       -3170.64736086 eV
  Monopole - monopole (total)=       -9781.82232962 eV
  Neutralising energy        =          -6.45861901 eV
--------------------------------------------------------------------------------
  Total lattice energy       =       -7726.11135216 eV
--------------------------------------------------------------------------------
  Total lattice energy       =         -745451.6411 kJ/(mole unit cells)
--------------------------------------------------------------------------------


  Number of variables =      939

  Maximum number of calculations  =          1000
  Maximum Hessian update interval =            10
  Maximum step size               =   1.000000000
  Maximum parameter tolerance     =   0.000010000
  Maximum function  tolerance     =   0.000010000
  Maximum gradient  tolerance     =   0.001000000
  Maximum gradient  component     =   0.010000000

  Symmetry not applied to optimisation

  Cell parameters to be optimised using strains

  Newton-Raphson optimiser to be used

  BFGS hessian update to be used

  Dumpfile to be written after every cycle

  Start of bulk optimisation :

  Cycle:      0 Energy:     -7726.111352  Gnorm:      0.000307  CPU:    1.067
  ** Hessian calculated **
  Cycle:      1 Energy:     -7726.119118  Gnorm:      0.000693  CPU:    2.646
  Cycle:      2 Energy:     -7726.119131  Gnorm:      0.000025  CPU:    4.031


  **** Optimisation achieved ****


  Final energy =   -7726.11913133 eV
  Final Gnorm  =       0.00000486

  Components of energy : 

--------------------------------------------------------------------------------
  Interatomic potentials     =        2061.71900430 eV
  Three-body potentials      =           0.44091690 eV
  Monopole - monopole (real) =       -6611.21685020 eV
  Monopole - monopole (recip)=       -3170.60367187 eV
  Monopole - monopole (total)=       -9781.82052207 eV
  Neutralising energy        =          -6.45853046 eV
--------------------------------------------------------------------------------
  Total lattice energy       =       -7726.11913133 eV
--------------------------------------------------------------------------------
  Total lattice energy       =         -745452.3916 kJ/(mole unit cells)
--------------------------------------------------------------------------------

  Final fractional coordinates of atoms :

--------------------------------------------------------------------------------
   No.  Atomic        x           y          z          Radius
        Label       (Frac)      (Frac)     (Frac)       (Angs) 
--------------------------------------------------------------------------------
     1  Si    c     0.699600    0.375700    0.033890    0.000000
     2  Si    c     0.625768    0.318008    0.366858    0.000000
     3  Si    c     0.676482    0.287719    0.697382    0.000000
     4  Si    c     0.302138    0.609016    0.534290    0.000000
     5  Si    c     0.385946    0.671658    0.868518    0.000000
     6  Si    c     0.329824    0.700766    0.200690    0.000000
     7  Si    c     0.385511    0.699614    0.301455    0.000000
     8  Si    c     0.326027    0.613751    0.970681    0.000000
     9  Si    c     0.299522    0.664338    0.634492    0.000000
    10  Si    c     0.633631    0.293742    0.798728    0.000000
    11  Si    c     0.681150    0.370095    0.467489    0.000000
    12  Si    c     0.708100    0.323932    0.135681    0.000000
    13  Ge    c     0.530815    0.422370    0.965364    0.000000
    14  Si    c     0.588053    0.108874    0.302055    0.000000
    15  Si    c     0.888328    0.457904    0.633295    0.000000
    16  Si    c     0.475188    0.574127    0.468739    0.000000
    17  Si    c     0.428067    0.883944    0.802200    0.000000
    18  Si    c     0.118624    0.529137    0.135916    0.000000
    19  Si    c     0.422410    0.525587    0.366905    0.000000
    20  Si    c     0.113479    0.577963    0.034500    0.000000
    21  Si    c     0.466148    0.873592    0.700488    0.000000
    22  Si    c     0.603502    0.461493    0.866485    0.000000
    23  Si    c     0.891719    0.405572    0.532001    0.000000
    24  Si    c     0.535828    0.112135    0.200350    0.000000
    25  Ge    c     0.312193    0.387503    0.853238    0.000000
    26  Si    c     0.607257    0.902496    0.186182    0.000000
    27  Si    c     0.100192    0.685971    0.517590    0.000000
    28  Si    c     0.702917    0.596732    0.352813    0.000000
    29  Si    c     0.397654    0.086120    0.686731    0.000000
    30  Si    c     0.904103    0.299438    0.021029    0.000000
    31  Si    c     0.403796    0.293372    0.482260    0.000000
    32  Si    c     0.910178    0.600897    0.150031    0.000000
    33  Si    c     0.709818    0.090253    0.813069    0.000000
    34  Si    c     0.609100    0.695759    0.989003    0.000000
    35  Si    c     0.097934    0.387951    0.650163    0.000000
    36  Si    c     0.308589    0.900833    0.316278    0.000000
    37  Si    c     0.250643    0.323900    0.956335    0.000000
    38  Si    c     0.665576    0.907715    0.286848    0.000000
    39  Si    c     0.090324    0.734854    0.618064    0.000000
    40  Si    c     0.753607    0.651697    0.453602    0.000000
    41  Si    c     0.351045    0.086292    0.787929    0.000000
    42  Si    c     0.917365    0.251601    0.121575    0.000000
    43  Si    c     0.344862    0.246031    0.381581    0.000000
    44  Si    c     0.912982    0.656068    0.049091    0.000000
    45  Si    c     0.745221    0.075760    0.711834    0.000000
    46  Si    c     0.671283    0.739502    0.886034    0.000000
    47  Si    c     0.092809    0.327999    0.549915    0.000000
    48  Si    c     0.258070    0.910402    0.215606    0.000000
    49  Si    c     0.966797    0.117559    0.970420    0.000000
    50  Si    c     0.883722    0.845081    0.302241    0.000000
    51  Si    c     0.151433    0.013551    0.633651    0.000000
    52  Si    c     0.033575    0.869174    0.467633    0.000000
    53  Si    c     0.125390    0.137586    0.803410    0.000000
    54  Si    c     0.856491    0.972181    0.137029    0.000000
    55  Si    c     0.127424    0.966584    0.366967    0.000000
    56  Si    c     0.854174    0.878437    0.036718    0.000000
    57  Ge    c     0.026720    0.134407    0.700491    0.000000
    58  Si    c     0.885228    0.021584    0.868790    0.000000
    59  Si    c     0.156404    0.111368    0.532701    0.000000
    60  Si    c     0.977868    0.847486    0.201415    0.000000
    61  O2    c     0.930118    0.996675    0.002735    0.000000
    62  O2    c     0.004877    0.925173    0.334898    0.000000
    63  O3    c     0.065188    0.046917    0.664721    0.000000
    64  O2    c     0.075890    0.990680    0.500078    0.000000
    65  O2    c     0.011478    0.058397    0.839510    0.000000
    66  O2    c     0.935088    0.930220    0.170456    0.000000
    67  O2    c     0.346662    0.576098    0.334410    0.000000
    68  O2    c     0.419076    0.748477    0.668513    0.000000
    69  O2    c     0.238887    0.651605    0.001463    0.000000
    70  O2    c     0.678194    0.420349    0.829681    0.000000
    71  O2    c     0.585139    0.238730    0.168384    0.000000
    72  O2    c     0.766796    0.329821    0.499467    0.000000
    73  O3    c     0.581084    0.337010    0.002107    0.000000
    74  O2    c     0.760256    0.409653    0.664196    0.000000
    75  O2    c     0.664568    0.234037    0.334333    0.000000
    76  O2    c     0.424989    0.648219    0.501724    0.000000
    77  O2    c     0.245203    0.578527    0.168061    0.000000
    78  O2    c     0.354355    0.762980    0.836816    0.000000
    79  O2    c     0.118778    0.207848    0.976563    0.000000
    80  O2    c     0.792512    0.908302    0.306917    0.000000
    81  O2    c     0.090653    0.859894    0.638311    0.000000
    82  O2    c     0.879836    0.777883    0.473452    0.000000
    83  O2    c     0.229005    0.088182    0.810502    0.000000
    84  O2    c     0.918222    0.125758    0.142341    0.000000
    85  O2    c     0.217943    0.120842    0.361728    0.000000
    86  O2    c     0.911967    0.783234    0.029502    0.000000
    87  O3    c     0.864607    0.071050    0.690223    0.000000
    88  O2    c     0.792466    0.867569    0.865173    0.000000
    89  O2    c     0.092608    0.202580    0.529275    0.000000
    90  O2    c     0.131676    0.910938    0.195626    0.000000
    91  O2    c     0.938543    0.856934    0.252271    0.000000
    92  O2    c     0.145503    0.056352    0.582760    0.000000
    93  O2    c     0.927175    0.065444    0.919778    0.000000
    94  O3    c     0.061565    0.105285    0.754332    0.000000
    95  O2    c     0.874488    0.932879    0.087062    0.000000
    96  O2    c     0.073865    0.924469    0.417373    0.000000
    97  O2    c     0.896855    0.198824    0.982530    0.000000
    98  O2    c     0.801337    0.693799    0.314709    0.000000
    99  O2    c     0.300906    0.087709    0.648572    0.000000
   100  O2    c     0.102748    0.785583    0.479233    0.000000
   101  O3    c     0.202845    0.289085    0.811760    0.000000
   102  O2    c     0.704315    0.902068    0.147869    0.000000
   103  O2    c     0.210253    0.898065    0.354730    0.000000
   104  O2    c     0.701665    0.803996    0.025449    0.000000
   105  O3    c     0.102770    0.297491    0.690097    0.000000
   106  O2    c     0.809883    0.093658    0.850955    0.000000
   107  O2    c     0.307204    0.193835    0.520340    0.000000
   108  O2    c     0.908343    0.697290    0.188238    0.000000
   109  O2    c     0.329388    0.642943    0.251141    0.000000
   110  O2    c     0.358952    0.666175    0.584615    0.000000
   111  O2    c     0.332202    0.667462    0.919321    0.000000
   112  O2    c     0.683931    0.346703    0.747625    0.000000
   113  O2    c     0.651269    0.325006    0.085807    0.000000
   114  O2    c     0.681807    0.314982    0.417175    0.000000
   115  O3    c     0.365115    0.307557    0.975720    0.000000
   116  O2    c     0.675537    0.039747    0.305381    0.000000
   117  O2    c     0.957535    0.613739    0.636459    0.000000
   118  O2    c     0.631177    0.661341    0.472186    0.000000
   119  O2    c     0.342955    0.954706    0.806716    0.000000
   120  O2    c     0.050117    0.373001    0.139913    0.000000
   121  O2    c     0.334969    0.369571    0.363828    0.000000
   122  O2    c     0.046428    0.667376    0.030656    0.000000
   123  O2    c     0.621093    0.941736    0.696695    0.000000
   124  O2    c     0.685635    0.619790    0.868096    0.000000
   125  O2    c     0.961303    0.318456    0.530438    0.000000
   126  O2    c     0.379703    0.043107    0.197320    0.000000
   127  O2    c     0.771866    0.300970    0.014034    0.000000
   128  O2    c     0.701412    0.462091    0.345056    0.000000
   129  O2    c     0.530753    0.219125    0.677441    0.000000
   130  O2    c     0.233445    0.683851    0.511435    0.000000
   131  O3    c     0.311061    0.531146    0.847380    0.000000
   132  O2    c     0.473221    0.769342    0.178606    0.000000
   133  O2    c     0.310025    0.767229    0.323849    0.000000
   134  O2    c     0.469983    0.688826    0.991706    0.000000
   135  O2    c     0.231691    0.521666    0.657139    0.000000
   136  O2    c     0.707840    0.223193    0.820586    0.000000
   137  O2    c     0.538439    0.294246    0.490087    0.000000
   138  O2    c     0.777832    0.466535    0.158254    0.000000
   139  O2    c     0.788582    0.532307    0.029073    0.000000
   140  O2    c     0.470032    0.245637    0.361811    0.000000
   141  O2    c     0.745213    0.201392    0.691552    0.000000
   142  O2    c     0.220424    0.453032    0.531093    0.000000
   143  O2    c     0.539645    0.728231    0.867182    0.000000
   144  O2    c     0.257054    0.784342    0.196092    0.000000
   145  O2    c     0.541311    0.780712    0.306473    0.000000
   146  O2    c     0.261610    0.459451    0.972184    0.000000
   147  O2    c     0.217297    0.738046    0.638204    0.000000
   148  O2    c     0.478068    0.213884    0.805456    0.000000
   149  O2    c     0.755332    0.525938    0.473063    0.000000
   150  O2    c     0.790823    0.250229    0.140779    0.000000
   151  O3    c     0.235279    0.306276    0.901878    0.000000
   152  O2    c     0.682453    0.906332    0.232546    0.000000
   153  O2    c     0.092754    0.754298    0.563740    0.000000
   154  O2    c     0.772522    0.669973    0.399335    0.000000
   155  O2    c     0.327393    0.086320    0.733701    0.000000
   156  O2    c     0.913761    0.230538    0.067358    0.000000
   157  O2    c     0.328809    0.224796    0.435888    0.000000
   158  O2    c     0.912182    0.674214    0.103399    0.000000
   159  O2    c     0.776744    0.086129    0.765965    0.000000
   160  O2    c     0.680488    0.753953    0.940270    0.000000
   161  O2    c     0.092033    0.308612    0.604590    0.000000
   162  O2    c     0.238735    0.907294    0.269946    0.000000
   163  O3    c     0.600096    0.563006    0.000321    0.000000
   164  O2    c     0.447436    0.025718    0.325454    0.000000
   165  O2    c     0.970838    0.400236    0.658067    0.000000
   166  O2    c     0.417092    0.432206    0.491580    0.000000
   167  O2    c     0.572571    0.963000    0.822987    0.000000
   168  O2    c     0.036957    0.588777    0.159135    0.000000
   169  O2    c     0.563520    0.582900    0.344095    0.000000
   170  O2    c     0.031260    0.437276    0.011155    0.000000
   171  O2    c     0.407557    0.958201    0.678409    0.000000
   172  O3    c     0.462938    0.411681    0.843187    0.000000
   173  O2    c     0.976615    0.546335    0.508605    0.000000
   174  O2    c     0.592533    0.027789    0.177334    0.000000
   175  O2    c     0.588185    0.163314    0.251333    0.000000
   176  O2    c     0.837263    0.405719    0.582422    0.000000
   177  O3    c     0.603880    0.402055    0.914772    0.000000
   178  O2    c     0.417171    0.822976    0.752046    0.000000
   179  O2    c     0.171980    0.581107    0.084833    0.000000
   180  O2    c     0.422450    0.576959    0.417960    0.000000
   181  F     c     0.458736    0.902245    0.251792    0.000000
   182  F     c     0.097876    0.533902    0.584781    0.000000
   183  F     c     0.473176    0.510617    0.926246    0.000000
   184  F     c     0.550580    0.084916    0.750571    0.000000
   185  F     c     0.916530    0.454417    0.085782    0.000000
   186  F     c     0.553110    0.445365    0.418246    0.000000
   187  O2    s     0.925588    0.996927    0.002931    0.000000
   188  O2    s     0.005118    0.920889    0.334855    0.000000
   189  O3    s     0.071263    0.050951    0.664464    0.000000
   190  O2    s     0.080154    0.990611    0.500101    0.000000
   191  O2    s     0.009679    0.062771    0.838898    0.000000
   192  O2    s     0.931052    0.925616    0.170178    0.000000
   193  O2    s     0.358473    0.583473    0.334402    0.000000
   194  O2    s     0.411668    0.752814    0.668331    0.000000
   195  O2    s     0.235669    0.640253    0.001463    0.000000
   196  O2    s     0.666287    0.411368    0.830102    0.000000
   197  O2    s     0.592523    0.234252    0.168371    0.000000
   198  O2    s     0.770989    0.341765    0.499563    0.000000
   199  O3    s     0.590703    0.347180    0.003071    0.000000
   200  O2    s     0.764614    0.401923    0.664494    0.000000
   201  O2    s     0.652688    0.229894    0.334402    0.000000
   202  O2    s     0.417412    0.636577    0.501732    0.000000
   203  O2    s     0.241080    0.586142    0.168175    0.000000
   204  O2    s     0.365332    0.765689    0.836640    0.000000
   205  O2    s     0.115971    0.210276    0.973733    0.000000
   206  O2    s     0.789122    0.901497    0.304373    0.000000
   207  O2    s     0.097155    0.863012    0.635665    0.000000
   208  O2    s     0.883113    0.774567    0.470829    0.000000
   209  O2    s     0.231270    0.093017    0.807462    0.000000
   210  O2    s     0.911518    0.122270    0.139661    0.000000
   211  O2    s     0.221486    0.117483    0.364304    0.000000
   212  O2    s     0.905923    0.780384    0.032236    0.000000
   213  O3    s     0.865769    0.076714    0.693240    0.000000
   214  O2    s     0.789554    0.870449    0.867733    0.000000
   215  O2    s     0.099419    0.205898    0.531762    0.000000
   216  O2    s     0.128441    0.904150    0.198282    0.000000
   217  O2    s     0.936725    0.854512    0.252225    0.000000
   218  O2    s     0.147433    0.057815    0.582789    0.000000
   219  O2    s     0.926784    0.066219    0.919584    0.000000
   220  O3    s     0.065258    0.111146    0.754862    0.000000
   221  O2    s     0.870138    0.931093    0.086943    0.000000
   222  O2    s     0.075315    0.922923    0.417416    0.000000
   223  O2    s     0.905129    0.200146    0.985079    0.000000
   224  O2    s     0.799933    0.699864    0.317319    0.000000
   225  O2    s     0.295190    0.079679    0.651011    0.000000
   226  O2    s     0.095217    0.784158    0.481944    0.000000
   227  O3    s     0.203235    0.281292    0.813974    0.000000
   228  O2    s     0.710492    0.909510    0.150623    0.000000
   229  O2    s     0.211432    0.905663    0.352123    0.000000
   230  O2    s     0.708090    0.800733    0.022907    0.000000
   231  O3    s     0.096101    0.292715    0.687176    0.000000
   232  O2    s     0.807542    0.085544    0.848897    0.000000
   233  O2    s     0.300992    0.195220    0.517758    0.000000
   234  O2    s     0.915996    0.703568    0.185750    0.000000
   235  O2    s     0.335166    0.654592    0.251163    0.000000
   236  O2    s     0.347187    0.660229    0.584623    0.000000
   237  O2    s     0.337136    0.662449    0.919316    0.000000
   238  O2    s     0.677959    0.335139    0.747722    0.000000
   239  O2    s     0.662060    0.329917    0.085963    0.000000
   240  O2    s     0.676003    0.320967    0.417215    0.000000
   241  O3    s     0.364255    0.317105    0.972916    0.000000
   242  O2    s     0.665487    0.033052    0.303093    0.000000
   243  O2    s     0.964258    0.610247    0.634198    0.000000
   244  O2    s     0.627923    0.651413    0.469895    0.000000
   245  O2    s     0.352733    0.961144    0.804250    0.000000
   246  O2    s     0.043327    0.376379    0.137584    0.000000
   247  O2    s     0.344969    0.372649    0.366013    0.000000
   248  O2    s     0.039747    0.657074    0.032931    0.000000
   249  O2    s     0.617844    0.948747    0.698728    0.000000
   250  O2    s     0.676211    0.617110    0.869849    0.000000
   251  O2    s     0.967864    0.328450    0.532650    0.000000
   252  O2    s     0.382981    0.036301    0.199552    0.000000
   253  O2    s     0.779305    0.308282    0.016834    0.000000
   254  O2    s     0.693766    0.461433    0.348157    0.000000
   255  O2    s     0.531916    0.212305    0.680523    0.000000
   256  O2    s     0.226418    0.676375    0.514467    0.000000
   257  O3    s     0.318760    0.534027    0.849995    0.000000
   258  O2    s     0.472629    0.776317    0.181696    0.000000
   259  O2    s     0.317636    0.774356    0.320717    0.000000
   260  O2    s     0.469108    0.681682    0.989202    0.000000
   261  O2    s     0.224704    0.522501    0.653997    0.000000
   262  O2    s     0.700384    0.216386    0.817504    0.000000
   263  O2    s     0.538947    0.301931    0.486922    0.000000
   264  O2    s     0.784631    0.466066    0.155049    0.000000
   265  O2    s     0.793702    0.530430    0.031742    0.000000
   266  O2    s     0.472650    0.253309    0.364452    0.000000
   267  O2    s     0.737818    0.196882    0.694335    0.000000
   268  O2    s     0.215112    0.455894    0.533454    0.000000
   269  O2    s     0.537569    0.723364    0.869362    0.000000
   270  O2    s     0.264900    0.789397    0.198673    0.000000
   271  O2    s     0.538509    0.786068    0.303863    0.000000
   272  O2    s     0.267690    0.462541    0.970412    0.000000
   273  O2    s     0.212108    0.729761    0.635634    0.000000
   274  O2    s     0.480374    0.208286    0.802917    0.000000
   275  O2    s     0.747391    0.523380    0.470428    0.000000
   276  O2    s     0.796042    0.258130    0.138198    0.000000
   277  O3    s     0.243181    0.314670    0.902980    0.000000
   278  O2    s     0.672795    0.906083    0.233467    0.000000
   279  O2    s     0.093258    0.745011    0.564667    0.000000
   280  O2    s     0.763199    0.660343    0.400249    0.000000
   281  O2    s     0.337064    0.086324    0.734509    0.000000
   282  O2    s     0.913171    0.239915    0.068278    0.000000
   283  O2    s     0.338404    0.234270    0.435008    0.000000
   284  O2    s     0.912070    0.664583    0.102581    0.000000
   285  O2    s     0.766670    0.085587    0.765387    0.000000
   286  O2    s     0.672471    0.746631    0.939147    0.000000
   287  O2    s     0.092654    0.318498    0.603578    0.000000
   288  O2    s     0.248141    0.906952    0.269078    0.000000
   289  O3    s     0.596131    0.567895    0.996691    0.000000
   290  O2    s     0.447125    0.020763    0.322034    0.000000
   291  O2    s     0.975925    0.405037    0.654673    0.000000
   292  O2    s     0.421903    0.432082    0.488182    0.000000
   293  O2    s     0.572066    0.968351    0.819755    0.000000
   294  O2    s     0.031702    0.583711    0.155741    0.000000
   295  O2    s     0.563808    0.578217    0.347434    0.000000
   296  O2    s     0.026313    0.437376    0.014609    0.000000
   297  O2    s     0.412816    0.963249    0.681648    0.000000
   298  O3    s     0.462814    0.414281    0.846209    0.000000
   299  O2    s     0.981288    0.546734    0.512017    0.000000
   300  O2    s     0.588026    0.022899    0.180696    0.000000
   301  O2    s     0.582738    0.152326    0.251339    0.000000
   302  O2    s     0.848281    0.411173    0.582515    0.000000
   303  O3    s     0.599005    0.409566    0.913040    0.000000
   304  O2    s     0.423259    0.834371    0.751941    0.000000
   305  O2    s     0.160495    0.575462    0.084869    0.000000
   306  O2    s     0.427906    0.571388    0.417971    0.000000
   307  F     s     0.458606    0.901898    0.251864    0.000000
   308  F     s     0.098167    0.533933    0.584909    0.000000
   309  F     s     0.476449    0.504428    0.928441    0.000000
   310  F     s     0.550541    0.084931    0.750644    0.000000
   311  F     s     0.917204    0.454701    0.085844    0.000000
   312  F     s     0.553326    0.445165    0.418326    0.000000
--------------------------------------------------------------------------------

  Final Cartesian lattice vectors (Angstroms) :

       11.966120    0.002029   -0.000805
       -5.935026   10.379949    0.005318
       -0.169076    0.160509   29.458818


  Final cell parameters and derivatives :

--------------------------------------------------------------------------------
       a           11.966120 Angstrom     dE/de1(xx)    -0.000012 eV/strain
       b           11.956919 Angstrom     dE/de2(yy)     0.000025 eV/strain
       c           29.459740 Angstrom     dE/de3(zz)    -0.000355 eV/strain
       alpha       89.540292 Degrees      dE/de4(yz)    -0.000024 eV/strain
       beta        90.332635 Degrees      dE/de5(xz)    -0.000089 eV/strain
       gamma      119.750252 Degrees      dE/de6(xy)     0.000024 eV/strain
--------------------------------------------------------------------------------

  Primitive cell volume =          3659.356301 Angs**3

  Density of cell =      1.748420 g/cm**3

  Non-primitive cell volume =          3659.356301 Angs**3


  Final internal derivatives :

--------------------------------------------------------------------------------
   No.  Atomic          a             b             c           Radius
        Label          (eV)          (eV)          (eV)        (eV/Angs)
--------------------------------------------------------------------------------
      1 Si    c       0.000000      0.000000      0.000000      0.000000
      2 Si    c      -0.000022      0.000021      0.000086      0.000000
      3 Si    c      -0.000024      0.000104     -0.000065      0.000000
      4 Si    c       0.000024     -0.000014     -0.000013      0.000000
      5 Si    c      -0.000124      0.000162      0.000159      0.000000
      6 Si    c       0.000020     -0.000023      0.000028      0.000000
      7 Si    c      -0.000014     -0.000024     -0.000205      0.000000
      8 Si    c      -0.000118      0.000118      0.000093      0.000000
      9 Si    c       0.000045      0.000008      0.000146      0.000000
     10 Si    c      -0.000032      0.000029     -0.000074      0.000000
     11 Si    c       0.000004     -0.000020     -0.000020      0.000000
     12 Si    c      -0.000199      0.000099     -0.000652      0.000000
     13 Ge    c       0.000437     -0.000525     -0.000054      0.000000
     14 Si    c      -0.000037      0.000058     -0.000265      0.000000
     15 Si    c      -0.000069      0.000017      0.000114      0.000000
     16 Si    c       0.000001      0.000006     -0.000043      0.000000
     17 Si    c       0.000024     -0.000032      0.000018      0.000000
     18 Si    c       0.000009      0.000023     -0.000130      0.000000
     19 Si    c       0.000018     -0.000004      0.000068      0.000000
     20 Si    c      -0.000119      0.000037      0.000095      0.000000
     21 Si    c       0.000012     -0.000062     -0.000049      0.000000
     22 Si    c       0.000047     -0.000105      0.000787      0.000000
     23 Si    c      -0.000018      0.000014     -0.000024      0.000000
     24 Si    c      -0.000028      0.000111      0.000190      0.000000
     25 Ge    c       0.000081     -0.000166     -0.000598      0.000000
     26 Si    c      -0.000005     -0.000036      0.000347      0.000000
     27 Si    c      -0.000015      0.000006      0.000007      0.000000
     28 Si    c       0.000003      0.000020      0.000086      0.000000
     29 Si    c      -0.000045      0.000036      0.000058      0.000000
     30 Si    c      -0.000226      0.000285      0.000497      0.000000
     31 Si    c      -0.000010     -0.000009     -0.000069      0.000000
     32 Si    c      -0.000071      0.000010     -0.000261      0.000000
     33 Si    c       0.000031     -0.000055     -0.000140      0.000000
     34 Si    c       0.000099      0.000101     -0.000120      0.000000
     35 Si    c       0.000032     -0.000022      0.000068      0.000000
     36 Si    c      -0.000069      0.000042     -0.000166      0.000000
     37 Si    c      -0.000118     -0.000080     -0.000155      0.000000
     38 Si    c       0.000041     -0.000041     -0.000142      0.000000
     39 Si    c      -0.000032      0.000022      0.000006      0.000000
     40 Si    c      -0.000004      0.000006     -0.000067      0.000000
     41 Si    c      -0.000010      0.000010     -0.000077      0.000000
     42 Si    c      -0.000039      0.000027     -0.000574      0.000000
     43 Si    c      -0.000001     -0.000010      0.000037      0.000000
     44 Si    c       0.000169     -0.000361     -0.000015      0.000000
     45 Si    c       0.000016     -0.000031      0.000142      0.000000
     46 Si    c      -0.000005      0.000115     -0.000002      0.000000
     47 Si    c       0.000017     -0.000010     -0.000008      0.000000
     48 Si    c      -0.000036      0.000034      0.000193      0.000000
     49 Si    c      -0.000007     -0.000088     -0.001193      0.000000
     50 Si    c       0.000074     -0.000022     -0.000489      0.000000
     51 Si    c       0.000145     -0.000110      0.000012      0.000000
     52 Si    c      -0.000002      0.000005     -0.000068      0.000000
     53 Si    c       0.000047      0.000074      0.000247      0.000000
     54 Si    c       0.000117     -0.000023     -0.000520      0.000000
     55 Si    c      -0.000010     -0.000001      0.000119      0.000000
     56 Si    c      -0.000003     -0.000060      0.000163      0.000000
     57 Ge    c       0.000018      0.000086      0.000128      0.000000
     58 Si    c       0.000109     -0.000017      0.000473      0.000000
     59 Si    c       0.000015     -0.000014      0.000090      0.000000
     60 Si    c      -0.000052      0.000065      0.000419      0.000000
     61 O2    c       0.000048     -0.000073      0.000190      0.000000
     62 O2    c      -0.000006      0.000000      0.000002      0.000000
     63 O3    c      -0.000096      0.000038      0.000160      0.000000
     64 O2    c      -0.000000      0.000011      0.000015      0.000000
     65 O2    c       0.000016     -0.000013      0.000090      0.000000
     66 O2    c      -0.000069      0.000030     -0.000091      0.000000
     67 O2    c       0.000000      0.000007      0.000001      0.000000
     68 O2    c      -0.000050      0.000040     -0.000006      0.000000
     69 O2    c       0.000034     -0.000056     -0.000093      0.000000
     70 O2    c      -0.000014      0.000011      0.000013      0.000000
     71 O2    c       0.000093     -0.000016     -0.000113      0.000000
     72 O2    c      -0.000000      0.000003      0.000007      0.000000
     73 O3    c       0.000314      0.000427      0.000594      0.000000
     74 O2    c       0.000031     -0.000061      0.000036      0.000000
     75 O2    c      -0.000003     -0.000006      0.000006      0.000000
     76 O2    c      -0.000006      0.000000      0.000015      0.000000
     77 O2    c       0.000014      0.000035      0.000118      0.000000
     78 O2    c       0.000024     -0.000018      0.000028      0.000000
     79 O2    c       0.000137      0.000151     -0.000090      0.000000
     80 O2    c      -0.000008      0.000000     -0.000030      0.000000
     81 O2    c      -0.000013      0.000045     -0.000008      0.000000
     82 O2    c      -0.000000      0.000002      0.000000      0.000000
     83 O2    c      -0.000002     -0.000003     -0.000026      0.000000
     84 O2    c       0.000020     -0.000125      0.000005      0.000000
     85 O2    c       0.000004      0.000004      0.000013      0.000000
     86 O2    c      -0.000186      0.000201      0.000162      0.000000
     87 O3    c      -0.000031     -0.000004     -0.000043      0.000000
     88 O2    c      -0.000040     -0.000071      0.000017      0.000000
     89 O2    c      -0.000002      0.000005     -0.000006      0.000000
     90 O2    c       0.000024     -0.000019      0.000025      0.000000
     91 O2    c      -0.000050      0.000002      0.000208      0.000000
     92 O2    c      -0.000027      0.000065     -0.000343      0.000000
     93 O2    c       0.000026      0.000152      0.001147      0.000000
     94 O3    c      -0.000083     -0.000024     -0.000429      0.000000
     95 O2    c      -0.000118      0.000070      0.000418      0.000000
     96 O2    c       0.000015      0.000011     -0.000127      0.000000
     97 O2    c       0.000065     -0.000033     -0.000029      0.000000
     98 O2    c      -0.000004      0.000000      0.000024      0.000000
     99 O2    c      -0.000047      0.000011     -0.000040      0.000000
    100 O2    c       0.000001      0.000000      0.000004      0.000000
    101 O3    c       0.000083      0.000022      0.000322      0.000000
    102 O2    c       0.000027     -0.000027     -0.000009      0.000000
    103 O2    c       0.000017     -0.000004     -0.000036      0.000000
    104 O2    c      -0.000003      0.000017     -0.000094      0.000000
    105 O3    c       0.000007     -0.000094      0.000017      0.000000
    106 O2    c      -0.000069      0.000077     -0.000053      0.000000
    107 O2    c       0.000002      0.000005      0.000003      0.000000
    108 O2    c       0.000004     -0.000019     -0.000028      0.000000
    109 O2    c       0.000007      0.000046      0.000129      0.000000
    110 O2    c      -0.000003     -0.000001      0.000002      0.000000
    111 O2    c      -0.000079      0.000122     -0.000288      0.000000
    112 O2    c       0.000012     -0.000029     -0.000074      0.000000
    113 O2    c       0.000179     -0.000023      0.000467      0.000000
    114 O2    c      -0.000018      0.000018     -0.000056      0.000000
    115 O3    c       0.000309     -0.000289      0.000314      0.000000
    116 O2    c       0.000010     -0.000008     -0.000000      0.000000
    117 O2    c       0.000004     -0.000004     -0.000009      0.000000
    118 O2    c      -0.000008     -0.000000     -0.000001      0.000000
    119 O2    c      -0.000003      0.000004     -0.000026      0.000000
    120 O2    c      -0.000006      0.000030     -0.000005      0.000000
    121 O2    c       0.000001     -0.000003      0.000012      0.000000
    122 O2    c      -0.000077     -0.000049      0.000103      0.000000
    123 O2    c      -0.000009      0.000003      0.000013      0.000000
    124 O2    c       0.000124     -0.000194     -0.000251      0.000000
    125 O2    c       0.000001     -0.000003     -0.000008      0.000000
    126 O2    c      -0.000003      0.000001      0.000025      0.000000
    127 O2    c       0.000437     -0.000111      0.000287      0.000000
    128 O2    c      -0.000003     -0.000002      0.000021      0.000000
    129 O2    c       0.000021      0.000014      0.000014      0.000000
    130 O2    c       0.000006     -0.000003     -0.000000      0.000000
    131 O3    c      -0.000300      0.000162     -0.000471      0.000000
    132 O2    c       0.000024      0.000040      0.000054      0.000000
    133 O2    c      -0.000017      0.000028      0.000012      0.000000
    134 O2    c      -0.000454      0.000290      0.000184      0.000000
    135 O2    c      -0.000005     -0.000001     -0.000025      0.000000
    136 O2    c      -0.000008      0.000021     -0.000008      0.000000
    137 O2    c       0.000006     -0.000000     -0.000004      0.000000
    138 O2    c       0.000013     -0.000014     -0.000125      0.000000
    139 O2    c       0.000407     -0.000077      0.000259      0.000000
    140 O2    c       0.000014      0.000004      0.000019      0.000000
    141 O2    c       0.000016     -0.000020      0.000013      0.000000
    142 O2    c       0.000002      0.000002      0.000006      0.000000
    143 O2    c       0.000280     -0.000037     -0.000218      0.000000
    144 O2    c       0.000040     -0.000031      0.000025      0.000000
    145 O2    c       0.000033      0.000016     -0.000018      0.000000
    146 O2    c      -0.000091      0.000013      0.000226      0.000000
    147 O2    c      -0.000001     -0.000008     -0.000006      0.000000
    148 O2    c       0.000000      0.000019     -0.000017      0.000000
    149 O2    c      -0.000002      0.000006     -0.000007      0.000000
    150 O2    c      -0.000024      0.000060     -0.000068      0.000000
    151 O3    c      -0.000160     -0.000242      0.001191      0.000000
    152 O2    c      -0.000081      0.000052     -0.000137      0.000000
    153 O2    c      -0.000004     -0.000000      0.000011      0.000000
    154 O2    c      -0.000015     -0.000024     -0.000030      0.000000
    155 O2    c       0.000057     -0.000028      0.000008      0.000000
    156 O2    c      -0.000085      0.000126      0.000489      0.000000
    157 O2    c       0.000010      0.000021      0.000016      0.000000
    158 O2    c       0.000046     -0.000071      0.000041      0.000000
    159 O2    c      -0.000034      0.000013     -0.000014      0.000000
    160 O2    c       0.000189      0.000033     -0.000570      0.000000
    161 O2    c       0.000004      0.000003     -0.000003      0.000000
    162 O2    c       0.000075     -0.000043      0.000029      0.000000
    163 O3    c      -0.000011     -0.000308      0.000353      0.000000
    164 O2    c      -0.000007      0.000004      0.000002      0.000000
    165 O2    c      -0.000002      0.000013     -0.000019      0.000000
    166 O2    c       0.000002     -0.000007     -0.000012      0.000000
    167 O2    c      -0.000006     -0.000016     -0.000007      0.000000
    168 O2    c       0.000038     -0.000026     -0.000062      0.000000
    169 O2    c      -0.000012      0.000001      0.000025      0.000000
    170 O2    c      -0.000035      0.000034      0.000131      0.000000
    171 O2    c       0.000004     -0.000001      0.000022      0.000000
    172 O3    c       0.000141     -0.000092     -0.000328      0.000000
    173 O2    c      -0.000000     -0.000001      0.000010      0.000000
    174 O2    c       0.000025     -0.000070      0.000042      0.000000
    175 O2    c       0.000007     -0.000081      0.000024      0.000000
    176 O2    c      -0.000002      0.000003     -0.000000      0.000000
    177 O3    c      -0.000174      0.000214     -0.000059      0.000000
    178 O2    c      -0.000007      0.000027      0.000053      0.000000
    179 O2    c      -0.000088      0.000028     -0.000155      0.000000
    180 O2    c       0.000014     -0.000023     -0.000032      0.000000
    181 F     c      -0.000024      0.000002      0.000055      0.000000
    182 F     c       0.000001     -0.000001     -0.000014      0.000000
    183 F     c      -0.000020     -0.000013     -0.000045      0.000000
    184 F     c      -0.000003      0.000003      0.000025      0.000000
    185 F     c      -0.000037      0.000021     -0.000106      0.000000
    186 F     c      -0.000001      0.000002      0.000018      0.000000
    187 O2    s      -0.000026      0.000022      0.000057      0.000000
    188 O2    s       0.000002     -0.000015     -0.000061      0.000000
    189 O3    s       0.000023      0.000004     -0.000102      0.000000
    190 O2    s       0.000010     -0.000004      0.000019      0.000000
    191 O2    s      -0.000034     -0.000009     -0.000025      0.000000
    192 O2    s      -0.000042     -0.000018     -0.000159      0.000000
    193 O2    s      -0.000012      0.000016     -0.000004      0.000000
    194 O2    s       0.000033     -0.000022      0.000020      0.000000
    195 O2    s      -0.000090      0.000080      0.000225      0.000000
    196 O2    s       0.000028     -0.000018     -0.000024      0.000000
    197 O2    s       0.000031     -0.000029     -0.000103      0.000000
    198 O2    s       0.000002     -0.000002     -0.000013      0.000000
    199 O3    s      -0.000063     -0.000395     -0.000225      0.000000
    200 O2    s      -0.000022      0.000035      0.000024      0.000000
    201 O2    s       0.000011     -0.000008     -0.000021      0.000000
    202 O2    s      -0.000002      0.000002     -0.000013      0.000000
    203 O2    s      -0.000035      0.000009     -0.000007      0.000000
    204 O2    s      -0.000065      0.000060     -0.000249      0.000000
    205 O2    s      -0.000114     -0.000112     -0.000209      0.000000
    206 O2    s       0.000014     -0.000033      0.000009      0.000000
    207 O2    s       0.000033     -0.000039      0.000008      0.000000
    208 O2    s       0.000001     -0.000008      0.000002      0.000000
    209 O2    s       0.000101     -0.000056      0.000102      0.000000
    210 O2    s      -0.000054      0.000043     -0.000091      0.000000
    211 O2    s      -0.000003     -0.000008     -0.000029      0.000000
    212 O2    s       0.000083     -0.000103     -0.000271      0.000000
    213 O3    s       0.000003      0.000024     -0.000047      0.000000
    214 O2    s       0.000016      0.000056     -0.000032      0.000000
    215 O2    s      -0.000003      0.000000      0.000022      0.000000
    216 O2    s       0.000003     -0.000028      0.000039      0.000000
    217 O2    s       0.000018      0.000009      0.000012      0.000000
    218 O2    s      -0.000012     -0.000027      0.000050      0.000000
    219 O2    s      -0.000002     -0.000039     -0.000272      0.000000
    220 O3    s      -0.000033      0.000072      0.000127      0.000000
    221 O2    s       0.000120     -0.000066     -0.000077      0.000000
    222 O2    s      -0.000002     -0.000014      0.000017      0.000000
    223 O2    s      -0.000075      0.000022      0.000230      0.000000
    224 O2    s      -0.000013      0.000028     -0.000028      0.000000
    225 O2    s       0.000050     -0.000043      0.000051      0.000000
    226 O2    s       0.000003     -0.000004     -0.000012      0.000000
    227 O3    s      -0.000101     -0.000027     -0.000390      0.000000
    228 O2    s       0.000001      0.000072      0.000074      0.000000
    229 O2    s       0.000005     -0.000014     -0.000058      0.000000
    230 O2    s       0.000098      0.000059      0.000324      0.000000
    231 O3    s      -0.000009      0.000028     -0.000000      0.000000
    232 O2    s      -0.000039      0.000037     -0.000063      0.000000
    233 O2    s      -0.000006     -0.000000     -0.000041      0.000000
    234 O2    s       0.000040     -0.000007     -0.000049      0.000000
    235 O2    s      -0.000008     -0.000000     -0.000135      0.000000
    236 O2    s       0.000005      0.000007     -0.000011      0.000000
    237 O2    s      -0.000230      0.000209      0.000211      0.000000
    238 O2    s      -0.000002      0.000016     -0.000056      0.000000
    239 O2    s       0.000014     -0.000086      0.000227      0.000000
    240 O2    s       0.000017     -0.000016      0.000069      0.000000
    241 O3    s      -0.000004     -0.000084      0.000334      0.000000
    242 O2    s      -0.000017     -0.000001      0.000006      0.000000
    243 O2    s       0.000007     -0.000011      0.000026      0.000000
    244 O2    s       0.000002      0.000001      0.000006      0.000000
    245 O2    s       0.000008      0.000010      0.000018      0.000000
    246 O2    s      -0.000057      0.000035     -0.000029      0.000000
    247 O2    s      -0.000001      0.000005     -0.000023      0.000000
    248 O2    s       0.000059      0.000089     -0.000106      0.000000
    249 O2    s      -0.000001     -0.000002     -0.000045      0.000000
    250 O2    s       0.000096     -0.000013     -0.000017      0.000000
    251 O2    s       0.000004      0.000006      0.000034      0.000000
    252 O2    s       0.000016     -0.000023     -0.000066      0.000000
    253 O2    s       0.000067     -0.000314     -0.000476      0.000000
    254 O2    s      -0.000001      0.000003     -0.000037      0.000000
    255 O2    s       0.000015     -0.000019     -0.000003      0.000000
    256 O2    s       0.000002     -0.000008      0.000021      0.000000
    257 O3    s      -0.000163      0.000041     -0.000343      0.000000
    258 O2    s      -0.000032     -0.000011     -0.000021      0.000000
    259 O2    s       0.000008      0.000021     -0.000053      0.000000
    260 O2    s      -0.000155      0.000251      0.000661      0.000000
    261 O2    s      -0.000000      0.000007      0.000018      0.000000
    262 O2    s       0.000002     -0.000013      0.000056      0.000000
    263 O2    s       0.000002      0.000001      0.000004      0.000000
    264 O2    s       0.000101     -0.000130     -0.000072      0.000000
    265 O2    s      -0.000468      0.000562     -0.000014      0.000000
    266 O2    s      -0.000002     -0.000009     -0.000024      0.000000
    267 O2    s      -0.000002     -0.000002     -0.000036      0.000000
    268 O2    s      -0.000016      0.000011     -0.000004      0.000000
    269 O2    s      -0.000028      0.000142     -0.000195      0.000000
    270 O2    s      -0.000002     -0.000016     -0.000020      0.000000
    271 O2    s      -0.000039      0.000029     -0.000066      0.000000
    272 O2    s      -0.000116      0.000030      0.000427      0.000000
    273 O2    s      -0.000004      0.000021     -0.000001      0.000000
    274 O2    s       0.000015     -0.000048      0.000053      0.000000
    275 O2    s      -0.000000     -0.000009      0.000005      0.000000
    276 O2    s      -0.000079      0.000055      0.000073      0.000000
    277 O3    s      -0.000106     -0.000116     -0.000655      0.000000
    278 O2    s       0.000039     -0.000038      0.000089      0.000000
    279 O2    s       0.000009      0.000007     -0.000007      0.000000
    280 O2    s       0.000007      0.000024      0.000006      0.000000
    281 O2    s      -0.000080      0.000034     -0.000014      0.000000
    282 O2    s       0.000082     -0.000106     -0.000299      0.000000
    283 O2    s       0.000003     -0.000024      0.000016      0.000000
    284 O2    s      -0.000069      0.000109     -0.000102      0.000000
    285 O2    s       0.000031     -0.000014      0.000021      0.000000
    286 O2    s       0.000118      0.000199     -0.000193      0.000000
    287 O2    s      -0.000013     -0.000017     -0.000035      0.000000
    288 O2    s      -0.000030      0.000011      0.000028      0.000000
    289 O3    s       0.000604     -0.000364      0.001156      0.000000
    290 O2    s       0.000013     -0.000045     -0.000051      0.000000
    291 O2    s      -0.000002     -0.000016      0.000018      0.000000
    292 O2    s       0.000004      0.000009      0.000017      0.000000
    293 O2    s      -0.000020      0.000038     -0.000003      0.000000
    294 O2    s       0.000001     -0.000062     -0.000061      0.000000
    295 O2    s      -0.000001      0.000004     -0.000037      0.000000
    296 O2    s      -0.000018     -0.000036      0.000061      0.000000
    297 O2    s       0.000000     -0.000003     -0.000042      0.000000
    298 O3    s       0.000130      0.000000     -0.000484      0.000000
    299 O2    s       0.000003     -0.000008     -0.000032      0.000000
    300 O2    s      -0.000010      0.000044     -0.000072      0.000000
    301 O2    s      -0.000005      0.000039     -0.000042      0.000000
    302 O2    s       0.000008     -0.000013     -0.000002      0.000000
    303 O3    s       0.000182     -0.000188      0.000167      0.000000
    304 O2    s       0.000015     -0.000023     -0.000027      0.000000
    305 O2    s       0.000019     -0.000048      0.000097      0.000000
    306 O2    s      -0.000008      0.000020      0.000020      0.000000
    307 F     s       0.000045      0.000002     -0.000092      0.000000
    308 F     s      -0.000003      0.000000      0.000028      0.000000
    309 F     s       0.000043      0.000000     -0.000138      0.000000
    310 F     s       0.000006     -0.000007     -0.000057      0.000000
    311 F     s       0.000087     -0.000067      0.000249      0.000000
    312 F     s      -0.000000     -0.000000     -0.000021      0.000000
--------------------------------------------------------------------------------
  Maximum abs         0.000604      0.000562      0.001193      0.000000
--------------------------------------------------------------------------------


  Time to end of optimisation =       5.4175 seconds


  Peak dynamic memory used =      19.13 MB 


  Timing analysis for GULP :

--------------------------------------------------------------------------------
  Task / Subroutine                                          Time (Seconds)
--------------------------------------------------------------------------------
  Calculation of reciprocal space energy and derivatives          0.2519
  Calculation of real space energy and derivatives                4.4463
  Calculation of three-body energy and derivatives                0.4912
  Calculation of matrix inversion                                 0.1920
--------------------------------------------------------------------------------
  Total CPU time                                                  5.4175
--------------------------------------------------------------------------------


  Dump file written as out.res                                                 
  CIF file written as out.cif                                                 


  Job Finished at 17:34.34 29th November   2016                               

