********************************************************************************
*                       GENERAL UTILITY LATTICE PROGRAM                        *
*                                 Julian Gale                                  *
*                      Nanochemistry Research Institute                        *
*                           Department of Chemistry                            *
*                    Curtin University, Western Australia                      *
********************************************************************************
* Version = 4.2.0 * Last modified =  20th January 2014                         *
********************************************************************************
*  optimise     - perform optimisation run                                     *
*  conp         - constant pressure calculation                                *
*  qok          - running with non charge neutral cell is OK                   *
********************************************************************************

  Job Started  at 17:09.25 29th November   2016                               

  Number of CPUs =     1


  Total number of configurations input =   1

********************************************************************************
*  Input for Configuration =   1                                               *
********************************************************************************

  Formula = Si57Ge3O120F6                                               

  Number of irreducible atoms/shells =     312


  Total number atoms/shells =     312

  Dimensionality = 3               :  Bulk   


  Charge on solid   =  -6.000000 =>neutralising background added


  Cartesian lattice vectors (Angstroms) :

       11.988040    0.000000    0.000000
       -5.928376   10.381674    0.000000
        0.194163    0.301196   29.371230

  Cell parameters (Angstroms/Degrees):

  a =      11.9880    alpha =  89.6776
  b =      11.9551    beta  =  89.6213
  c =      29.3734    gamma = 119.7282

  Initial cell volume =        3655.423478 Angs**3

  Temperature of configuration =  0.000     K 

  Pressure of configuration =         0.000 GPa 

  Fractional coordinates of asymmetric unit :

--------------------------------------------------------------------------------
   No.  Atomic       x           y          z         Charge      Occupancy
        Label      (Frac)      (Frac)     (Frac)        (e)         (Frac)  
--------------------------------------------------------------------------------
      1 Si    c    0.699600    0.375700    0.033890     4.00000    1.000000    
      2 Si    c    0.619397 *  0.316896 *  0.368883 *   4.00000    1.000000    
      3 Si    c    0.675440 *  0.292101 *  0.698276 *   4.00000    1.000000    
      4 Si    c    0.301740 *  0.629216 *  0.535910 *   4.00000    1.000000    
      5 Si    c    0.382190 *  0.674251 *  0.869559 *   4.00000    1.000000    
      6 Si    c    0.320172 *  0.692939 *  0.199617 *   4.00000    1.000000    
      7 Si    c    0.383336 *  0.699310 *  0.301919 *   4.00000    1.000000    
      8 Si    c    0.324957 *  0.618047 *  0.972307 *   4.00000    1.000000    
      9 Si    c    0.296670 *  0.677378 *  0.637030 *   4.00000    1.000000    
     10 Si    c    0.622111 *  0.295133 *  0.799208 *   4.00000    1.000000    
     11 Si    c    0.682324 *  0.372377 *  0.471128 *   4.00000    1.000000    
     12 Si    c    0.700936 *  0.330064 *  0.136011 *   4.00000    1.000000    
     13 Ge    c    0.531787 *  0.429308 *  0.966966 *   4.00000    1.000000    
     14 Si    c    0.587200 *  0.113030 *  0.301542 *   4.00000    1.000000    
     15 Si    c    0.888416 *  0.468342 *  0.634444 *   4.00000    1.000000    
     16 Si    c    0.470793 *  0.587317 *  0.473039 *   4.00000    1.000000    
     17 Si    c    0.420365 *  0.886186 *  0.803431 *   4.00000    1.000000    
     18 Si    c    0.104077 *  0.525401 *  0.137086 *   4.00000    1.000000    
     19 Si    c    0.414758 *  0.527138 *  0.370022 *   4.00000    1.000000    
     20 Si    c    0.109806 *  0.580606 *  0.035789 *   4.00000    1.000000    
     21 Si    c    0.471084 *  0.884527 *  0.701556 *   4.00000    1.000000    
     22 Si    c    0.593649 *  0.465830 *  0.866940 *   4.00000    1.000000    
     23 Si    c    0.898321 *  0.419670 *  0.533275 *   4.00000    1.000000    
     24 Si    c    0.530758 *  0.119188 *  0.198541 *   4.00000    1.000000    
     25 Si    c    0.307329 *  0.393403 *  0.854556 *   4.00000    1.000000    
     26 Ge    c    0.590077 *  0.904045 *  0.191538 *   4.00000    1.000000    
     27 Si    c    0.098983 *  0.701798 *  0.520344 *   4.00000    1.000000    
     28 Si    c    0.698978 *  0.599226 *  0.354238 *   4.00000    1.000000    
     29 Si    c    0.397515 *  0.092174 *  0.685555 *   4.00000    1.000000    
     30 Si    c    0.903327 *  0.300354 *  0.021876 *   4.00000    1.000000    
     31 Ge    c    0.412435 *  0.313202 *  0.479361 *   4.00000    1.000000    
     32 Si    c    0.902170 *  0.605255 *  0.150296 *   4.00000    1.000000    
     33 Si    c    0.699242 *  0.094067 *  0.816181 *   4.00000    1.000000    
     34 Si    c    0.608014 *  0.701587 *  0.989526 *   4.00000    1.000000    
     35 Si    c    0.097315 *  0.397556 *  0.650116 *   4.00000    1.000000    
     36 Si    c    0.303439 *  0.901781 *  0.317255 *   4.00000    1.000000    
     37 Si    c    0.252495 *  0.331406 *  0.957234 *   4.00000    1.000000    
     38 Si    c    0.669326 *  0.911425 *  0.287751 *   4.00000    1.000000    
     39 Si    c    0.086825 *  0.748099 *  0.621234 *   4.00000    1.000000    
     40 Si    c    0.751263 *  0.659090 *  0.456160 *   4.00000    1.000000    
     41 Si    c    0.341734 *  0.086733 *  0.786986 *   4.00000    1.000000    
     42 Si    c    0.904313 *  0.248841 *  0.123235 *   4.00000    1.000000    
     43 Si    c    0.332946 *  0.243221 *  0.383217 *   4.00000    1.000000    
     44 Si    c    0.908649 *  0.658810 *  0.048912 *   4.00000    1.000000    
     45 Si    c    0.748984 *  0.084228 *  0.715075 *   4.00000    1.000000    
     46 Si    c    0.666729 *  0.745379 *  0.885866 *   4.00000    1.000000    
     47 Si    c    0.100115 *  0.344196 *  0.549032 *   4.00000    1.000000    
     48 Si    c    0.251119 *  0.910375 *  0.215247 *   4.00000    1.000000    
     49 Si    c    0.968138 *  0.120566 *  0.969996 *   4.00000    1.000000    
     50 Si    c    0.880198 *  0.846375 *  0.303654 *   4.00000    1.000000    
     51 Si    c    0.150912 *  0.028171 *  0.635246 *   4.00000    1.000000    
     52 Si    c    0.030509 *  0.881430 *  0.469897 *   4.00000    1.000000    
     53 Si    c    0.123819 *  0.149089 *  0.803118 *   4.00000    1.000000    
     54 Si    c    0.842006 *  0.968252 *  0.138632 *   4.00000    1.000000    
     55 Si    c    0.122793 *  0.968271 *  0.367834 *   4.00000    1.000000    
     56 Si    c    0.851447 *  0.882881 *  0.037370 *   4.00000    1.000000    
     57 Si    c    0.030031 *  0.149423 *  0.701723 *   4.00000    1.000000    
     58 Si    c    0.878891 *  0.027873 *  0.868603 *   4.00000    1.000000    
     59 Si    c    0.161843 *  0.125079 *  0.533321 *   4.00000    1.000000    
     60 Si    c    0.971272 *  0.851542 *  0.201587 *   4.00000    1.000000    
     61 O2    c    0.931715 *  0.000674 *  0.002902 *   0.87073    1.000000    
     62 O2    c    0.001178 *  0.919897 *  0.335887 *   0.87073    1.000000    
     63 O2    c    0.074762 *  0.071401 *  0.669487 *   0.87073    1.000000    
     64 O2    c    0.069927 *  0.001506 *  0.502319 *   0.87073    1.000000    
     65 O2    c    0.002683 *  0.069754 *  0.836474 *   0.87073    1.000000    
     66 O2    c    0.931812 *  0.935171 *  0.170533 *   0.87073    1.000000    
     67 O2    c    0.343275 *  0.578577 *  0.336343 *   0.87073    1.000000    
     68 O2    c    0.418754 *  0.758137 *  0.669806 *   0.87073    1.000000    
     69 O2    c    0.237216 *  0.655825 *  0.003312 *   0.87073    1.000000    
     70 O2    c    0.664045 *  0.423145 *  0.828874 *   0.87073    1.000000    
     71 O2    c    0.575957 *  0.250534 *  0.169307 *   0.87073    1.000000    
     72 O2    c    0.778904 *  0.341243 *  0.499234 *   0.87073    1.000000    
     73 O3    c    0.582662 *  0.341535 *  0.001888 *   1.33043    1.000000    
     74 O2    c    0.759512 *  0.415706 *  0.665523 *   0.87073    1.000000    
     75 O2    c    0.658871 *  0.235665 *  0.334967 *   0.87073    1.000000    
     76 O2    c    0.426581 *  0.673227 *  0.502859 *   0.87073    1.000000    
     77 O2    c    0.224683 *  0.567550 *  0.171029 *   0.87073    1.000000    
     78 O2    c    0.346185 *  0.760542 *  0.836858 *   0.87073    1.000000    
     79 O2    c    0.120001 *  0.210739 *  0.975045 *   0.87073    1.000000    
     80 O2    c    0.789571 *  0.908643 *  0.312511 *   0.87073    1.000000    
     81 O2    c    0.085492 *  0.873492 *  0.641353 *   0.87073    1.000000    
     82 O2    c    0.876323 *  0.785887 *  0.474810 *   0.87073    1.000000    
     83 O2    c    0.214452 *  0.084979 *  0.807333 *   0.87073    1.000000    
     84 O2    c    0.900211 *  0.122579 *  0.144774 *   0.87073    1.000000    
     85 O2    c    0.213221 *  0.120950 *  0.358524 *   0.87073    1.000000    
     86 O2    c    0.906401 *  0.785021 *  0.029315 *   0.87073    1.000000    
     87 O2    c    0.876227 *  0.084117 *  0.695851 *   0.87073    1.000000    
     88 O2    c    0.788462 *  0.873568 *  0.864419 *   0.87073    1.000000    
     89 O2    c    0.103848 *  0.222254 *  0.527784 *   0.87073    1.000000    
     90 O2    c    0.125369 *  0.910853 *  0.196359 *   0.87073    1.000000    
     91 O2    c    0.934037 *  0.861660 *  0.253218 *   0.87073    1.000000    
     92 O2    c    0.138140 *  0.069535 *  0.584885 *   0.87073    1.000000    
     93 O2    c    0.927865 *  0.069192 *  0.919224 *   0.87073    1.000000    
     94 O2    c    0.069773 *  0.139256 *  0.752864 *   0.87073    1.000000    
     95 O2    c    0.869927 *  0.936493 *  0.087794 *   0.87073    1.000000    
     96 O2    c    0.069509 *  0.932909 *  0.418658 *   0.87073    1.000000    
     97 O2    c    0.899555 *  0.202702 *  0.982925 *   0.87073    1.000000    
     98 O2    c    0.795503 *  0.693417 *  0.315182 *   0.87073    1.000000    
     99 O2    c    0.301839 *  0.093684 *  0.647155 *   0.87073    1.000000    
    100 O2    c    0.100556 *  0.799597 *  0.481493 *   0.87073    1.000000    
    101 O2    c    0.209204 *  0.299697 *  0.816056 *   0.87073    1.000000    
    102 O3    c    0.695127 *  0.895306 *  0.149763 *   1.33043    1.000000    
    103 O2    c    0.207460 *  0.899584 *  0.356625 *   0.87073    1.000000    
    104 O2    c    0.700123 *  0.811823 *  0.025258 *   0.87073    1.000000    
    105 O2    c    0.097086 *  0.300671 *  0.689141 *   0.87073    1.000000    
    106 O2    c    0.797500 *  0.096738 *  0.854487 *   0.87073    1.000000    
    107 O3    c    0.307821 *  0.197937 *  0.521143 *   1.33043    1.000000    
    108 O2    c    0.900514 *  0.701229 *  0.188942 *   0.87073    1.000000    
    109 O2    c    0.327878 *  0.645369 *  0.251852 *   0.87073    1.000000    
    110 O2    c    0.355852 *  0.681905 *  0.586530 *   0.87073    1.000000    
    111 O2    c    0.328075 *  0.669794 *  0.920543 *   0.87073    1.000000    
    112 O2    c    0.677582 *  0.349573 *  0.748426 *   0.87073    1.000000    
    113 O2    c    0.646278 *  0.326091 *  0.085601 *   0.87073    1.000000    
    114 O2    c    0.674622 *  0.318020 *  0.419147 *   0.87073    1.000000    
    115 O3    c    0.364849 *  0.313498 *  0.976673 *   1.33043    1.000000    
    116 O2    c    0.672839 *  0.042828 *  0.304989 *   0.87073    1.000000    
    117 O2    c    0.954473 *  0.624060 *  0.638934 *   0.87073    1.000000    
    118 O2    c    0.627615 *  0.668515 *  0.473132 *   0.87073    1.000000    
    119 O2    c    0.333002 *  0.955182 *  0.806726 *   0.87073    1.000000    
    120 O2    c    0.036666 *  0.370019 *  0.141224 *   0.87073    1.000000    
    121 O2    c    0.328799 *  0.371781 *  0.366759 *   0.87073    1.000000    
    122 O2    c    0.043378 *  0.670226 *  0.031326 *   0.87073    1.000000    
    123 O2    c    0.626785 *  0.951088 *  0.697865 *   0.87073    1.000000    
    124 O2    c    0.677070 *  0.624201 *  0.866800 *   0.87073    1.000000    
    125 O2    c    0.967740 *  0.333282 *  0.530793 *   0.87073    1.000000    
    126 O2    c    0.373947 *  0.044002 *  0.198487 *   0.87073    1.000000    
    127 O2    c    0.771042 *  0.300837 *  0.014113 *   0.87073    1.000000    
    128 O2    c    0.692943 *  0.462493 *  0.348557 *   0.87073    1.000000    
    129 O2    c    0.531946 *  0.224605 *  0.677111 *   0.87073    1.000000    
    130 O2    c    0.234082 *  0.704519 *  0.513317 *   0.87073    1.000000    
    131 O2    c    0.310626 *  0.530043 *  0.849159 *   0.87073    1.000000    
    132 O3    c    0.456881 *  0.754527 *  0.175519 *   1.33043    1.000000    
    133 O2    c    0.310149 *  0.771235 *  0.322633 *   0.87073    1.000000    
    134 O2    c    0.468573 *  0.694512 *  0.992656 *   0.87073    1.000000    
    135 O2    c    0.227788 *  0.532713 *  0.658598 *   0.87073    1.000000    
    136 O2    c    0.695729 *  0.226507 *  0.822806 *   0.87073    1.000000    
    137 O3    c    0.546350 *  0.297008 *  0.495673 *   1.33043    1.000000    
    138 O2    c    0.768338 *  0.472668 *  0.158200 *   0.87073    1.000000    
    139 O2    c    0.787988 *  0.532877 *  0.028926 *   0.87073    1.000000    
    140 O2    c    0.464837 *  0.249000 *  0.365388 *   0.87073    1.000000    
    141 O2    c    0.748038 *  0.208373 *  0.693788 *   0.87073    1.000000    
    142 O2    c    0.223086 *  0.474080 *  0.530155 *   0.87073    1.000000    
    143 O2    c    0.536008 *  0.737254 *  0.867987 *   0.87073    1.000000    
    144 O2    c    0.257181 *  0.787014 *  0.197364 *   0.87073    1.000000    
    145 O2    c    0.537990 *  0.784465 *  0.305522 *   0.87073    1.000000    
    146 O2    c    0.259979 *  0.463554 *  0.975336 *   0.87073    1.000000    
    147 O2    c    0.212600 *  0.749458 *  0.641375 *   0.87073    1.000000    
    148 O2    c    0.466250 *  0.214313 *  0.805305 *   0.87073    1.000000    
    149 O2    c    0.745892 *  0.529298 *  0.474044 *   0.87073    1.000000    
    150 O2    c    0.780829 *  0.254379 *  0.142538 *   0.87073    1.000000    
    151 O2    c    0.241718 *  0.322858 *  0.901915 *   0.87073    1.000000    
    152 O3    c    0.697398 *  0.910736 *  0.235245 *   1.33043    1.000000    
    153 O2    c    0.090053 *  0.769508 *  0.566722 *   0.87073    1.000000    
    154 O2    c    0.763311 *  0.667816 *  0.401372 *   0.87073    1.000000    
    155 O2    c    0.323937 *  0.087811 *  0.732571 *   0.87073    1.000000    
    156 O2    c    0.905710 *  0.229933 *  0.068736 *   0.87073    1.000000    
    157 O3    c    0.305736 *  0.213422 *  0.435838 *   1.33043    1.000000    
    158 O2    c    0.907190 *  0.678679 *  0.103392 *   0.87073    1.000000    
    159 O2    c    0.768709 *  0.088907 *  0.769502 *   0.87073    1.000000    
    160 O2    c    0.678823 *  0.760413 *  0.940173 *   0.87073    1.000000    
    161 O2    c    0.099248 *  0.326306 *  0.603721 *   0.87073    1.000000    
    162 O2    c    0.238870 *  0.906718 *  0.270117 *   0.87073    1.000000    
    163 O3    c    0.602083 *  0.570695 *  0.002183 *   1.33043    1.000000    
    164 O2    c    0.444876 *  0.023312 *  0.322841 *   0.87073    1.000000    
    165 O2    c    0.970321 *  0.409386 *  0.658125 *   0.87073    1.000000    
    166 O3    c    0.411084 *  0.452063 *  0.498940 *   1.33043    1.000000    
    167 O2    c    0.561196 *  0.967503 *  0.826051 *   0.87073    1.000000    
    168 O2    c    0.026542 *  0.590330 *  0.160292 *   0.87073    1.000000    
    169 O2    c    0.557217 *  0.579391 *  0.348959 *   0.87073    1.000000    
    170 O2    c    0.029407 *  0.439478 *  0.012800 *   0.87073    1.000000    
    171 O2    c    0.413374 *  0.967404 *  0.677731 *   0.87073    1.000000    
    172 O2    c    0.449007 *  0.414389 *  0.846869 *   0.87073    1.000000    
    173 O2    c    0.977137 *  0.562132 *  0.510151 *   0.87073    1.000000    
    174 O3    c    0.589929 *  0.044053 *  0.172297 *   1.33043    1.000000    
    175 O2    c    0.584136 *  0.162731 *  0.250608 *   0.87073    1.000000    
    176 O2    c    0.838283 *  0.417212 *  0.583338 *   0.87073    1.000000    
    177 O3    c    0.600716 *  0.408489 *  0.914792 *   1.33043    1.000000    
    178 O2    c    0.418293 *  0.830993 *  0.752837 *   0.87073    1.000000    
    179 O2    c    0.164129 *  0.581834 *  0.086633 *   0.87073    1.000000    
    180 O2    c    0.417394 *  0.579088 *  0.420992 *   0.87073    1.000000    
    181 F     c    0.484109 *  0.904998 *  0.241269 *   0.56000    1.000000    
    182 F     c    0.095618 *  0.550234 *  0.584918 *   0.56000    1.000000    
    183 F     c    0.476342 *  0.521913 *  0.929863 *   0.56000    1.000000    
    184 F     c    0.547351 *  0.090035 *  0.751473 *   0.56000    1.000000    
    185 F     c    0.910000 *  0.456442 *  0.087275 *   0.56000    1.000000    
    186 F     c    0.518528 *  0.421580 *  0.430122 *   0.56000    1.000000    
    187 O2    s    0.926890 *  0.001210 *  0.002984 *  -2.87073    1.000000    
    188 O2    s    0.001347 *  0.917001 *  0.335885 *  -2.87073    1.000000    
    189 O2    s    0.078160 *  0.075434 *  0.669339 *  -2.87073    1.000000    
    190 O2    s    0.074886 *  0.000548 *  0.501816 *  -2.87073    1.000000    
    191 O2    s    0.002529 *  0.073947 *  0.836301 *  -2.87073    1.000000    
    192 O2    s    0.927023 *  0.928914 *  0.170810 *  -2.87073    1.000000    
    193 O2    s    0.354915 *  0.585728 *  0.336300 *  -2.87073    1.000000    
    194 O2    s    0.411556 *  0.762844 *  0.669691 *  -2.87073    1.000000    
    195 O2    s    0.233772 *  0.644282 *  0.003265 *  -2.87073    1.000000    
    196 O2    s    0.652520 *  0.414102 *  0.829624 *  -2.87073    1.000000    
    197 O2    s    0.583655 *  0.244933 *  0.169013 *  -2.87073    1.000000    
    198 O2    s    0.780978 *  0.352695 *  0.499734 *  -2.87073    1.000000    
    199 O3    s    0.591687 *  0.351272 *  0.002899 *  -3.33043    1.000000    
    200 O2    s    0.764063 *  0.408238 *  0.665722 *  -2.87073    1.000000    
    201 O2    s    0.647330 *  0.231461 *  0.335059 *  -2.87073    1.000000    
    202 O2    s    0.418607 *  0.660187 *  0.503157 *  -2.87073    1.000000    
    203 O2    s    0.222663 *  0.576759 *  0.170674 *  -2.87073    1.000000    
    204 O2    s    0.357435 *  0.764053 *  0.836968 *  -2.87073    1.000000    
    205 O2    s    0.117396 *  0.213789 *  0.972558 *  -2.87073    1.000000    
    206 O2    s    0.787173 *  0.902292 *  0.309164 *  -2.87073    1.000000    
    207 O2    s    0.092447 *  0.876623 *  0.638652 *  -2.87073    1.000000    
    208 O2    s    0.878915 *  0.782253 *  0.472352 *  -2.87073    1.000000    
    209 O2    s    0.217920 *  0.091950 *  0.804825 *  -2.87073    1.000000    
    210 O2    s    0.894751 *  0.120454 *  0.141881 *  -2.87073    1.000000    
    211 O2    s    0.215665 *  0.117076 *  0.361910 *  -2.87073    1.000000    
    212 O2    s    0.900899 *  0.782232 *  0.032142 *  -2.87073    1.000000    
    213 O2    s    0.879250 *  0.090973 *  0.698431 *  -2.87073    1.000000    
    214 O2    s    0.785419 *  0.876591 *  0.867055 *  -2.87073    1.000000    
    215 O2    s    0.109297 *  0.225616 *  0.530597 *  -2.87073    1.000000    
    216 O2    s    0.122904 *  0.904648 *  0.198904 *  -2.87073    1.000000    
    217 O2    s    0.931919 *  0.858741 *  0.253366 *  -2.87073    1.000000    
    218 O2    s    0.142099 *  0.070626 *  0.585249 *  -2.87073    1.000000    
    219 O2    s    0.926738 *  0.070160 *  0.919074 *  -2.87073    1.000000    
    220 O2    s    0.071430 *  0.141480 *  0.752819 *  -2.87073    1.000000    
    221 O2    s    0.864862 *  0.933679 *  0.087363 *  -2.87073    1.000000    
    222 O2    s    0.071255 *  0.931200 *  0.418523 *  -2.87073    1.000000    
    223 O2    s    0.907384 *  0.203821 *  0.985513 *  -2.87073    1.000000    
    224 O2    s    0.793885 *  0.699064 *  0.318169 *  -2.87073    1.000000    
    225 O2    s    0.295939 *  0.086638 *  0.649898 *  -2.87073    1.000000    
    226 O2    s    0.092907 *  0.798309 *  0.484249 *  -2.87073    1.000000    
    227 O2    s    0.210315 *  0.293536 *  0.818629 *  -2.87073    1.000000    
    228 O3    s    0.704477 *  0.903994 *  0.151306 *  -3.33043    1.000000    
    229 O2    s    0.208873 *  0.906859 *  0.353641 *  -2.87073    1.000000    
    230 O2    s    0.706437 *  0.808031 *  0.022889 *  -2.87073    1.000000    
    231 O2    s    0.089960 *  0.294483 *  0.686484 *  -2.87073    1.000000    
    232 O2    s    0.796069 *  0.089117 *  0.852044 *  -2.87073    1.000000    
    233 O3    s    0.298338 *  0.197356 *  0.519761 *  -3.33043    1.000000    
    234 O2    s    0.908321 *  0.707657 *  0.186370 *  -2.87073    1.000000    
    235 O2    s    0.333030 *  0.655596 *  0.252175 *  -2.87073    1.000000    
    236 O2    s    0.344198 *  0.676009 *  0.586488 *  -2.87073    1.000000    
    237 O2    s    0.333444 *  0.665063 *  0.920391 *  -2.87073    1.000000    
    238 O2    s    0.671556 *  0.337833 *  0.748479 *  -2.87073    1.000000    
    239 O2    s    0.657520 *  0.331516 *  0.085797 *  -2.87073    1.000000    
    240 O2    s    0.669507 *  0.323111 *  0.418857 *  -2.87073    1.000000    
    241 O3    s    0.363865 *  0.323121 *  0.973920 *  -3.33043    1.000000    
    242 O2    s    0.663516 *  0.036980 *  0.302882 *  -2.87073    1.000000    
    243 O2    s    0.961537 *  0.621084 *  0.636614 *  -2.87073    1.000000    
    244 O2    s    0.624930 *  0.659341 *  0.471317 *  -2.87073    1.000000    
    245 O2    s    0.342919 *  0.961599 *  0.804350 *  -2.87073    1.000000    
    246 O2    s    0.029924 *  0.373691 *  0.138900 *  -2.87073    1.000000    
    247 O2    s    0.338196 *  0.375045 *  0.368778 *  -2.87073    1.000000    
    248 O2    s    0.036599 *  0.659887 *  0.033568 *  -2.87073    1.000000    
    249 O2    s    0.623529 *  0.958042 *  0.700028 *  -2.87073    1.000000    
    250 O2    s    0.667943 *  0.621721 *  0.868842 *  -2.87073    1.000000    
    251 O2    s    0.974299 *  0.343600 *  0.532986 *  -2.87073    1.000000    
    252 O2    s    0.376681 *  0.037370 *  0.200285 *  -2.87073    1.000000    
    253 O2    s    0.778126 *  0.308553 *  0.017055 *  -2.87073    1.000000    
    254 O2    s    0.685913 *  0.462047 *  0.351305 *  -2.87073    1.000000    
    255 O2    s    0.532636 *  0.217651 *  0.680206 *  -2.87073    1.000000    
    256 O2    s    0.226721 *  0.696434 *  0.516452 *  -2.87073    1.000000    
    257 O2    s    0.317764 *  0.530946 *  0.851864 *  -2.87073    1.000000    
    258 O3    s    0.452125 *  0.758756 *  0.179209 *  -3.33043    1.000000    
    259 O2    s    0.317028 *  0.777881 *  0.319891 *  -2.87073    1.000000    
    260 O2    s    0.467464 *  0.687168 *  0.990175 *  -2.87073    1.000000    
    261 O2    s    0.221160 *  0.533430 *  0.655450 *  -2.87073    1.000000    
    262 O2    s    0.688563 *  0.219420 *  0.819666 *  -2.87073    1.000000    
    263 O3    s    0.551049 *  0.306021 *  0.491924 *  -3.33043    1.000000    
    264 O2    s    0.775656 *  0.472076 *  0.155041 *  -2.87073    1.000000    
    265 O2    s    0.793006 *  0.531519 *  0.031612 *  -2.87073    1.000000    
    266 O2    s    0.467813 *  0.255683 *  0.367577 *  -2.87073    1.000000    
    267 O2    s    0.740472 *  0.203513 *  0.696522 *  -2.87073    1.000000    
    268 O2    s    0.217972 *  0.476429 *  0.532768 *  -2.87073    1.000000    
    269 O2    s    0.533373 *  0.731246 *  0.870062 *  -2.87073    1.000000    
    270 O2    s    0.262950 *  0.791458 *  0.199561 *  -2.87073    1.000000    
    271 O2    s    0.534905 *  0.788363 *  0.303340 *  -2.87073    1.000000    
    272 O2    s    0.266388 *  0.466768 *  0.973176 *  -2.87073    1.000000    
    273 O2    s    0.207819 *  0.741657 *  0.638783 *  -2.87073    1.000000    
    274 O2    s    0.468749 *  0.208723 *  0.802746 *  -2.87073    1.000000    
    275 O2    s    0.740078 *  0.528077 *  0.471810 *  -2.87073    1.000000    
    276 O2    s    0.785879 *  0.261868 *  0.139823 *  -2.87073    1.000000    
    277 O2    s    0.249980 *  0.331393 *  0.902331 *  -2.87073    1.000000    
    278 O3    s    0.687252 *  0.910391 *  0.237937 *  -3.33043    1.000000    
    279 O2    s    0.090642 *  0.760124 *  0.567603 *  -2.87073    1.000000    
    280 O2    s    0.755103 *  0.659492 *  0.402094 *  -2.87073    1.000000    
    281 O2    s    0.333522 *  0.088141 *  0.733441 *  -2.87073    1.000000    
    282 O2    s    0.905334 *  0.239335 *  0.069499 *  -2.87073    1.000000    
    283 O3    s    0.315790 *  0.223315 *  0.433181 *  -3.33043    1.000000    
    284 O2    s    0.906822 *  0.668788 *  0.102724 *  -2.87073    1.000000    
    285 O2    s    0.759255 *  0.088939 *  0.768639 *  -2.87073    1.000000    
    286 O2    s    0.670609 *  0.752986 *  0.939039 *  -2.87073    1.000000    
    287 O2    s    0.099163 *  0.335714 *  0.602870 *  -2.87073    1.000000    
    288 O2    s    0.247152 *  0.906566 *  0.269484 *  -2.87073    1.000000    
    289 O3    s    0.597835 *  0.575461 *  0.998492 *  -3.33043    1.000000    
    290 O2    s    0.444362 *  0.019342 *  0.319996 *  -2.87073    1.000000    
    291 O2    s    0.975597 *  0.414422 *  0.654791 *  -2.87073    1.000000    
    292 O3    s    0.417504 *  0.455661 *  0.494863 *  -3.33043    1.000000    
    293 O2    s    0.561095 *  0.972512 *  0.822647 *  -2.87073    1.000000    
    294 O2    s    0.021130 *  0.585097 *  0.156825 *  -2.87073    1.000000    
    295 O2    s    0.557760 *  0.575940 *  0.351767 *  -2.87073    1.000000    
    296 O2    s    0.024287 *  0.439377 *  0.016144 *  -2.87073    1.000000    
    297 O2    s    0.417885 *  0.972342 *  0.681071 *  -2.87073    1.000000    
    298 O2    s    0.447555 *  0.417262 *  0.849715 *  -2.87073    1.000000    
    299 O2    s    0.982201 *  0.562364 *  0.513655 *  -2.87073    1.000000    
    300 O3    s    0.583656 *  0.041116 *  0.176398 *  -3.33043    1.000000    
    301 O2    s    0.579294 *  0.153109 *  0.251023 *  -2.87073    1.000000    
    302 O2    s    0.849721 *  0.422807 *  0.583436 *  -2.87073    1.000000    
    303 O3    s    0.595479 *  0.415930 *  0.913122 *  -3.33043    1.000000    
    304 O2    s    0.423940 *  0.842247 *  0.752854 *  -2.87073    1.000000    
    305 O2    s    0.152443 *  0.575959 *  0.086586 *  -2.87073    1.000000    
    306 O2    s    0.422285 *  0.574319 *  0.420662 *  -2.87073    1.000000    
    307 F     s    0.490419 *  0.904910 *  0.238545 *  -1.56000    1.000000    
    308 F     s    0.095635 *  0.550481 *  0.584865 *  -1.56000    1.000000    
    309 F     s    0.480176 *  0.515962 *  0.932252 *  -1.56000    1.000000    
    310 F     s    0.547389 *  0.090091 *  0.751544 *  -1.56000    1.000000    
    311 F     s    0.910663 *  0.456784 *  0.087454 *  -1.56000    1.000000    
    312 F     s    0.512135 *  0.414985 *  0.432933 *  -1.56000    1.000000    
--------------------------------------------------------------------------------



********************************************************************************
*  General input information                                                   *
********************************************************************************

  Species output for all configurations : 

--------------------------------------------------------------------------------
  Species    Type    Atomic    Atomic    Charge       Radii (Angs)     Library
                     Number     Mass       (e)     Cova   Ionic  VDW   Symbol
--------------------------------------------------------------------------------
    Si       Core       14      28.09   4.000000   1.200  0.000  2.100          
    O1       Core        8      16.00   1.733957   0.730  0.000  1.360          
    O1       Shell       8       0.00  -3.733957   0.730  0.000  1.360          
    O2       Core        8      16.00   0.870733   0.730  0.000  1.360          
    O2       Shell       8       0.00  -2.870733   0.730  0.000  1.360          
    O3       Core        8      16.00   1.330431   0.730  0.000  1.360          
    O3       Shell       8       0.00  -3.330431   0.730  0.000  1.360          
    F        Core        9      19.00   0.560000   0.710  0.000  1.300          
    F        Shell       9       0.00  -1.560000   0.710  0.000  1.300          
    Ge       Core       32      72.61   4.000000   1.170  0.000  1.750          
--------------------------------------------------------------------------------


  Lattice summation method               =    Ewald          (3-D)
                                         =    Parry          (2-D)
                                         =    Saunders et al (1-D)
  Accuracy factor for lattice sums       =   12.000


  Time limit = Infinity

  Maximum range for interatomic potentials =        16.000000 Angstroms

  Taper potentials to zero over   1.0000 Angstroms using polynomial

  General interatomic potentials :

--------------------------------------------------------------------------------
Atom  Types   Potential         A         B         C         D     Cutoffs(Ang)
  1     2                                                            Min    Max 
--------------------------------------------------------------------------------
Si   c O1   s Buckingham    0.132E+04 0.318      10.1      0.00     0.000 16.000
Si   c O2   s Buckingham    0.132E+04 0.318      10.1      0.00     0.000 16.000
Si   c O3   s Buckingham    0.132E+04 0.318      10.1      0.00     0.000 16.000
Ge   c O1   s Buckingham    0.150E+04 0.326      16.8      0.00     0.000 16.000
Ge   c O2   s Buckingham    0.150E+04 0.326      16.8      0.00     0.000 16.000
Ge   c O3   s Buckingham    0.150E+04 0.326      16.8      0.00     0.000 16.000
O1   s O1   s Buckingham    0.228E+05 0.149      10.9      0.00     0.000 16.000
O1   s O2   s Buckingham    0.228E+05 0.149      10.9      0.00     0.000 16.000
O1   s O3   s Buckingham    0.228E+05 0.149      10.9      0.00     0.000 16.000
O2   s O2   s Buckingham    0.228E+05 0.149      10.9      0.00     0.000 16.000
O2   s O3   s Buckingham    0.228E+05 0.149      10.9      0.00     0.000 16.000
O3   s O3   s Buckingham    0.228E+05 0.149      10.9      0.00     0.000 16.000
Si   c F    s Buckingham     977.     0.282      0.00      0.00     0.000 16.000
Ge   c F    s Buckingham     681.     0.320      0.00      0.00     0.000 16.000
F    s F    s Buckingham     540.     0.262      0.00      0.00     0.000 16.000
O1   s F    s Buckingham    0.168E+04 0.268      0.00      0.00     0.000 16.000
O2   s F    s Buckingham    0.168E+04 0.268      0.00      0.00     0.000 16.000
O3   s F    s Buckingham    0.168E+04 0.268      0.00      0.00     0.000 16.000
O2   c O2   s Spring (c-s)   76.0      0.00      0.00      0.00     0.000  0.800
O3   c O3   s Spring (c-s)   128.      0.00      0.00      0.00     0.000  0.800
O1   c O1   s Spring (c-s)   180.      0.00      0.00      0.00     0.000  0.800
F    c F    s Spring (c-s)   33.5      0.00      0.00      0.00     0.000  0.800
--------------------------------------------------------------------------------

  General Three-body potentials :

  Harmonic form:

--------------------------------------------------------------------------------
Atom    Atom    Atom           Force Constants            Theta     Cutoffs  
  1       2       3     (eVrad**-2/eVrad**-3/eVrad**-4)   (deg)  1-2  1-3  2-3
--------------------------------------------------------------------------------
Si    c O1    s O1    s  1.261        0.0000    0.0000   109.470 0.00 0.00 0.00
                                                                 1.90 1.90 3.50
Si    c O1    s O2    s  1.261        0.0000    0.0000   109.470 0.00 0.00 0.00
                                                                 1.90 1.90 3.50
Si    c O2    s O2    s  1.261        0.0000    0.0000   109.470 0.00 0.00 0.00
                                                                 1.90 1.90 3.50
--------------------------------------------------------------------------------

********************************************************************************
*  Output for configuration   1                                                *
********************************************************************************


  Components of energy : 

--------------------------------------------------------------------------------
  Interatomic potentials     =        2066.66880523 eV
  Three-body potentials      =           0.49017832 eV
  Monopole - monopole (real) =       -6616.08004242 eV
  Monopole - monopole (recip)=       -3171.73735954 eV
  Monopole - monopole (total)=       -9787.81740196 eV
  Neutralising energy        =          -6.46084585 eV
--------------------------------------------------------------------------------
  Total lattice energy       =       -7727.11926427 eV
--------------------------------------------------------------------------------
  Total lattice energy       =         -745548.8892 kJ/(mole unit cells)
--------------------------------------------------------------------------------


  Number of variables =      939

  Maximum number of calculations  =          1000
  Maximum Hessian update interval =            10
  Maximum step size               =   1.000000000
  Maximum parameter tolerance     =   0.000010000
  Maximum function  tolerance     =   0.000010000
  Maximum gradient  tolerance     =   0.001000000
  Maximum gradient  component     =   0.010000000

  Symmetry not applied to optimisation

  Cell parameters to be optimised using strains

  Newton-Raphson optimiser to be used

  BFGS hessian update to be used

  Dumpfile to be written after every cycle

  Start of bulk optimisation :

  Cycle:      0 Energy:     -7727.119264  Gnorm:      0.007554  CPU:    1.064
  ** Hessian calculated **
  Cycle:      1 Energy:     -7727.212274  Gnorm:      0.005381  CPU:    2.991
  Cycle:      2 Energy:     -7727.213209  Gnorm:      0.000704  CPU:    4.389
  Cycle:      3 Energy:     -7727.213261  Gnorm:      0.000112  CPU:    5.786


  **** Optimisation achieved ****


  Final energy =   -7727.21326161 eV
  Final Gnorm  =       0.00001758

  Components of energy : 

--------------------------------------------------------------------------------
  Interatomic potentials     =        2067.47855467 eV
  Three-body potentials      =           0.51025334 eV
  Monopole - monopole (real) =       -6615.08798778 eV
  Monopole - monopole (recip)=       -3173.64934043 eV
  Monopole - monopole (total)=       -9788.73732821 eV
  Neutralising energy        =          -6.46474142 eV
--------------------------------------------------------------------------------
  Total lattice energy       =       -7727.21326161 eV
--------------------------------------------------------------------------------
  Total lattice energy       =         -745557.9585 kJ/(mole unit cells)
--------------------------------------------------------------------------------

  Final fractional coordinates of atoms :

--------------------------------------------------------------------------------
   No.  Atomic        x           y          z          Radius
        Label       (Frac)      (Frac)     (Frac)       (Angs) 
--------------------------------------------------------------------------------
     1  Si    c     0.699600    0.375700    0.033890    0.000000
     2  Si    c     0.627668    0.303912    0.369279    0.000000
     3  Si    c     0.683877    0.281227    0.698212    0.000000
     4  Si    c     0.317123    0.621690    0.537729    0.000000
     5  Si    c     0.387338    0.667129    0.871092    0.000000
     6  Si    c     0.321180    0.676920    0.201253    0.000000
     7  Si    c     0.388142    0.685509    0.303536    0.000000
     8  Si    c     0.328805    0.610678    0.973836    0.000000
     9  Si    c     0.306828    0.666492    0.638711    0.000000
    10  Si    c     0.630272    0.288352    0.799103    0.000000
    11  Si    c     0.694790    0.358406    0.471336    0.000000
    12  Si    c     0.699396    0.322670    0.135978    0.000000
    13  Ge    c     0.531790    0.422404    0.966019    0.000000
    14  Si    c     0.592365    0.100381    0.301217    0.000000
    15  Si    c     0.898632    0.456401    0.634180    0.000000
    16  Si    c     0.482787    0.574091    0.475219    0.000000
    17  Si    c     0.427979    0.879360    0.805003    0.000000
    18  Si    c     0.102987    0.513097    0.138960    0.000000
    19  Si    c     0.423582    0.515481    0.372095    0.000000
    20  Si    c     0.112386    0.571911    0.037615    0.000000
    21  Si    c     0.479095    0.873441    0.703330    0.000000
    22  Si    c     0.599161    0.458761    0.866450    0.000000
    23  Si    c     0.913659    0.410390    0.532733    0.000000
    24  Si    c     0.534103    0.106726    0.198130    0.000000
    25  Si    c     0.312178    0.386759    0.855010    0.000000
    26  Ge    c     0.590537    0.888792    0.192823    0.000000
    27  Si    c     0.114585    0.693561    0.521122    0.000000
    28  Si    c     0.707971    0.587123    0.355480    0.000000
    29  Si    c     0.405718    0.081090    0.686481    0.000000
    30  Si    c     0.901494    0.294257    0.022791    0.000000
    31  Ge    c     0.424991    0.299723    0.480686    0.000000
    32  Si    c     0.902555    0.595527    0.151612    0.000000
    33  Si    c     0.706733    0.087118    0.816923    0.000000
    34  Si    c     0.612221    0.693894    0.990752    0.000000
    35  Si    c     0.108112    0.386234    0.650658    0.000000
    36  Si    c     0.308536    0.888954    0.317902    0.000000
    37  Si    c     0.253136    0.323218    0.957749    0.000000
    38  Si    c     0.674311    0.897828    0.288438    0.000000
    39  Si    c     0.097200    0.736781    0.622084    0.000000
    40  Si    c     0.763283    0.645415    0.457338    0.000000
    41  Si    c     0.349518    0.079699    0.787843    0.000000
    42  Si    c     0.900592    0.237369    0.123917    0.000000
    43  Si    c     0.341437    0.230890    0.384812    0.000000
    44  Si    c     0.913858    0.654219    0.050409    0.000000
    45  Si    c     0.757111    0.073346    0.716041    0.000000
    46  Si    c     0.672274    0.738000    0.886829    0.000000
    47  Si    c     0.116420    0.336021    0.549491    0.000000
    48  Si    c     0.254247    0.896726    0.216049    0.000000
    49  Si    c     0.968079    0.114629    0.971403    0.000000
    50  Si    c     0.886956    0.835682    0.305093    0.000000
    51  Si    c     0.159032    0.015925    0.636344    0.000000
    52  Si    c     0.041635    0.870161    0.471322    0.000000
    53  Si    c     0.130691    0.141244    0.804446    0.000000
    54  Si    c     0.843687    0.957675    0.140354    0.000000
    55  Si    c     0.129608    0.957219    0.368993    0.000000
    56  Si    c     0.855391    0.876458    0.038826    0.000000
    57  Si    c     0.037869    0.137446    0.702751    0.000000
    58  Si    c     0.884876    0.020660    0.869863    0.000000
    59  Si    c     0.173971    0.113461    0.534332    0.000000
    60  Si    c     0.975473    0.842478    0.202600    0.000000
    61  O2    c     0.933026    0.996037    0.004813    0.000000
    62  O2    c     0.007129    0.910104    0.337576    0.000000
    63  O2    c     0.082914    0.058380    0.671096    0.000000
    64  O2    c     0.079404    0.989828    0.503832    0.000000
    65  O2    c     0.010837    0.062560    0.838633    0.000000
    66  O2    c     0.937011    0.928530    0.172132    0.000000
    67  O2    c     0.350761    0.566655    0.338807    0.000000
    68  O2    c     0.427158    0.746204    0.672206    0.000000
    69  O2    c     0.240813    0.647218    0.005371    0.000000
    70  O2    c     0.670655    0.417029    0.828315    0.000000
    71  O2    c     0.574373    0.237744    0.169106    0.000000
    72  O2    c     0.795230    0.330550    0.498485    0.000000
    73  O3    c     0.583381    0.336780    0.001658    0.000000
    74  O2    c     0.768208    0.403111    0.664652    0.000000
    75  O2    c     0.665380    0.223143    0.334443    0.000000
    76  O2    c     0.442727    0.663381    0.505098    0.000000
    77  O2    c     0.222518    0.551727    0.173223    0.000000
    78  O2    c     0.352212    0.754596    0.838734    0.000000
    79  O2    c     0.120068    0.204878    0.976004    0.000000
    80  O2    c     0.794161    0.895754    0.313783    0.000000
    81  O2    c     0.093627    0.861133    0.642199    0.000000
    82  O2    c     0.888101    0.771165    0.476569    0.000000
    83  O2    c     0.222937    0.078849    0.808632    0.000000
    84  O2    c     0.896120    0.111257    0.145873    0.000000
    85  O2    c     0.221018    0.109941    0.359950    0.000000
    86  O2    c     0.914327    0.781868    0.030685    0.000000
    87  O2    c     0.884112    0.072444    0.696739    0.000000
    88  O2    c     0.794224    0.866443    0.865423    0.000000
    89  O2    c     0.121487    0.215110    0.527980    0.000000
    90  O2    c     0.129071    0.898017    0.196817    0.000000
    91  O2    c     0.942003    0.853889    0.254658    0.000000
    92  O2    c     0.146511    0.058718    0.586143    0.000000
    93  O2    c     0.929423    0.060781    0.920882    0.000000
    94  O2    c     0.075496    0.127940    0.754253    0.000000
    95  O2    c     0.873311    0.928076    0.089440    0.000000
    96  O2    c     0.077210    0.921958    0.419983    0.000000
    97  O2    c     0.898627    0.196610    0.983684    0.000000
    98  O2    c     0.803957    0.682276    0.316311    0.000000
    99  O2    c     0.310072    0.081249    0.647896    0.000000
   100  O2    c     0.116073    0.792037    0.482459    0.000000
   101  O2    c     0.214845    0.292675    0.816456    0.000000
   102  O3    c     0.696674    0.880224    0.151331    0.000000
   103  O2    c     0.213085    0.887385    0.357495    0.000000
   104  O2    c     0.703962    0.802854    0.026701    0.000000
   105  O2    c     0.105990    0.288445    0.689732    0.000000
   106  O2    c     0.805293    0.090948    0.855215    0.000000
   107  O3    c     0.320297    0.182629    0.522315    0.000000
   108  O2    c     0.901193    0.691988    0.190169    0.000000
   109  O2    c     0.330846    0.630521    0.253670    0.000000
   110  O2    c     0.369763    0.673452    0.588554    0.000000
   111  O2    c     0.331640    0.661926    0.921951    0.000000
   112  O2    c     0.686175    0.340809    0.748065    0.000000
   113  O2    c     0.646093    0.325057    0.085871    0.000000
   114  O2    c     0.684925    0.304111    0.419152    0.000000
   115  O3    c     0.365825    0.304410    0.976230    0.000000
   116  O2    c     0.677442    0.029620    0.304959    0.000000
   117  O2    c     0.964546    0.611839    0.639208    0.000000
   118  O2    c     0.639620    0.654426    0.474583    0.000000
   119  O2    c     0.340752    0.948590    0.808009    0.000000
   120  O2    c     0.032906    0.357558    0.142323    0.000000
   121  O2    c     0.338189    0.360194    0.368653    0.000000
   122  O2    c     0.047930    0.663526    0.033098    0.000000
   123  O2    c     0.634840    0.939727    0.699480    0.000000
   124  O2    c     0.682309    0.617200    0.867000    0.000000
   125  O2    c     0.984416    0.325207    0.530931    0.000000
   126  O2    c     0.377068    0.029879    0.199044    0.000000
   127  O2    c     0.772003    0.299610    0.014828    0.000000
   128  O2    c     0.700700    0.449970    0.349193    0.000000
   129  O2    c     0.540144    0.213231    0.677397    0.000000
   130  O2    c     0.251176    0.698413    0.514730    0.000000
   131  O2    c     0.316192    0.523822    0.849967    0.000000
   132  O3    c     0.457694    0.738108    0.176868    0.000000
   133  O2    c     0.315414    0.758505    0.323931    0.000000
   134  O2    c     0.472909    0.687822    0.993626    0.000000
   135  O2    c     0.237559    0.521382    0.660077    0.000000
   136  O2    c     0.703967    0.220263    0.823060    0.000000
   137  O3    c     0.559337    0.282556    0.496419    0.000000
   138  O2    c     0.767410    0.463707    0.159436    0.000000
   139  O2    c     0.791275    0.531806    0.029494    0.000000
   140  O2    c     0.472937    0.235895    0.366608    0.000000
   141  O2    c     0.756070    0.196973    0.694236    0.000000
   142  O2    c     0.239465    0.466792    0.531205    0.000000
   143  O2    c     0.541309    0.730368    0.869539    0.000000
   144  O2    c     0.259819    0.772538    0.198779    0.000000
   145  O2    c     0.542770    0.770930    0.306388    0.000000
   146  O2    c     0.264221    0.456279    0.976537    0.000000
   147  O2    c     0.222582    0.738680    0.642918    0.000000
   148  O2    c     0.474474    0.207855    0.805412    0.000000
   149  O2    c     0.758046    0.515149    0.474603    0.000000
   150  O2    c     0.777030    0.244435    0.142252    0.000000
   151  O2    c     0.244581    0.316081    0.902304    0.000000
   152  O3    c     0.700689    0.896036    0.235894    0.000000
   153  O2    c     0.102603    0.759500    0.567546    0.000000
   154  O2    c     0.774516    0.654836    0.402461    0.000000
   155  O2    c     0.331814    0.078744    0.733343    0.000000
   156  O2    c     0.902309    0.220859    0.069273    0.000000
   157  O3    c     0.315652    0.200760    0.437506    0.000000
   158  O2    c     0.909904    0.671688    0.104970    0.000000
   159  O2    c     0.776636    0.079959    0.770502    0.000000
   160  O2    c     0.684146    0.751348    0.941233    0.000000
   161  O2    c     0.113710    0.316999    0.604235    0.000000
   162  O2    c     0.242334    0.892914    0.271027    0.000000
   163  O3    c     0.602680    0.561235    0.002651    0.000000
   164  O2    c     0.449901    0.010989    0.322739    0.000000
   165  O2    c     0.979835    0.396638    0.657835    0.000000
   166  O3    c     0.424281    0.438589    0.501019    0.000000
   167  O2    c     0.568792    0.960949    0.827555    0.000000
   168  O2    c     0.025899    0.578850    0.162116    0.000000
   169  O2    c     0.566370    0.568529    0.350940    0.000000
   170  O2    c     0.030714    0.431733    0.014301    0.000000
   171  O2    c     0.421484    0.956058    0.679203    0.000000
   172  O2    c     0.453890    0.407406    0.847017    0.000000
   173  O2    c     0.994247    0.553503    0.510147    0.000000
   174  O3    c     0.591595    0.029246    0.172482    0.000000
   175  O2    c     0.589124    0.149637    0.250156    0.000000
   176  O2    c     0.852188    0.407808    0.582644    0.000000
   177  O3    c     0.603866    0.401087    0.914506    0.000000
   178  O2    c     0.426242    0.821952    0.754833    0.000000
   179  O2    c     0.164732    0.570689    0.088618    0.000000
   180  O2    c     0.427095    0.565516    0.423456    0.000000
   181  F     c     0.487231    0.890469    0.242105    0.000000
   182  F     c     0.111813    0.542647    0.585717    0.000000
   183  F     c     0.478870    0.515169    0.929669    0.000000
   184  F     c     0.555426    0.080924    0.752511    0.000000
   185  F     c     0.909985    0.450444    0.088504    0.000000
   186  F     c     0.529517    0.407557    0.431497    0.000000
   187  O2    s     0.928268    0.996172    0.004799    0.000000
   188  O2    s     0.007498    0.906987    0.337480    0.000000
   189  O2    s     0.086234    0.062621    0.670837    0.000000
   190  O2    s     0.084798    0.988933    0.503271    0.000000
   191  O2    s     0.010308    0.066659    0.838267    0.000000
   192  O2    s     0.931830    0.921686    0.172353    0.000000
   193  O2    s     0.362181    0.573610    0.338623    0.000000
   194  O2    s     0.420128    0.751185    0.671970    0.000000
   195  O2    s     0.237350    0.635815    0.005224    0.000000
   196  O2    s     0.659235    0.407927    0.829130    0.000000
   197  O2    s     0.582515    0.232730    0.168819    0.000000
   198  O2    s     0.796772    0.341734    0.499116    0.000000
   199  O3    s     0.592686    0.347095    0.002747    0.000000
   200  O2    s     0.772893    0.395892    0.665008    0.000000
   201  O2    s     0.653885    0.218937    0.334665    0.000000
   202  O2    s     0.434214    0.650242    0.505353    0.000000
   203  O2    s     0.221039    0.561256    0.172788    0.000000
   204  O2    s     0.363598    0.757901    0.838775    0.000000
   205  O2    s     0.117745    0.207883    0.973480    0.000000
   206  O2    s     0.792027    0.889568    0.310396    0.000000
   207  O2    s     0.100812    0.864410    0.639534    0.000000
   208  O2    s     0.890676    0.768021    0.474017    0.000000
   209  O2    s     0.226191    0.085564    0.806072    0.000000
   210  O2    s     0.891299    0.109207    0.142996    0.000000
   211  O2    s     0.223406    0.105910    0.363322    0.000000
   212  O2    s     0.908135    0.778645    0.033526    0.000000
   213  O2    s     0.887152    0.079360    0.699344    0.000000
   214  O2    s     0.791168    0.869413    0.868080    0.000000
   215  O2    s     0.126199    0.217942    0.530910    0.000000
   216  O2    s     0.126553    0.892126    0.199446    0.000000
   217  O2    s     0.939297    0.850480    0.254774    0.000000
   218  O2    s     0.150833    0.059551    0.586466    0.000000
   219  O2    s     0.928621    0.062178    0.920651    0.000000
   220  O2    s     0.077528    0.130485    0.754177    0.000000
   221  O2    s     0.868100    0.925249    0.088982    0.000000
   222  O2    s     0.079235    0.920180    0.419864    0.000000
   223  O2    s     0.906415    0.197559    0.986274    0.000000
   224  O2    s     0.802236    0.687861    0.319337    0.000000
   225  O2    s     0.304161    0.074356    0.650714    0.000000
   226  O2    s     0.107999    0.790241    0.485240    0.000000
   227  O2    s     0.215995    0.286506    0.819127    0.000000
   228  O3    s     0.705974    0.889407    0.152853    0.000000
   229  O2    s     0.214543    0.894743    0.354512    0.000000
   230  O2    s     0.710220    0.799353    0.024274    0.000000
   231  O2    s     0.098915    0.282344    0.687106    0.000000
   232  O2    s     0.803633    0.083024    0.852813    0.000000
   233  O3    s     0.310793    0.182543    0.520956    0.000000
   234  O2    s     0.909323    0.698375    0.187592    0.000000
   235  O2    s     0.335945    0.640619    0.253971    0.000000
   236  O2    s     0.357883    0.667399    0.588426    0.000000
   237  O2    s     0.337202    0.657322    0.921821    0.000000
   238  O2    s     0.680112    0.329128    0.748207    0.000000
   239  O2    s     0.657087    0.329817    0.086131    0.000000
   240  O2    s     0.679851    0.309279    0.418942    0.000000
   241  O3    s     0.364735    0.314273    0.973531    0.000000
   242  O2    s     0.668177    0.023804    0.302891    0.000000
   243  O2    s     0.971653    0.608954    0.636897    0.000000
   244  O2    s     0.636998    0.645351    0.472793    0.000000
   245  O2    s     0.350705    0.955000    0.805599    0.000000
   246  O2    s     0.026535    0.361489    0.140035    0.000000
   247  O2    s     0.347455    0.363391    0.370662    0.000000
   248  O2    s     0.040883    0.653217    0.035333    0.000000
   249  O2    s     0.631626    0.946823    0.701605    0.000000
   250  O2    s     0.673255    0.614657    0.869041    0.000000
   251  O2    s     0.990747    0.335416    0.533089    0.000000
   252  O2    s     0.379673    0.023331    0.200789    0.000000
   253  O2    s     0.779175    0.306627    0.017654    0.000000
   254  O2    s     0.693878    0.449569    0.351980    0.000000
   255  O2    s     0.540920    0.206406    0.680538    0.000000
   256  O2    s     0.243486    0.689982    0.517822    0.000000
   257  O2    s     0.323181    0.524503    0.852701    0.000000
   258  O3    s     0.452718    0.742233    0.180566    0.000000
   259  O2    s     0.322215    0.764985    0.321151    0.000000
   260  O2    s     0.471649    0.680328    0.991224    0.000000
   261  O2    s     0.231051    0.522114    0.656849    0.000000
   262  O2    s     0.696703    0.213140    0.819931    0.000000
   263  O3    s     0.564114    0.291663    0.492670    0.000000
   264  O2    s     0.774717    0.463160    0.156174    0.000000
   265  O2    s     0.795815    0.529619    0.032224    0.000000
   266  O2    s     0.476023    0.242699    0.368750    0.000000
   267  O2    s     0.748537    0.192254    0.696987    0.000000
   268  O2    s     0.234144    0.468898    0.533833    0.000000
   269  O2    s     0.538717    0.724282    0.871552    0.000000
   270  O2    s     0.265464    0.776926    0.200931    0.000000
   271  O2    s     0.539569    0.774708    0.304267    0.000000
   272  O2    s     0.270258    0.459436    0.974330    0.000000
   273  O2    s     0.217845    0.730829    0.640271    0.000000
   274  O2    s     0.476983    0.202211    0.802904    0.000000
   275  O2    s     0.752252    0.514014    0.472402    0.000000
   276  O2    s     0.782410    0.251974    0.139659    0.000000
   277  O2    s     0.252786    0.324456    0.902738    0.000000
   278  O3    s     0.690731    0.895805    0.238760    0.000000
   279  O2    s     0.103276    0.750171    0.568422    0.000000
   280  O2    s     0.766189    0.646576    0.403213    0.000000
   281  O2    s     0.341391    0.079086    0.734265    0.000000
   282  O2    s     0.902073    0.230245    0.070154    0.000000
   283  O3    s     0.325637    0.210559    0.434778    0.000000
   284  O2    s     0.909564    0.661809    0.104197    0.000000
   285  O2    s     0.767172    0.080004    0.769591    0.000000
   286  O2    s     0.675902    0.744293    0.940079    0.000000
   287  O2    s     0.113410    0.326312    0.603402    0.000000
   288  O2    s     0.250730    0.892886    0.270358    0.000000
   289  O3    s     0.598882    0.566680    0.998974    0.000000
   290  O2    s     0.449368    0.006904    0.319950    0.000000
   291  O2    s     0.985270    0.401927    0.654591    0.000000
   292  O3    s     0.430521    0.442293    0.496910    0.000000
   293  O2    s     0.568697    0.965907    0.824074    0.000000
   294  O2    s     0.020628    0.573724    0.158603    0.000000
   295  O2    s     0.566841    0.564869    0.353674    0.000000
   296  O2    s     0.025554    0.431899    0.017616    0.000000
   297  O2    s     0.426007    0.961075    0.682529    0.000000
   298  O2    s     0.452532    0.410313    0.849824    0.000000
   299  O2    s     0.998855    0.553580    0.513677    0.000000
   300  O3    s     0.585373    0.026797    0.176597    0.000000
   301  O2    s     0.584209    0.140198    0.250640    0.000000
   302  O2    s     0.863374    0.413162    0.582831    0.000000
   303  O3    s     0.598715    0.408601    0.912721    0.000000
   304  O2    s     0.431893    0.833270    0.754756    0.000000
   305  O2    s     0.153131    0.564997    0.088522    0.000000
   306  O2    s     0.432071    0.560987    0.423015    0.000000
   307  F     s     0.493975    0.890263    0.239124    0.000000
   308  F     s     0.112156    0.543099    0.585674    0.000000
   309  F     s     0.482853    0.508570    0.932243    0.000000
   310  F     s     0.555487    0.080985    0.752604    0.000000
   311  F     s     0.910625    0.450966    0.088709    0.000000
   312  F     s     0.523024    0.400712    0.434426    0.000000
--------------------------------------------------------------------------------

  Final Cartesian lattice vectors (Angstroms) :

       11.976312    0.002770    0.014704
       -5.920178   10.380394    0.004176
        0.230069    0.333630   29.347275


  Final cell parameters and derivatives :

--------------------------------------------------------------------------------
       a           11.976321 Angstrom     dE/de1(xx)     0.003880 eV/strain
       b           11.949941 Angstrom     dE/de2(yy)     0.003932 eV/strain
       c           29.350073 Angstrom     dE/de3(zz)     0.003059 eV/strain
       alpha       89.636729 Degrees      dE/de4(yz)    -0.000103 eV/strain
       beta        89.480373 Degrees      dE/de5(xz)     0.000290 eV/strain
       gamma      119.683802 Degrees      dE/de6(xy)    -0.000215 eV/strain
--------------------------------------------------------------------------------

  Primitive cell volume =          3648.819335 Angs**3

  Density of cell =      1.753469 g/cm**3

  Non-primitive cell volume =          3648.819335 Angs**3


  Final internal derivatives :

--------------------------------------------------------------------------------
   No.  Atomic          a             b             c           Radius
        Label          (eV)          (eV)          (eV)        (eV/Angs)
--------------------------------------------------------------------------------
      1 Si    c       0.000000      0.000000      0.000000      0.000000
      2 Si    c      -0.000222      0.000107      0.000042      0.000000
      3 Si    c       0.000017     -0.000101     -0.000248      0.000000
      4 Si    c      -0.000428      0.000380      0.001346      0.000000
      5 Si    c      -0.000153      0.000279      0.000460      0.000000
      6 Si    c       0.000255      0.000043      0.000010      0.000000
      7 Si    c       0.000067      0.000195     -0.000458      0.000000
      8 Si    c      -0.000126      0.000207     -0.000398      0.000000
      9 Si    c      -0.000285      0.000096      0.000251      0.000000
     10 Si    c      -0.000003     -0.000150     -0.000020      0.000000
     11 Si    c      -0.001085      0.000535     -0.001091      0.000000
     12 Si    c       0.000349      0.000048     -0.000638      0.000000
     13 Ge    c       0.000700     -0.000735     -0.002194      0.000000
     14 Si    c      -0.000299      0.000377      0.000290      0.000000
     15 Si    c       0.000260     -0.000046      0.000772      0.000000
     16 Si    c       0.000409     -0.000406     -0.000565      0.000000
     17 Si    c       0.000087     -0.000108      0.000509      0.000000
     18 Si    c      -0.000394      0.000568     -0.000435      0.000000
     19 Si    c       0.000187     -0.000126     -0.000906      0.000000
     20 Si    c       0.000018     -0.000207      0.000388      0.000000
     21 Si    c       0.000058     -0.000001     -0.000249      0.000000
     22 Si    c       0.000512     -0.000672      0.002235      0.000000
     23 Si    c       0.000030      0.000062      0.000415      0.000000
     24 Si    c      -0.000139     -0.000110      0.001664      0.000000
     25 Si    c      -0.000298     -0.000321      0.000310      0.000000
     26 Ge    c       0.000699     -0.000666     -0.001073      0.000000
     27 Si    c      -0.000206      0.000351     -0.000281      0.000000
     28 Si    c      -0.000009      0.000115     -0.000709      0.000000
     29 Si    c      -0.000105      0.000102     -0.000382      0.000000
     30 Si    c       0.000613     -0.001204      0.000684      0.000000
     31 Ge    c       0.000271      0.000020     -0.000450      0.000000
     32 Si    c       0.000036      0.000088      0.000625      0.000000
     33 Si    c       0.000139     -0.000120      0.000221      0.000000
     34 Si    c      -0.000062      0.000335     -0.000722      0.000000
     35 Si    c      -0.000025     -0.000279      0.000656      0.000000
     36 Si    c      -0.000222      0.000229      0.000109      0.000000
     37 Si    c      -0.000028     -0.000337     -0.001173      0.000000
     38 Si    c       0.000151     -0.000221      0.000066      0.000000
     39 Si    c      -0.000055      0.000041      0.000143      0.000000
     40 Si    c       0.000039      0.000011     -0.000058      0.000000
     41 Si    c      -0.000146      0.000118      0.000268      0.000000
     42 Si    c       0.000404     -0.000417     -0.000474      0.000000
     43 Si    c       0.000010     -0.000051     -0.000758      0.000000
     44 Si    c       0.000660      0.000640      0.000060      0.000000
     45 Si    c       0.000114     -0.000099     -0.000188      0.000000
     46 Si    c       0.000096      0.000408      0.000110      0.000000
     47 Si    c       0.000171     -0.000269      0.000062      0.000000
     48 Si    c      -0.000154      0.000182      0.000508      0.000000
     49 Si    c      -0.000476      0.000190     -0.001737      0.000000
     50 Si    c       0.000122     -0.000183     -0.000954      0.000000
     51 Si    c       0.000141      0.000005      0.000234      0.000000
     52 Si    c      -0.000281      0.000447      0.000784      0.000000
     53 Si    c       0.000057      0.000004      0.000444      0.000000
     54 Si    c       0.000231     -0.000459     -0.000594      0.000000
     55 Si    c       0.000136     -0.000092      0.000220      0.000000
     56 Si    c      -0.000235      0.000250      0.001537      0.000000
     57 Si    c      -0.000115      0.000235      0.000086      0.000000
     58 Si    c       0.000032      0.000036      0.001225      0.000000
     59 Si    c      -0.000136     -0.000387     -0.000183      0.000000
     60 Si    c      -0.000329      0.000132      0.000029      0.000000
     61 O2    c       0.000136      0.000379     -0.001103      0.000000
     62 O2    c      -0.000107      0.000127      0.000103      0.000000
     63 O2    c       0.000136     -0.000157     -0.000203      0.000000
     64 O2    c      -0.000247     -0.000053     -0.000266      0.000000
     65 O2    c       0.000235     -0.000050     -0.000350      0.000000
     66 O2    c       0.000142     -0.000087      0.000596      0.000000
     67 O2    c      -0.000041     -0.000258      0.000705      0.000000
     68 O2    c       0.000205     -0.000020      0.000296      0.000000
     69 O2    c      -0.000104      0.000180      0.000034      0.000000
     70 O2    c      -0.000044      0.000337      0.000335      0.000000
     71 O2    c      -0.000980      0.000292      0.000626      0.000000
     72 O2    c       0.001246     -0.000891      0.001099      0.000000
     73 O3    c      -0.003014      0.001331     -0.004036      0.000000
     74 O2    c      -0.000151      0.000195      0.000018      0.000000
     75 O2    c       0.000243     -0.000419     -0.000855      0.000000
     76 O2    c       0.000611      0.000337     -0.000562      0.000000
     77 O2    c       0.000080     -0.000304      0.000282      0.000000
     78 O2    c      -0.000120      0.000279     -0.000684      0.000000
     79 O2    c      -0.000003      0.000208     -0.000109      0.000000
     80 O2    c      -0.000171      0.000100     -0.000195      0.000000
     81 O2    c      -0.000069      0.000019      0.000133      0.000000
     82 O2    c      -0.000473     -0.000160      0.000231      0.000000
     83 O2    c       0.000037     -0.000066     -0.000082      0.000000
     84 O2    c      -0.000320      0.000818      0.000164      0.000000
     85 O2    c      -0.000061     -0.000053     -0.000158      0.000000
     86 O2    c       0.000771     -0.000943     -0.000518      0.000000
     87 O2    c       0.000095     -0.000007      0.000060      0.000000
     88 O2    c      -0.000017     -0.000072      0.000122      0.000000
     89 O2    c      -0.000843      0.001195     -0.000800      0.000000
     90 O2    c       0.000440     -0.000092     -0.000088      0.000000
     91 O2    c      -0.000271      0.000197      0.002075      0.000000
     92 O2    c      -0.000015     -0.000079      0.001059      0.000000
     93 O2    c       0.000075     -0.000042      0.001303      0.000000
     94 O2    c      -0.000164      0.000015     -0.000933      0.000000
     95 O2    c       0.000087     -0.000324     -0.001002      0.000000
     96 O2    c       0.000063      0.000185     -0.002225      0.000000
     97 O2    c      -0.000087      0.000093     -0.000081      0.000000
     98 O2    c       0.000041     -0.000016      0.000117      0.000000
     99 O2    c      -0.000063      0.000026     -0.000060      0.000000
    100 O2    c       0.001020     -0.000815      0.000307      0.000000
    101 O2    c       0.000012      0.000120      0.000119      0.000000
    102 O3    c      -0.000110     -0.000083     -0.000206      0.000000
    103 O2    c       0.000006     -0.000023     -0.000039      0.000000
    104 O2    c      -0.000449      0.000277      0.000040      0.000000
    105 O2    c      -0.000004     -0.000032     -0.000112      0.000000
    106 O2    c      -0.000026      0.000025     -0.000165      0.000000
    107 O3    c       0.001396     -0.000251     -0.000515      0.000000
    108 O2    c      -0.000043     -0.000142     -0.000063      0.000000
    109 O2    c      -0.000108     -0.000067     -0.000234      0.000000
    110 O2    c       0.000191     -0.000018     -0.000393      0.000000
    111 O2    c       0.000009      0.000005     -0.000313      0.000000
    112 O2    c       0.000007      0.000177      0.000232      0.000000
    113 O2    c      -0.000994      0.000897     -0.004111      0.000000
    114 O2    c       0.000154     -0.000143      0.000110      0.000000
    115 O3    c       0.000717     -0.000065      0.000067      0.000000
    116 O2    c       0.000121     -0.000051      0.000142      0.000000
    117 O2    c      -0.000087     -0.000003      0.000213      0.000000
    118 O2    c       0.000131     -0.000012     -0.000126      0.000000
    119 O2    c      -0.000021     -0.000046      0.000074      0.000000
    120 O2    c       0.000069     -0.000479      0.000149      0.000000
    121 O2    c      -0.000067      0.000044     -0.000187      0.000000
    122 O2    c       0.000087      0.000081     -0.000352      0.000000
    123 O2    c      -0.000054     -0.000028     -0.000038      0.000000
    124 O2    c       0.000265     -0.000189     -0.000219      0.000000
    125 O2    c       0.000123     -0.000210     -0.000110      0.000000
    126 O2    c      -0.000047      0.000050      0.000281      0.000000
    127 O2    c      -0.001158      0.000543     -0.000738      0.000000
    128 O2    c       0.000192     -0.000278     -0.000060      0.000000
    129 O2    c       0.000060      0.000061      0.000012      0.000000
    130 O2    c       0.000312     -0.000047     -0.000295      0.000000
    131 O2    c      -0.000122      0.000079     -0.000309      0.000000
    132 O3    c      -0.000049     -0.000007      0.000502      0.000000
    133 O2    c       0.000103     -0.000240      0.000193      0.000000
    134 O2    c       0.000070      0.000036      0.000150      0.000000
    135 O2    c       0.000268      0.000309      0.000214      0.000000
    136 O2    c      -0.000006      0.000131      0.000058      0.000000
    137 O3    c       0.000218     -0.000205     -0.000435      0.000000
    138 O2    c      -0.000087      0.000357      0.000635      0.000000
    139 O2    c      -0.000973     -0.000525     -0.002698      0.000000
    140 O2    c       0.000042     -0.000043     -0.000145      0.000000
    141 O2    c      -0.000015      0.000130     -0.000123      0.000000
    142 O2    c       0.000340     -0.000440     -0.000716      0.000000
    143 O2    c      -0.000246      0.000100     -0.000233      0.000000
    144 O2    c      -0.000028     -0.000082     -0.000350      0.000000
    145 O2    c       0.000049     -0.000008     -0.000020      0.000000
    146 O2    c      -0.000333      0.000294      0.000146      0.000000
    147 O2    c       0.000282     -0.000170      0.000306      0.000000
    148 O2    c       0.000058      0.000075      0.000093      0.000000
    149 O2    c       0.000106     -0.000050      0.000260      0.000000
    150 O2    c      -0.000510      0.000147      0.001299      0.000000
    151 O2    c       0.000097      0.000112     -0.000562      0.000000
    152 O3    c      -0.000256      0.000349     -0.000179      0.000000
    153 O2    c      -0.000170      0.000245      0.000494      0.000000
    154 O2    c       0.000183      0.000107      0.000909      0.000000
    155 O2    c      -0.000126      0.000072     -0.000084      0.000000
    156 O2    c      -0.000039     -0.000093      0.000356      0.000000
    157 O3    c      -0.000463     -0.000063      0.000162      0.000000
    158 O2    c      -0.000038      0.000266      0.000419      0.000000
    159 O2    c       0.000093     -0.000035      0.000190      0.000000
    160 O2    c      -0.000025     -0.000063      0.001430      0.000000
    161 O2    c       0.000125     -0.000252     -0.000554      0.000000
    162 O2    c      -0.000085      0.000046     -0.000596      0.000000
    163 O3    c       0.000647     -0.000402      0.002019      0.000000
    164 O2    c       0.000132      0.000093      0.000099      0.000000
    165 O2    c      -0.000429      0.000299      0.000136      0.000000
    166 O3    c      -0.000347      0.000241      0.001416      0.000000
    167 O2    c      -0.000062     -0.000023     -0.000087      0.000000
    168 O2    c       0.000429     -0.000279      0.000036      0.000000
    169 O2    c      -0.000279      0.000116     -0.000031      0.000000
    170 O2    c       0.000754      0.001083      0.000080      0.000000
    171 O2    c       0.000045     -0.000109     -0.000131      0.000000
    172 O2    c       0.000083     -0.000057     -0.000363      0.000000
    173 O2    c      -0.000272     -0.000155     -0.000762      0.000000
    174 O3    c       0.000535     -0.000128     -0.002021      0.000000
    175 O2    c      -0.000041      0.000072     -0.000307      0.000000
    176 O2    c      -0.000131     -0.000094     -0.000819      0.000000
    177 O3    c      -0.001071      0.000928      0.001696      0.000000
    178 O2    c      -0.000006     -0.000115     -0.000073      0.000000
    179 O2    c       0.000067      0.000004     -0.000185      0.000000
    180 O2    c      -0.000180      0.000284      0.000720      0.000000
    181 F     c      -0.000133     -0.000009      0.000747      0.000000
    182 F     c      -0.000066      0.000018      0.000083      0.000000
    183 F     c       0.000054     -0.000079     -0.000887      0.000000
    184 F     c      -0.000013      0.000021     -0.000067      0.000000
    185 F     c       0.000134     -0.000177      0.000211      0.000000
    186 F     c       0.000030     -0.000091      0.000286      0.000000
    187 O2    s       0.000032      0.000243      0.000276      0.000000
    188 O2    s      -0.000023      0.000072     -0.000207      0.000000
    189 O2    s      -0.000130      0.000041      0.000102      0.000000
    190 O2    s      -0.000217      0.000125      0.000231      0.000000
    191 O2    s      -0.000093     -0.000012      0.000318      0.000000
    192 O2    s       0.000143     -0.000024     -0.000269      0.000000
    193 O2    s      -0.000062      0.000097     -0.000176      0.000000
    194 O2    s       0.000133     -0.000062     -0.000054      0.000000
    195 O2    s       0.000040      0.000063      0.000041      0.000000
    196 O2    s      -0.000109     -0.000010     -0.000052      0.000000
    197 O2    s       0.000857     -0.000827     -0.000157      0.000000
    198 O2    s      -0.000399      0.000231     -0.000225      0.000000
    199 O3    s       0.001454     -0.000590      0.002457      0.000000
    200 O2    s      -0.000141      0.000050     -0.000059      0.000000
    201 O2    s       0.000085      0.000029     -0.000057      0.000000
    202 O2    s      -0.000246     -0.000204     -0.000109      0.000000
    203 O2    s       0.000207     -0.000024      0.000266      0.000000
    204 O2    s       0.000041     -0.000156      0.000381      0.000000
    205 O2    s      -0.000071     -0.000110      0.000106      0.000000
    206 O2    s       0.000043     -0.000105      0.000281      0.000000
    207 O2    s      -0.000051      0.000086      0.000187      0.000000
    208 O2    s      -0.000456      0.000150      0.000524      0.000000
    209 O2    s       0.000013      0.000000      0.000603      0.000000
    210 O2    s       0.000345     -0.000166      0.000119      0.000000
    211 O2    s      -0.000022      0.000037     -0.000190      0.000000
    212 O2    s      -0.000142      0.000407     -0.000342      0.000000
    213 O2    s       0.000073     -0.000092     -0.000412      0.000000
    214 O2    s      -0.000042      0.000091     -0.000380      0.000000
    215 O2    s      -0.000473      0.000172     -0.000014      0.000000
    216 O2    s       0.000040      0.000040     -0.000387      0.000000
    217 O2    s       0.000009     -0.000004     -0.000246      0.000000
    218 O2    s      -0.000135     -0.000237      0.000661      0.000000
    219 O2    s       0.000134     -0.000063     -0.000401      0.000000
    220 O2    s      -0.000001      0.000023      0.000256      0.000000
    221 O2    s       0.000119      0.000218      0.000521      0.000000
    222 O2    s      -0.000040      0.000286     -0.000130      0.000000
    223 O2    s       0.000322     -0.000526     -0.000538      0.000000
    224 O2    s       0.000042      0.000058     -0.000812      0.000000
    225 O2    s       0.000060      0.000005     -0.000058      0.000000
    226 O2    s       0.000329     -0.000122      0.000168      0.000000
    227 O2    s       0.000027      0.000053      0.000165      0.000000
    228 O3    s      -0.000364      0.000070      0.000441      0.000000
    229 O2    s       0.000061     -0.000095      0.000237      0.000000
    230 O2    s      -0.000388      0.000060     -0.000125      0.000000
    231 O2    s       0.000056     -0.000116      0.000677      0.000000
    232 O2    s      -0.000016      0.000012      0.000050      0.000000
    233 O3    s       0.000455     -0.000380     -0.000147      0.000000
    234 O2    s      -0.000071     -0.000050     -0.000252      0.000000
    235 O2    s      -0.000008     -0.000062     -0.000241      0.000000
    236 O2    s      -0.000037     -0.000039     -0.000078      0.000000
    237 O2    s       0.000085     -0.000059     -0.000041      0.000000
    238 O2    s      -0.000035      0.000007     -0.000160      0.000000
    239 O2    s       0.000413     -0.000251      0.001422      0.000000
    240 O2    s       0.000149     -0.000141     -0.000027      0.000000
    241 O3    s      -0.000243     -0.000196      0.000735      0.000000
    242 O2    s      -0.000083      0.000117     -0.000087      0.000000
    243 O2    s      -0.000216      0.000216      0.000035      0.000000
    244 O2    s      -0.000049      0.000052      0.000293      0.000000
    245 O2    s       0.000005     -0.000014      0.000166      0.000000
    246 O2    s       0.000068     -0.000095      0.000049      0.000000
    247 O2    s      -0.000059      0.000036      0.000240      0.000000
    248 O2    s       0.000197     -0.000127      0.000297      0.000000
    249 O2    s       0.000082     -0.000107     -0.000250      0.000000
    250 O2    s      -0.000135     -0.000019     -0.000461      0.000000
    251 O2    s      -0.000062      0.000128     -0.000060      0.000000
    252 O2    s       0.000043     -0.000135     -0.000636      0.000000
    253 O2    s       0.000316     -0.000340     -0.001044      0.000000
    254 O2    s       0.000047      0.000003     -0.000633      0.000000
    255 O2    s      -0.000074      0.000018     -0.000255      0.000000
    256 O2    s      -0.000051      0.000097     -0.000356      0.000000
    257 O2    s       0.000125     -0.000162      0.000331      0.000000
    258 O3    s       0.000120     -0.000150     -0.000935      0.000000
    259 O2    s      -0.000109      0.000056      0.000203      0.000000
    260 O2    s      -0.000065     -0.000024     -0.000139      0.000000
    261 O2    s       0.000214     -0.000193      0.000566      0.000000
    262 O2    s       0.000006     -0.000012      0.000424      0.000000
    263 O3    s      -0.000235     -0.000027      0.001554      0.000000
    264 O2    s      -0.000070      0.000221      0.000933      0.000000
    265 O2    s       0.000185     -0.000230      0.001860      0.000000
    266 O2    s      -0.000174      0.000032     -0.000109      0.000000
    267 O2    s       0.000024     -0.000067     -0.000215      0.000000
    268 O2    s      -0.000521      0.000574      0.000830      0.000000
    269 O2    s      -0.000066     -0.000009     -0.000121      0.000000
    270 O2    s       0.000032      0.000143      0.000493      0.000000
    271 O2    s       0.000038      0.000052      0.000210      0.000000
    272 O2    s       0.000325     -0.000178      0.000072      0.000000
    273 O2    s      -0.000055      0.000306      0.000242      0.000000
    274 O2    s      -0.000058      0.000018      0.000129      0.000000
    275 O2    s      -0.000047      0.000057     -0.000204      0.000000
    276 O2    s      -0.000065     -0.000114     -0.001159      0.000000
    277 O2    s      -0.000027     -0.000005     -0.000286      0.000000
    278 O3    s       0.000376     -0.000425     -0.000115      0.000000
    279 O2    s       0.000065     -0.000017     -0.000205      0.000000
    280 O2    s      -0.000073      0.000078      0.000115      0.000000
    281 O2    s       0.000061     -0.000056     -0.000102      0.000000
    282 O2    s       0.000053     -0.000151      0.001269      0.000000
    283 O3    s       0.000420      0.000034      0.000069      0.000000
    284 O2    s       0.000015     -0.000445     -0.000056      0.000000
    285 O2    s       0.000035     -0.000071      0.000066      0.000000
    286 O2    s      -0.000001      0.000044      0.000045      0.000000
    287 O2    s      -0.000017     -0.000026     -0.000444      0.000000
    288 O2    s      -0.000060     -0.000003     -0.000108      0.000000
    289 O3    s      -0.000772      0.000332     -0.002365      0.000000
    290 O2    s       0.000004      0.000015      0.000085      0.000000
    291 O2    s      -0.000089     -0.000211      0.000515      0.000000
    292 O3    s       0.000307     -0.000140     -0.001100      0.000000
    293 O2    s       0.000011     -0.000103      0.000470      0.000000
    294 O2    s      -0.000065      0.000206      0.000755      0.000000
    295 O2    s      -0.000114      0.000066     -0.000247      0.000000
    296 O2    s       0.000048     -0.000268     -0.000980      0.000000
    297 O2    s      -0.000023      0.000044     -0.000155      0.000000
    298 O2    s      -0.000161      0.000120      0.000644      0.000000
    299 O2    s       0.000157     -0.000214      0.000336      0.000000
    300 O3    s      -0.000654      0.000085      0.001802      0.000000
    301 O2    s       0.000192     -0.000108      0.000369      0.000000
    302 O2    s      -0.000138      0.000008     -0.000128      0.000000
    303 O3    s       0.000787     -0.000716     -0.000949      0.000000
    304 O2    s       0.000018     -0.000040      0.000154      0.000000
    305 O2    s       0.000285      0.000064     -0.000303      0.000000
    306 O2    s       0.000003     -0.000122     -0.000142      0.000000
    307 F     s      -0.000350      0.000347      0.000522      0.000000
    308 F     s       0.000246     -0.000094     -0.000406      0.000000
    309 F     s      -0.000632      0.000812      0.000124      0.000000
    310 F     s      -0.000004     -0.000022      0.000041      0.000000
    311 F     s      -0.000270      0.000424     -0.000501      0.000000
    312 F     s      -0.000183      0.000095     -0.000043      0.000000
--------------------------------------------------------------------------------
  Maximum abs         0.003014      0.001331      0.004111      0.000000
--------------------------------------------------------------------------------


  Time to end of optimisation =       7.1855 seconds


  Peak dynamic memory used =      19.13 MB 


  Timing analysis for GULP :

--------------------------------------------------------------------------------
  Task / Subroutine                                          Time (Seconds)
--------------------------------------------------------------------------------
  Calculation of reciprocal space energy and derivatives          0.2809
  Calculation of real space energy and derivatives                5.9854
  Calculation of three-body energy and derivatives                0.6895
  Calculation of matrix inversion                                 0.1920
--------------------------------------------------------------------------------
  Total CPU time                                                  7.1855
--------------------------------------------------------------------------------


  Dump file written as out.res                                                 
  CIF file written as out.cif                                                 


  Job Finished at 17:09.32 29th November   2016                               

