********************************************************************************
*                       GENERAL UTILITY LATTICE PROGRAM                        *
*                                 Julian Gale                                  *
*                      Nanochemistry Research Institute                        *
*                           Department of Chemistry                            *
*                    Curtin University, Western Australia                      *
********************************************************************************
* Version = 4.2.0 * Last modified =  20th January 2014                         *
********************************************************************************
*  optimise     - perform optimisation run                                     *
*  conp         - constant pressure calculation                                *
*  qok          - running with non charge neutral cell is OK                   *
********************************************************************************

  Job Started  at 10:31.30 29th November   2016                               

  Number of CPUs =     1


  Total number of configurations input =   1

********************************************************************************
*  Input for Configuration =   1                                               *
********************************************************************************

  Formula = Si57Ge3O120F6                                               

  Number of irreducible atoms/shells =     312


  Total number atoms/shells =     312

  Dimensionality = 3               :  Bulk   


  Charge on solid   =  -6.000000 =>neutralising background added


  Cartesian lattice vectors (Angstroms) :

       11.962721    0.000000    0.000000
       -5.888120   10.389684    0.000000
       -0.290933    0.220491   29.412976

  Cell parameters (Angstroms/Degrees):

  a =      11.9627    alpha =  89.3469
  b =      11.9422    beta  =  90.5667
  c =      29.4152    gamma = 119.5414

  Initial cell volume =        3655.706135 Angs**3

  Temperature of configuration =  0.000     K 

  Pressure of configuration =         0.000 GPa 

  Fractional coordinates of asymmetric unit :

--------------------------------------------------------------------------------
   No.  Atomic       x           y          z         Charge      Occupancy
        Label      (Frac)      (Frac)     (Frac)        (e)         (Frac)  
--------------------------------------------------------------------------------
      1 Si    c    0.699600    0.375700    0.033890     4.00000    1.000000    
      2 Si    c    0.620444 *  0.322165 *  0.367532 *   4.00000    1.000000    
      3 Si    c    0.679644 *  0.306721 *  0.695227 *   4.00000    1.000000    
      4 Si    c    0.298374 *  0.615812 *  0.532801 *   4.00000    1.000000    
      5 Si    c    0.380868 *  0.675043 *  0.868673 *   4.00000    1.000000    
      6 Si    c    0.325627 *  0.704909 *  0.200470 *   4.00000    1.000000    
      7 Si    c    0.380539 *  0.704264 *  0.301394 *   4.00000    1.000000    
      8 Si    c    0.323751 *  0.620229 *  0.971049 *   4.00000    1.000000    
      9 Si    c    0.298223 *  0.664802 *  0.633548 *   4.00000    1.000000    
     10 Si    c    0.619228 *  0.299200 *  0.797811 *   4.00000    1.000000    
     11 Si    c    0.675228 *  0.377268 *  0.468110 *   4.00000    1.000000    
     12 Si    c    0.704315 *  0.324800 *  0.135954 *   4.00000    1.000000    
     13 Ge    c    0.531544 *  0.430569 *  0.966840 *   4.00000    1.000000    
     14 Si    c    0.582192 *  0.112738 *  0.302563 *   4.00000    1.000000    
     15 Si    c    0.895681 *  0.474901 *  0.633619 *   4.00000    1.000000    
     16 Si    c    0.471196 *  0.580420 *  0.468104 *   4.00000    1.000000    
     17 Si    c    0.415313 *  0.882285 *  0.800141 *   4.00000    1.000000    
     18 Si    c    0.114805 *  0.531392 *  0.136101 *   4.00000    1.000000    
     19 Si    c    0.417958 *  0.529797 *  0.366462 *   4.00000    1.000000    
     20 Si    c    0.110535 *  0.581700 *  0.034500 *   4.00000    1.000000    
     21 Si    c    0.467225 *  0.871560 *  0.696931 *   4.00000    1.000000    
     22 Si    c    0.591839 *  0.466258 *  0.867211 *   4.00000    1.000000    
     23 Si    c    0.888635 *  0.417844 *  0.532480 *   4.00000    1.000000    
     24 Si    c    0.529722 *  0.114637 *  0.200570 *   4.00000    1.000000    
     25 Si    c    0.304650 *  0.393193 *  0.854515 *   4.00000    1.000000    
     26 Si    c    0.602273 *  0.905876 *  0.185903 *   4.00000    1.000000    
     27 Si    c    0.099068 *  0.697176 *  0.518550 *   4.00000    1.000000    
     28 Si    c    0.697792 *  0.600765 *  0.352850 *   4.00000    1.000000    
     29 Ge    c    0.412914 *  0.091577 *  0.689374 *   4.00000    1.000000    
     30 Si    c    0.904646 *  0.302544 *  0.021113 *   4.00000    1.000000    
     31 Si    c    0.397563 *  0.298825 *  0.483054 *   4.00000    1.000000    
     32 Si    c    0.905108 *  0.602342 *  0.150246 *   4.00000    1.000000    
     33 Si    c    0.699736 *  0.096014 *  0.815483 *   4.00000    1.000000    
     34 Si    c    0.607286 *  0.702654 *  0.989013 *   4.00000    1.000000    
     35 Si    c    0.095419 *  0.390470 *  0.648540 *   4.00000    1.000000    
     36 Si    c    0.302676 *  0.905036 *  0.316639 *   4.00000    1.000000    
     37 Si    c    0.251792 *  0.333064 *  0.956945 *   4.00000    1.000000    
     38 Si    c    0.660220 *  0.911432 *  0.286928 *   4.00000    1.000000    
     39 Si    c    0.098447 *  0.751240 *  0.619302 *   4.00000    1.000000    
     40 Si    c    0.749815 *  0.659568 *  0.453559 *   4.00000    1.000000    
     41 Si    c    0.332487 *  0.085045 *  0.785920 *   4.00000    1.000000    
     42 Si    c    0.915033 *  0.254303 *  0.121928 *   4.00000    1.000000    
     43 Si    c    0.339945 *  0.250658 *  0.381961 *   4.00000    1.000000    
     44 Si    c    0.908074 *  0.657538 *  0.048916 *   4.00000    1.000000    
     45 Ge    c    0.750152 *  0.086243 *  0.712099 *   4.00000    1.000000    
     46 Si    c    0.665810 *  0.746135 *  0.885825 *   4.00000    1.000000    
     47 Si    c    0.088134 *  0.336168 *  0.547741 *   4.00000    1.000000    
     48 Si    c    0.253004 *  0.913736 *  0.215537 *   4.00000    1.000000    
     49 Si    c    0.968771 *  0.122149 *  0.970282 *   4.00000    1.000000    
     50 Si    c    0.878798 *  0.848551 *  0.302470 *   4.00000    1.000000    
     51 Si    c    0.164974 *  0.032249 *  0.635635 *   4.00000    1.000000    
     52 Si    c    0.029082 *  0.877910 *  0.468378 *   4.00000    1.000000    
     53 Si    c    0.119705 *  0.148899 *  0.803810 *   4.00000    1.000000    
     54 Si    c    0.851375 *  0.974354 *  0.137049 *   4.00000    1.000000    
     55 Si    c    0.122506 *  0.972229 *  0.367377 *   4.00000    1.000000    
     56 Si    c    0.852355 *  0.883309 *  0.036530 *   4.00000    1.000000    
     57 Si    c    0.033489 *  0.143944 *  0.700463 *   4.00000    1.000000    
     58 Si    c    0.876992 *  0.027988 *  0.869243 *   4.00000    1.000000    
     59 Si    c    0.150763 *  0.118703 *  0.534141 *   4.00000    1.000000    
     60 Si    c    0.972416 *  0.848692 *  0.201747 *   4.00000    1.000000    
     61 O2    c    0.933719 *  0.002071 *  0.003023 *   0.87073    1.000000    
     62 O2    c    0.999757 *  0.929554 *  0.335118 *   0.87073    1.000000    
     63 O2    c    0.084755 *  0.069445 *  0.670323 *   0.87073    1.000000    
     64 O2    c    0.070384 *  0.996940 *  0.501833 *   0.87073    1.000000    
     65 O2    c    0.997780 *  0.071381 *  0.836374 *   0.87073    1.000000    
     66 O2    c    0.927955 *  0.930025 *  0.170587 *   0.87073    1.000000    
     67 O2    c    0.341421 *  0.579967 *  0.333912 *   0.87073    1.000000    
     68 O2    c    0.419661 *  0.740760 *  0.667864 *   0.87073    1.000000    
     69 O2    c    0.235990 *  0.657555 *  0.001634 *   0.87073    1.000000    
     70 O2    c    0.660937 *  0.424303 *  0.828805 *   0.87073    1.000000    
     71 O2    c    0.580818 *  0.241349 *  0.168324 *   0.87073    1.000000    
     72 O2    c    0.762246 *  0.340033 *  0.500810 *   0.87073    1.000000    
     73 O3    c    0.581158 *  0.341368 *  0.001919 *   1.33043    1.000000    
     74 O2    c    0.773716 *  0.434805 *  0.666606 *   0.87073    1.000000    
     75 O2    c    0.658485 *  0.237284 *  0.335025 *   0.87073    1.000000    
     76 O2    c    0.421045 *  0.655797 *  0.500308 *   0.87073    1.000000    
     77 O2    c    0.241551 *  0.581899 *  0.168136 *   0.87073    1.000000    
     78 O2    c    0.345133 *  0.760143 *  0.834732 *   0.87073    1.000000    
     79 O2    c    0.120664 *  0.213308 *  0.975362 *   0.87073    1.000000    
     80 O2    c    0.787452 *  0.911957 *  0.306835 *   0.87073    1.000000    
     81 O2    c    0.101271 *  0.876473 *  0.640366 *   0.87073    1.000000    
     82 O2    c    0.875299 *  0.786106 *  0.473289 *   0.87073    1.000000    
     83 O2    c    0.211931 *  0.086392 *  0.810825 *   0.87073    1.000000    
     84 O2    c    0.914874 *  0.127854 *  0.142813 *   0.87073    1.000000    
     85 O2    c    0.213599 *  0.126036 *  0.361664 *   0.87073    1.000000    
     86 O2    c    0.906024 *  0.784480 *  0.029336 *   0.87073    1.000000    
     87 O3    c    0.881669 *  0.077354 *  0.692906 *   1.33043    1.000000    
     88 O2    c    0.787475 *  0.873673 *  0.864736 *   0.87073    1.000000    
     89 O2    c    0.087569 *  0.210393 *  0.527340 *   0.87073    1.000000    
     90 O2    c    0.125797 *  0.913013 *  0.195454 *   0.87073    1.000000    
     91 O2    c    0.933841 *  0.859163 *  0.252557 *   0.87073    1.000000    
     92 O2    c    0.137837 *  0.068554 *  0.585217 *   0.87073    1.000000    
     93 O2    c    0.928940 *  0.069210 *  0.919590 *   0.87073    1.000000    
     94 O2    c    0.067104 *  0.136571 *  0.753184 *   0.87073    1.000000    
     95 O2    c    0.871042 *  0.936371 *  0.087024 *   0.87073    1.000000    
     96 O2    c    0.069773 *  0.933787 *  0.418032 *   0.87073    1.000000    
     97 O2    c    0.898814 *  0.203275 *  0.982402 *   0.87073    1.000000    
     98 O2    c    0.796621 *  0.697355 *  0.314747 *   0.87073    1.000000    
     99 O3    c    0.311568 *  0.100005 *  0.646026 *   1.33043    1.000000    
    100 O2    c    0.099219 *  0.795138 *  0.479800 *   0.87073    1.000000    
    101 O2    c    0.204582 *  0.300268 *  0.816111 *   0.87073    1.000000    
    102 O2    c    0.699295 *  0.905837 *  0.147481 *   0.87073    1.000000    
    103 O2    c    0.204821 *  0.902753 *  0.355117 *   0.87073    1.000000    
    104 O2    c    0.700756 *  0.814132 *  0.024376 *   0.87073    1.000000    
    105 O2    c    0.095224 *  0.295249 *  0.688242 *   0.87073    1.000000    
    106 O2    c    0.791432 *  0.094559 *  0.856210 *   0.87073    1.000000    
    107 O2    c    0.301592 *  0.200195 *  0.521339 *   0.87073    1.000000    
    108 O2    c    0.903588 *  0.698432 *  0.188567 *   0.87073    1.000000    
    109 O2    c    0.324964 *  0.647410 *  0.251024 *   0.87073    1.000000    
    110 O2    c    0.356348 *  0.669606 *  0.583268 *   0.87073    1.000000    
    111 O2    c    0.326268 *  0.671576 *  0.919097 *   0.87073    1.000000    
    112 O2    c    0.676491 *  0.350916 *  0.747681 *   0.87073    1.000000    
    113 O2    c    0.648909 *  0.324273 *  0.085465 *   0.87073    1.000000    
    114 O2    c    0.676688 *  0.320359 *  0.418090 *   0.87073    1.000000    
    115 O3    c    0.365159 *  0.315330 *  0.976346 *   1.33043    1.000000    
    116 O2    c    0.669692 *  0.043256 *  0.305453 *   0.87073    1.000000    
    117 O2    c    0.965094 *  0.630057 *  0.636771 *   0.87073    1.000000    
    118 O2    c    0.626712 *  0.668545 *  0.471608 *   0.87073    1.000000    
    119 O2    c    0.331983 *  0.954965 *  0.804114 *   0.87073    1.000000    
    120 O2    c    0.047484 *  0.375407 *  0.140282 *   0.87073    1.000000    
    121 O2    c    0.330377 *  0.374065 *  0.363504 *   0.87073    1.000000    
    122 O2    c    0.042261 *  0.670183 *  0.030754 *   0.87073    1.000000    
    123 O3    c    0.621439 *  0.939828 *  0.697071 *   1.33043    1.000000    
    124 O2    c    0.674351 *  0.624457 *  0.866525 *   0.87073    1.000000    
    125 O2    c    0.957064 *  0.329558 *  0.529234 *   0.87073    1.000000    
    126 O2    c    0.373861 *  0.046632 *  0.197092 *   0.87073    1.000000    
    127 O2    c    0.770789 *  0.301192 *  0.013466 *   0.87073    1.000000    
    128 O2    c    0.696235 *  0.465837 *  0.345338 *   0.87073    1.000000    
    129 O3    c    0.541111 *  0.244231 *  0.672894 *   1.33043    1.000000    
    130 O2    c    0.230311 *  0.692477 *  0.510562 *   0.87073    1.000000    
    131 O2    c    0.310100 *  0.530860 *  0.848613 *   0.87073    1.000000    
    132 O2    c    0.468527 *  0.772989 *  0.178219 *   0.87073    1.000000    
    133 O2    c    0.304784 *  0.771506 *  0.323876 *   0.87073    1.000000    
    134 O2    c    0.468383 *  0.697069 *  0.991319 *   0.87073    1.000000    
    135 O2    c    0.230196 *  0.521451 *  0.655683 *   0.87073    1.000000    
    136 O2    c    0.688775 *  0.224515 *  0.820323 *   0.87073    1.000000    
    137 O2    c    0.532947 *  0.300669 *  0.490638 *   0.87073    1.000000    
    138 O2    c    0.773329 *  0.467851 *  0.158006 *   0.87073    1.000000    
    139 O2    c    0.786163 *  0.532651 *  0.028573 *   0.87073    1.000000    
    140 O2    c    0.464918 *  0.249384 *  0.362513 *   0.87073    1.000000    
    141 O3    c    0.745536 *  0.216221 *  0.689731 *   1.33043    1.000000    
    142 O2    c    0.215246 *  0.460349 *  0.528566 *   0.87073    1.000000    
    143 O2    c    0.535016 *  0.740176 *  0.867918 *   0.87073    1.000000    
    144 O2    c    0.251942 *  0.787942 *  0.195593 *   0.87073    1.000000    
    145 O2    c    0.536078 *  0.785202 *  0.306604 *   0.87073    1.000000    
    146 O2    c    0.260236 *  0.466095 *  0.974262 *   0.87073    1.000000    
    147 O2    c    0.220657 *  0.743286 *  0.639067 *   0.87073    1.000000    
    148 O2    c    0.464348 *  0.213048 *  0.801203 *   0.87073    1.000000    
    149 O2    c    0.749877 *  0.533067 *  0.473269 *   0.87073    1.000000    
    150 O2    c    0.788371 *  0.252290 *  0.141240 *   0.87073    1.000000    
    151 O2    c    0.239368 *  0.323643 *  0.901697 *   0.87073    1.000000    
    152 O2    c    0.676881 *  0.909543 *  0.232536 *   0.87073    1.000000    
    153 O2    c    0.099787 *  0.769918 *  0.564716 *   0.87073    1.000000    
    154 O2    c    0.767755 *  0.675762 *  0.399123 *   0.87073    1.000000    
    155 O3    c    0.306167 *  0.082587 *  0.733170 *   1.33043    1.000000    
    156 O2    c    0.913308 *  0.233115 *  0.067602 *   0.87073    1.000000    
    157 O2    c    0.323688 *  0.230508 *  0.436371 *   0.87073    1.000000    
    158 O2    c    0.906548 *  0.674766 *  0.103293 *   0.87073    1.000000    
    159 O3    c    0.772090 *  0.097680 *  0.770456 *   1.33043    1.000000    
    160 O2    c    0.678759 *  0.760253 *  0.940055 *   0.87073    1.000000    
    161 O2    c    0.087808 *  0.315095 *  0.602228 *   0.87073    1.000000    
    162 O2    c    0.233268 *  0.911041 *  0.269900 *   0.87073    1.000000    
    163 O3    c    0.601236 *  0.571879 *  0.002188 *   1.33043    1.000000    
    164 O2    c    0.441644 *  0.029235 *  0.325599 *   0.87073    1.000000    
    165 O2    c    0.972721 *  0.409262 *  0.657583 *   0.87073    1.000000    
    166 O2    c    0.413021 *  0.439008 *  0.491500 *   0.87073    1.000000    
    167 O2    c    0.559575 *  0.970362 *  0.819189 *   0.87073    1.000000    
    168 O2    c    0.031605 *  0.589468 *  0.159084 *   0.87073    1.000000    
    169 O2    c    0.558622 *  0.587117 *  0.343430 *   0.87073    1.000000    
    170 O2    c    0.030000 *  0.441052 *  0.010989 *   0.87073    1.000000    
    171 O3    c    0.411602 *  0.951356 *  0.670713 *   1.33043    1.000000    
    172 O2    c    0.445732 *  0.412046 *  0.847223 *   0.87073    1.000000    
    173 O2    c    0.972498 *  0.559685 *  0.509882 *   0.87073    1.000000    
    174 O2    c    0.586867 *  0.031064 *  0.177190 *   0.87073    1.000000    
    175 O2    c    0.581720 *  0.166554 *  0.251573 *   0.87073    1.000000    
    176 O2    c    0.837882 *  0.419072 *  0.583480 *   0.87073    1.000000    
    177 O3    c    0.601458 *  0.410257 *  0.915044 *   1.33043    1.000000    
    178 O2    c    0.413311 *  0.830865 *  0.749478 *   0.87073    1.000000    
    179 O2    c    0.168076 *  0.583699 *  0.084991 *   0.87073    1.000000    
    180 O2    c    0.418067 *  0.582348 *  0.417210 *   0.87073    1.000000    
    181 F     c    0.452586 *  0.905850 *  0.251186 *   0.56000    1.000000    
    182 F     c    0.097352 *  0.543676 *  0.583974 *   0.56000    1.000000    
    183 F     c    0.475753 *  0.522751 *  0.929154 *   0.56000    1.000000    
    184 F     c    0.525450 *  0.092071 *  0.737664 *   0.56000    1.000000    
    185 F     c    0.912490 *  0.453907 *  0.085132 *   0.56000    1.000000    
    186 F     c    0.548468 *  0.451087 *  0.417815 *   0.56000    1.000000    
    187 O2    s    0.928548 *  0.002375 *  0.003064 *  -2.87073    1.000000    
    188 O2    s    0.000013 *  0.925297 *  0.335091 *  -2.87073    1.000000    
    189 O2    s    0.087293 *  0.074123 *  0.670139 *  -2.87073    1.000000    
    190 O2    s    0.074627 *  0.997049 *  0.501655 *  -2.87073    1.000000    
    191 O2    s    0.997778 *  0.075097 *  0.836443 *  -2.87073    1.000000    
    192 O2    s    0.924240 *  0.925813 *  0.170299 *  -2.87073    1.000000    
    193 O2    s    0.353407 *  0.587599 *  0.333923 *  -2.87073    1.000000    
    194 O2    s    0.412296 *  0.746405 *  0.667363 *  -2.87073    1.000000    
    195 O2    s    0.232962 *  0.646106 *  0.001604 *  -2.87073    1.000000    
    196 O2    s    0.649531 *  0.415261 *  0.829380 *  -2.87073    1.000000    
    197 O2    s    0.588196 *  0.236828 *  0.168328 *  -2.87073    1.000000    
    198 O2    s    0.766414 *  0.351936 *  0.500729 *  -2.87073    1.000000    
    199 O3    s    0.590410 *  0.351323 *  0.002888 *  -3.33043    1.000000    
    200 O2    s    0.776324 *  0.425438 *  0.666248 *  -2.87073    1.000000    
    201 O2    s    0.646727 *  0.233187 *  0.335035 *  -2.87073    1.000000    
    202 O2    s    0.413456 *  0.643858 *  0.500381 *  -2.87073    1.000000    
    203 O2    s    0.237208 *  0.589406 *  0.168187 *  -2.87073    1.000000    
    204 O2    s    0.356061 *  0.763606 *  0.834796 *  -2.87073    1.000000    
    205 O2    s    0.117874 *  0.216135 *  0.972805 *  -2.87073    1.000000    
    206 O2    s    0.783993 *  0.905143 *  0.304332 *  -2.87073    1.000000    
    207 O2    s    0.107360 *  0.878688 *  0.637657 *  -2.87073    1.000000    
    208 O2    s    0.878516 *  0.782713 *  0.470769 *  -2.87073    1.000000    
    209 O2    s    0.214438 *  0.092766 *  0.807646 *  -2.87073    1.000000    
    210 O2    s    0.908085 *  0.124488 *  0.140060 *  -2.87073    1.000000    
    211 O2    s    0.216963 *  0.122593 *  0.364328 *  -2.87073    1.000000    
    212 O2    s    0.900508 *  0.782007 *  0.032073 *  -2.87073    1.000000    
    213 O3    s    0.886272 *  0.084728 *  0.695184 *  -3.33043    1.000000    
    214 O2    s    0.784291 *  0.876702 *  0.867368 *  -2.87073    1.000000    
    215 O2    s    0.094249 *  0.213858 *  0.530149 *  -2.87073    1.000000    
    216 O2    s    0.122641 *  0.906251 *  0.198175 *  -2.87073    1.000000    
    217 O2    s    0.931964 *  0.856761 *  0.252456 *  -2.87073    1.000000    
    218 O2    s    0.142182 *  0.070418 *  0.584731 *  -2.87073    1.000000    
    219 O2    s    0.927327 *  0.070296 *  0.919385 *  -2.87073    1.000000    
    220 O2    s    0.069483 *  0.138737 *  0.753328 *  -2.87073    1.000000    
    221 O2    s    0.866685 *  0.934547 *  0.086853 *  -2.87073    1.000000    
    222 O2    s    0.071132 *  0.931819 *  0.418001 *  -2.87073    1.000000    
    223 O2    s    0.907027 *  0.204442 *  0.984972 *  -2.87073    1.000000    
    224 O2    s    0.795229 *  0.703555 *  0.317355 *  -2.87073    1.000000    
    225 O3    s    0.301814 *  0.091738 *  0.647765 *  -3.33043    1.000000    
    226 O2    s    0.091729 *  0.793884 *  0.482565 *  -2.87073    1.000000    
    227 O2    s    0.206098 *  0.294164 *  0.818799 *  -2.87073    1.000000    
    228 O2    s    0.705492 *  0.913058 *  0.150264 *  -2.87073    1.000000    
    229 O2    s    0.206073 *  0.910331 *  0.352503 *  -2.87073    1.000000    
    230 O2    s    0.707076 *  0.810080 *  0.022056 *  -2.87073    1.000000    
    231 O2    s    0.088775 *  0.289242 *  0.685426 *  -2.87073    1.000000    
    232 O2    s    0.790884 *  0.087717 *  0.853378 *  -2.87073    1.000000    
    233 O2    s    0.295679 *  0.201790 *  0.518740 *  -2.87073    1.000000    
    234 O2    s    0.911082 *  0.704584 *  0.186044 *  -2.87073    1.000000    
    235 O2    s    0.330745 *  0.659163 *  0.250995 *  -2.87073    1.000000    
    236 O2    s    0.344470 *  0.663628 *  0.583289 *  -2.87073    1.000000    
    237 O2    s    0.331732 *  0.666849 *  0.918975 *  -2.87073    1.000000    
    238 O2    s    0.670655 *  0.340985 *  0.747905 *  -2.87073    1.000000    
    239 O2    s    0.659846 *  0.329480 *  0.085637 *  -2.87073    1.000000    
    240 O2    s    0.670777 *  0.326338 *  0.418015 *  -2.87073    1.000000    
    241 O3    s    0.364015 *  0.324968 *  0.973579 *  -3.33043    1.000000    
    242 O2    s    0.659696 *  0.036623 *  0.303210 *  -2.87073    1.000000    
    243 O2    s    0.971801 *  0.626382 *  0.634585 *  -2.87073    1.000000    
    244 O2    s    0.623589 *  0.658572 *  0.469362 *  -2.87073    1.000000    
    245 O2    s    0.340784 *  0.960328 *  0.801875 *  -2.87073    1.000000    
    246 O2    s    0.040578 *  0.378763 *  0.137927 *  -2.87073    1.000000    
    247 O2    s    0.340398 *  0.377132 *  0.365758 *  -2.87073    1.000000    
    248 O2    s    0.035717 *  0.659804 *  0.032983 *  -2.87073    1.000000    
    249 O3    s    0.616943 *  0.945146 *  0.698295 *  -3.33043    1.000000    
    250 O2    s    0.665462 *  0.622050 *  0.868653 *  -2.87073    1.000000    
    251 O2    s    0.963850 *  0.339330 *  0.531529 *  -2.87073    1.000000    
    252 O2    s    0.377241 *  0.039787 *  0.199373 *  -2.87073    1.000000    
    253 O2    s    0.778177 *  0.308958 *  0.016430 *  -2.87073    1.000000    
    254 O2    s    0.688602 *  0.465253 *  0.348444 *  -2.87073    1.000000    
    255 O3    s    0.546528 *  0.239903 *  0.676471 *  -3.33043    1.000000    
    256 O2    s    0.223434 *  0.685040 *  0.513737 *  -2.87073    1.000000    
    257 O2    s    0.317030 *  0.531815 *  0.851363 *  -2.87073    1.000000    
    258 O2    s    0.467979 *  0.779986 *  0.181325 *  -2.87073    1.000000    
    259 O2    s    0.312350 *  0.778712 *  0.320769 *  -2.87073    1.000000    
    260 O2    s    0.467201 *  0.689563 *  0.988926 *  -2.87073    1.000000    
    261 O2    s    0.222827 *  0.522343 *  0.652563 *  -2.87073    1.000000    
    262 O2    s    0.682743 *  0.218377 *  0.817474 *  -2.87073    1.000000    
    263 O2    s    0.533401 *  0.308329 *  0.487501 *  -2.87073    1.000000    
    264 O2    s    0.780170 *  0.467374 *  0.154900 *  -2.87073    1.000000    
    265 O2    s    0.791426 *  0.531129 *  0.031318 *  -2.87073    1.000000    
    266 O2    s    0.467577 *  0.257187 *  0.365111 *  -2.87073    1.000000    
    267 O3    s    0.739737 *  0.213003 *  0.692149 *  -3.33043    1.000000    
    268 O2    s    0.210136 *  0.463246 *  0.531065 *  -2.87073    1.000000    
    269 O2    s    0.532324 *  0.733748 *  0.869895 *  -2.87073    1.000000    
    270 O2    s    0.259884 *  0.792986 *  0.198236 *  -2.87073    1.000000    
    271 O2    s    0.533365 *  0.790561 *  0.303963 *  -2.87073    1.000000    
    272 O2    s    0.266417 *  0.469206 *  0.972151 *  -2.87073    1.000000    
    273 O2    s    0.215511 *  0.735736 *  0.636389 *  -2.87073    1.000000    
    274 O2    s    0.467122 *  0.208894 *  0.799276 *  -2.87073    1.000000    
    275 O2    s    0.742062 *  0.530684 *  0.470629 *  -2.87073    1.000000    
    276 O2    s    0.793423 *  0.260183 *  0.138625 *  -2.87073    1.000000    
    277 O2    s    0.247725 *  0.332137 *  0.902135 *  -2.87073    1.000000    
    278 O2    s    0.667284 *  0.909363 *  0.233391 *  -2.87073    1.000000    
    279 O2    s    0.099587 *  0.760314 *  0.565614 *  -2.87073    1.000000    
    280 O2    s    0.758514 *  0.666184 *  0.400074 *  -2.87073    1.000000    
    281 O3    s    0.316255 *  0.083398 *  0.735790 *  -3.33043    1.000000    
    282 O2    s    0.912626 *  0.242599 *  0.068431 *  -2.87073    1.000000    
    283 O2    s    0.333153 *  0.239794 *  0.435477 *  -2.87073    1.000000    
    284 O2    s    0.906565 *  0.665311 *  0.102505 *  -2.87073    1.000000    
    285 O3    s    0.762806 *  0.096616 *  0.770485 *  -3.33043    1.000000    
    286 O2    s    0.670407 *  0.753056 *  0.938838 *  -2.87073    1.000000    
    287 O2    s    0.088617 *  0.325192 *  0.601399 *  -2.87073    1.000000    
    288 O2    s    0.242671 *  0.910710 *  0.269070 *  -2.87073    1.000000    
    289 O3    s    0.597051 *  0.576740 *  0.998424 *  -3.33043    1.000000    
    290 O2    s    0.441346 *  0.024408 *  0.322232 *  -2.87073    1.000000    
    291 O2    s    0.978030 *  0.414100 *  0.654162 *  -2.87073    1.000000    
    292 O2    s    0.417598 *  0.438665 *  0.488150 *  -2.87073    1.000000    
    293 O2    s    0.559264 *  0.974546 *  0.816760 *  -2.87073    1.000000    
    294 O2    s    0.026522 *  0.584627 *  0.155726 *  -2.87073    1.000000    
    295 O2    s    0.558985 *  0.582437 *  0.346850 *  -2.87073    1.000000    
    296 O2    s    0.025014 *  0.440996 *  0.014473 *  -2.87073    1.000000    
    297 O3    s    0.417651 *  0.953988 *  0.674779 *  -3.33043    1.000000    
    298 O2    s    0.444572 *  0.415406 *  0.850012 *  -2.87073    1.000000    
    299 O2    s    0.977464 *  0.559567 *  0.513191 *  -2.87073    1.000000    
    300 O2    s    0.582407 *  0.026075 *  0.180570 *  -2.87073    1.000000    
    301 O2    s    0.576365 *  0.155576 *  0.251578 *  -2.87073    1.000000    
    302 O2    s    0.849124 *  0.424701 *  0.583400 *  -2.87073    1.000000    
    303 O3    s    0.595987 *  0.417555 *  0.913239 *  -3.33043    1.000000    
    304 O2    s    0.418572 *  0.840236 *  0.749932 *  -2.87073    1.000000    
    305 O2    s    0.156659 *  0.578135 *  0.084963 *  -2.87073    1.000000    
    306 O2    s    0.423605 *  0.576681 *  0.417241 *  -2.87073    1.000000    
    307 F     s    0.452378 *  0.905483 *  0.251182 *  -1.56000    1.000000    
    308 F     s    0.097629 *  0.543701 *  0.584073 *  -1.56000    1.000000    
    309 F     s    0.479718 *  0.516790 *  0.931576 *  -1.56000    1.000000    
    310 F     s    0.519810 *  0.092140 *  0.734953 *  -1.56000    1.000000    
    311 F     s    0.913050 *  0.453921 *  0.085106 *  -1.56000    1.000000    
    312 F     s    0.548745 *  0.450929 *  0.417830 *  -1.56000    1.000000    
--------------------------------------------------------------------------------



********************************************************************************
*  General input information                                                   *
********************************************************************************

  Species output for all configurations : 

--------------------------------------------------------------------------------
  Species    Type    Atomic    Atomic    Charge       Radii (Angs)     Library
                     Number     Mass       (e)     Cova   Ionic  VDW   Symbol
--------------------------------------------------------------------------------
    Si       Core       14      28.09   4.000000   1.200  0.000  2.100          
    O1       Core        8      16.00   1.733957   0.730  0.000  1.360          
    O1       Shell       8       0.00  -3.733957   0.730  0.000  1.360          
    O2       Core        8      16.00   0.870733   0.730  0.000  1.360          
    O2       Shell       8       0.00  -2.870733   0.730  0.000  1.360          
    O3       Core        8      16.00   1.330431   0.730  0.000  1.360          
    O3       Shell       8       0.00  -3.330431   0.730  0.000  1.360          
    F        Core        9      19.00   0.560000   0.710  0.000  1.300          
    F        Shell       9       0.00  -1.560000   0.710  0.000  1.300          
    Ge       Core       32      72.61   4.000000   1.170  0.000  1.750          
--------------------------------------------------------------------------------


  Lattice summation method               =    Ewald          (3-D)
                                         =    Parry          (2-D)
                                         =    Saunders et al (1-D)
  Accuracy factor for lattice sums       =   12.000


  Time limit = Infinity

  Maximum range for interatomic potentials =        16.000000 Angstroms

  Taper potentials to zero over   1.0000 Angstroms using polynomial

  General interatomic potentials :

--------------------------------------------------------------------------------
Atom  Types   Potential         A         B         C         D     Cutoffs(Ang)
  1     2                                                            Min    Max 
--------------------------------------------------------------------------------
Si   c O1   s Buckingham    0.132E+04 0.318      10.1      0.00     0.000 16.000
Si   c O2   s Buckingham    0.132E+04 0.318      10.1      0.00     0.000 16.000
Si   c O3   s Buckingham    0.132E+04 0.318      10.1      0.00     0.000 16.000
Ge   c O1   s Buckingham    0.150E+04 0.326      16.8      0.00     0.000 16.000
Ge   c O2   s Buckingham    0.150E+04 0.326      16.8      0.00     0.000 16.000
Ge   c O3   s Buckingham    0.150E+04 0.326      16.8      0.00     0.000 16.000
O1   s O1   s Buckingham    0.228E+05 0.149      10.9      0.00     0.000 16.000
O1   s O2   s Buckingham    0.228E+05 0.149      10.9      0.00     0.000 16.000
O1   s O3   s Buckingham    0.228E+05 0.149      10.9      0.00     0.000 16.000
O2   s O2   s Buckingham    0.228E+05 0.149      10.9      0.00     0.000 16.000
O2   s O3   s Buckingham    0.228E+05 0.149      10.9      0.00     0.000 16.000
O3   s O3   s Buckingham    0.228E+05 0.149      10.9      0.00     0.000 16.000
Si   c F    s Buckingham     977.     0.282      0.00      0.00     0.000 16.000
Ge   c F    s Buckingham     681.     0.320      0.00      0.00     0.000 16.000
F    s F    s Buckingham     540.     0.262      0.00      0.00     0.000 16.000
O1   s F    s Buckingham    0.168E+04 0.268      0.00      0.00     0.000 16.000
O2   s F    s Buckingham    0.168E+04 0.268      0.00      0.00     0.000 16.000
O3   s F    s Buckingham    0.168E+04 0.268      0.00      0.00     0.000 16.000
O2   c O2   s Spring (c-s)   76.0      0.00      0.00      0.00     0.000  0.800
O3   c O3   s Spring (c-s)   128.      0.00      0.00      0.00     0.000  0.800
O1   c O1   s Spring (c-s)   180.      0.00      0.00      0.00     0.000  0.800
F    c F    s Spring (c-s)   33.5      0.00      0.00      0.00     0.000  0.800
--------------------------------------------------------------------------------

  General Three-body potentials :

  Harmonic form:

--------------------------------------------------------------------------------
Atom    Atom    Atom           Force Constants            Theta     Cutoffs  
  1       2       3     (eVrad**-2/eVrad**-3/eVrad**-4)   (deg)  1-2  1-3  2-3
--------------------------------------------------------------------------------
Si    c O1    s O1    s  1.261        0.0000    0.0000   109.470 0.00 0.00 0.00
                                                                 1.90 1.90 3.50
Si    c O1    s O2    s  1.261        0.0000    0.0000   109.470 0.00 0.00 0.00
                                                                 1.90 1.90 3.50
Si    c O2    s O2    s  1.261        0.0000    0.0000   109.470 0.00 0.00 0.00
                                                                 1.90 1.90 3.50
--------------------------------------------------------------------------------

********************************************************************************
*  Output for configuration   1                                                *
********************************************************************************


  Components of energy : 

--------------------------------------------------------------------------------
  Interatomic potentials     =        2064.40015840 eV
  Three-body potentials      =           0.47123659 eV
  Monopole - monopole (real) =       -6613.34031437 eV
  Monopole - monopole (recip)=       -3171.65626845 eV
  Monopole - monopole (total)=       -9784.99658282 eV
  Neutralising energy        =          -6.46067933 eV
--------------------------------------------------------------------------------
  Total lattice energy       =       -7726.58586715 eV
--------------------------------------------------------------------------------
  Total lattice energy       =         -745497.4245 kJ/(mole unit cells)
--------------------------------------------------------------------------------


  Number of variables =      939

  Maximum number of calculations  =          1000
  Maximum Hessian update interval =            10
  Maximum step size               =   1.000000000
  Maximum parameter tolerance     =   0.000010000
  Maximum function  tolerance     =   0.000010000
  Maximum gradient  tolerance     =   0.001000000
  Maximum gradient  component     =   0.010000000

  Symmetry not applied to optimisation

  Cell parameters to be optimised using strains

  Newton-Raphson optimiser to be used

  BFGS hessian update to be used

  Dumpfile to be written after every cycle

  Start of bulk optimisation :

  Cycle:      0 Energy:     -7726.585867  Gnorm:      0.003676  CPU:    1.031
  ** Hessian calculated **
  Cycle:      1 Energy:     -7726.635909  Gnorm:      0.003309  CPU:    2.934
  Cycle:      2 Energy:     -7726.636247  Gnorm:      0.000286  CPU:    4.313
  Cycle:      3 Energy:     -7726.636264  Gnorm:      0.000083  CPU:    5.692


  **** Optimisation achieved ****


  Final energy =   -7726.63626452 eV
  Final Gnorm  =       0.00001277

  Components of energy : 

--------------------------------------------------------------------------------
  Interatomic potentials     =        2064.71855146 eV
  Three-body potentials      =           0.47629567 eV
  Monopole - monopole (real) =       -6613.10300043 eV
  Monopole - monopole (recip)=       -3172.26618894 eV
  Monopole - monopole (total)=       -9785.36918936 eV
  Neutralising energy        =          -6.46192228 eV
--------------------------------------------------------------------------------
  Total lattice energy       =       -7726.63626452 eV
--------------------------------------------------------------------------------
  Total lattice energy       =         -745502.2871 kJ/(mole unit cells)
--------------------------------------------------------------------------------

  Final fractional coordinates of atoms :

--------------------------------------------------------------------------------
   No.  Atomic        x           y          z          Radius
        Label       (Frac)      (Frac)     (Frac)       (Angs) 
--------------------------------------------------------------------------------
     1  Si    c     0.699600    0.375700    0.033890    0.000000
     2  Si    c     0.629157    0.313958    0.367536    0.000000
     3  Si    c     0.686020    0.298450    0.695010    0.000000
     4  Si    c     0.305627    0.603604    0.531896    0.000000
     5  Si    c     0.383498    0.665509    0.867104    0.000000
     6  Si    c     0.332995    0.701143    0.199207    0.000000
     7  Si    c     0.387906    0.696010    0.300141    0.000000
     8  Si    c     0.325319    0.615154    0.969550    0.000000
     9  Si    c     0.307052    0.652890    0.632601    0.000000
    10  Si    c     0.621501    0.288797    0.797447    0.000000
    11  Si    c     0.682971    0.367619    0.468175    0.000000
    12  Si    c     0.710843    0.324150    0.135870    0.000000
    13  Ge    c     0.529368    0.424142    0.966337    0.000000
    14  Si    c     0.590271    0.105077    0.302659    0.000000
    15  Si    c     0.904993    0.464612    0.634006    0.000000
    16  Si    c     0.478783    0.570051    0.466907    0.000000
    17  Si    c     0.418382    0.871849    0.798163    0.000000
    18  Si    c     0.121519    0.529810    0.134320    0.000000
    19  Si    c     0.426024    0.520835    0.365113    0.000000
    20  Si    c     0.112598    0.578469    0.032762    0.000000
    21  Si    c     0.473398    0.862036    0.695302    0.000000
    22  Si    c     0.593082    0.455564    0.867033    0.000000
    23  Si    c     0.895888    0.406815    0.532768    0.000000
    24  Si    c     0.538698    0.112151    0.200744    0.000000
    25  Si    c     0.305887    0.383053    0.853752    0.000000
    26  Si    c     0.609914    0.902643    0.185787    0.000000
    27  Si    c     0.106718    0.686064    0.518222    0.000000
    28  Si    c     0.706460    0.592190    0.352073    0.000000
    29  Ge    c     0.420084    0.083004    0.688790    0.000000
    30  Si    c     0.904060    0.300326    0.019836    0.000000
    31  Si    c     0.404737    0.288544    0.482570    0.000000
    32  Si    c     0.912829    0.601439    0.149263    0.000000
    33  Si    c     0.702517    0.085614    0.814247    0.000000
    34  Si    c     0.608120    0.696660    0.988831    0.000000
    35  Si    c     0.104408    0.379304    0.648218    0.000000
    36  Si    c     0.310812    0.897084    0.316160    0.000000
    37  Si    c     0.250482    0.326674    0.956371    0.000000
    38  Si    c     0.667849    0.903825    0.286584    0.000000
    39  Si    c     0.108314    0.740948    0.619070    0.000000
    40  Si    c     0.757518    0.649655    0.452932    0.000000
    41  Si    c     0.334984    0.074541    0.784753    0.000000
    42  Si    c     0.920463    0.252427    0.120510    0.000000
    43  Si    c     0.348291    0.241688    0.381302    0.000000
    44  Si    c     0.911874    0.655818    0.048061    0.000000
    45  Ge    c     0.756232    0.076970    0.711188    0.000000
    46  Si    c     0.667924    0.736155    0.885484    0.000000
    47  Si    c     0.095120    0.324493    0.547399    0.000000
    48  Si    c     0.261490    0.910608    0.215203    0.000000
    49  Si    c     0.966707    0.118155    0.969732    0.000000
    50  Si    c     0.886682    0.841182    0.302154    0.000000
    51  Si    c     0.172029    0.021587    0.635430    0.000000
    52  Si    c     0.036922    0.867204    0.467964    0.000000
    53  Si    c     0.121779    0.137112    0.803526    0.000000
    54  Si    c     0.858878    0.972620    0.136638    0.000000
    55  Si    c     0.130575    0.963184    0.367051    0.000000
    56  Si    c     0.853599    0.879173    0.036103    0.000000
    57  Si    c     0.038741    0.131703    0.699834    0.000000
    58  Si    c     0.878992    0.018030    0.868956    0.000000
    59  Si    c     0.157947    0.107578    0.533821    0.000000
    60  Si    c     0.981407    0.847696    0.201137    0.000000
    61  O2    c     0.931919    0.999421    0.003024    0.000000
    62  O2    c     0.007135    0.920927    0.335153    0.000000
    63  O2    c     0.089064    0.055449    0.670141    0.000000
    64  O2    c     0.078239    0.985448    0.501704    0.000000
    65  O2    c     0.001120    0.060719    0.836760    0.000000
    66  O2    c     0.937741    0.930866    0.170368    0.000000
    67  O2    c     0.349548    0.570845    0.332290    0.000000
    68  O2    c     0.429126    0.731432    0.666484    0.000000
    69  O2    c     0.237156    0.653480    0.999412    0.000000
    70  O2    c     0.662338    0.412982    0.828911    0.000000
    71  O2    c     0.589251    0.239908    0.169010    0.000000
    72  O2    c     0.769042    0.329844    0.501241    0.000000
    73  O3    c     0.579507    0.337612    0.002674    0.000000
    74  O2    c     0.783636    0.426688    0.667108    0.000000
    75  O2    c     0.667335    0.228705    0.335379    0.000000
    76  O2    c     0.427739    0.644572    0.499079    0.000000
    77  O2    c     0.248993    0.579959    0.166089    0.000000
    78  O2    c     0.347950    0.749476    0.832586    0.000000
    79  O2    c     0.118486    0.209383    0.975040    0.000000
    80  O2    c     0.794337    0.903355    0.306824    0.000000
    81  O2    c     0.111647    0.866212    0.640217    0.000000
    82  O2    c     0.883057    0.776029    0.472683    0.000000
    83  O2    c     0.214500    0.074972    0.810098    0.000000
    84  O2    c     0.921905    0.126458    0.141209    0.000000
    85  O2    c     0.221963    0.116917    0.361085    0.000000
    86  O2    c     0.909241    0.782293    0.028194    0.000000
    87  O3    c     0.887349    0.068209    0.691541    0.000000
    88  O2    c     0.790700    0.863505    0.864752    0.000000
    89  O2    c     0.093867    0.198488    0.526912    0.000000
    90  O2    c     0.134971    0.911752    0.195233    0.000000
    91  O2    c     0.942328    0.855506    0.252150    0.000000
    92  O2    c     0.144544    0.057369    0.584942    0.000000
    93  O2    c     0.928412    0.062182    0.919358    0.000000
    94  O2    c     0.067506    0.122219    0.752994    0.000000
    95  O2    c     0.874968    0.931066    0.086798    0.000000
    96  O2    c     0.078832    0.924623    0.417838    0.000000
    97  O2    c     0.896640    0.199920    0.981054    0.000000
    98  O2    c     0.805243    0.689421    0.313983    0.000000
    99  O3    c     0.318825    0.092113    0.645567    0.000000
   100  O2    c     0.106217    0.783507    0.479349    0.000000
   101  O2    c     0.206537    0.288808    0.815409    0.000000
   102  O2    c     0.707229    0.903763    0.147376    0.000000
   103  O2    c     0.212348    0.893243    0.354692    0.000000
   104  O2    c     0.701566    0.808179    0.024216    0.000000
   105  O2    c     0.104339    0.283499    0.687766    0.000000
   106  O2    c     0.793080    0.083431    0.855164    0.000000
   107  O2    c     0.308699    0.189804    0.520871    0.000000
   108  O2    c     0.912374    0.697957    0.187547    0.000000
   109  O2    c     0.332328    0.641471    0.249492    0.000000
   110  O2    c     0.364656    0.656858    0.582323    0.000000
   111  O2    c     0.327864    0.663701    0.917181    0.000000
   112  O2    c     0.681563    0.341264    0.747613    0.000000
   113  O2    c     0.652912    0.325218    0.085949    0.000000
   114  O2    c     0.685146    0.311482    0.418117    0.000000
   115  O3    c     0.363330    0.308081    0.975873    0.000000
   116  O2    c     0.677559    0.035372    0.305397    0.000000
   117  O2    c     0.975422    0.619805    0.636850    0.000000
   118  O2    c     0.634208    0.658583    0.470748    0.000000
   119  O2    c     0.335759    0.944994    0.802901    0.000000
   120  O2    c     0.053452    0.373736    0.138463    0.000000
   121  O2    c     0.338753    0.364976    0.362511    0.000000
   122  O2    c     0.045075    0.667797    0.029211    0.000000
   123  O3    c     0.627637    0.929866    0.696936    0.000000
   124  O2    c     0.675788    0.613933    0.866332    0.000000
   125  O2    c     0.963694    0.318008    0.529306    0.000000
   126  O2    c     0.382815    0.043765    0.197198    0.000000
   127  O2    c     0.770874    0.300690    0.013311    0.000000
   128  O2    c     0.705237    0.457306    0.344963    0.000000
   129  O3    c     0.547785    0.237137    0.672608    0.000000
   130  O2    c     0.237342    0.680537    0.510007    0.000000
   131  O2    c     0.312934    0.521249    0.847107    0.000000
   132  O2    c     0.476254    0.770282    0.177256    0.000000
   133  O2    c     0.312162    0.762908    0.322854    0.000000
   134  O2    c     0.469867    0.692995    0.989913    0.000000
   135  O2    c     0.239722    0.510012    0.655280    0.000000
   136  O2    c     0.689041    0.212383    0.820159    0.000000
   137  O2    c     0.540280    0.290780    0.490376    0.000000
   138  O2    c     0.781504    0.467078    0.157972    0.000000
   139  O2    c     0.787644    0.531962    0.028217    0.000000
   140  O2    c     0.473633    0.240792    0.362110    0.000000
   141  O3    c     0.749575    0.205963    0.688897    0.000000
   142  O2    c     0.221961    0.448138    0.527724    0.000000
   143  O2    c     0.537717    0.730650    0.867042    0.000000
   144  O2    c     0.260069    0.785025    0.194931    0.000000
   145  O2    c     0.543325    0.776746    0.305635    0.000000
   146  O2    c     0.261859    0.461124    0.973440    0.000000
   147  O2    c     0.230568    0.732427    0.638428    0.000000
   148  O2    c     0.466531    0.203392    0.799888    0.000000
   149  O2    c     0.757650    0.523455    0.473066    0.000000
   150  O2    c     0.794627    0.251133    0.140242    0.000000
   151  O2    c     0.239069    0.315996    0.901088    0.000000
   152  O2    c     0.684826    0.903966    0.232144    0.000000
   153  O2    c     0.108736    0.759070    0.564449    0.000000
   154  O2    c     0.776013    0.666519    0.398494    0.000000
   155  O3    c     0.309875    0.071994    0.731959    0.000000
   156  O2    c     0.915689    0.231433    0.066125    0.000000
   157  O2    c     0.331581    0.220984    0.435719    0.000000
   158  O2    c     0.912320    0.673880    0.102459    0.000000
   159  O3    c     0.778002    0.091168    0.769553    0.000000
   160  O2    c     0.680497    0.751002    0.939736    0.000000
   161  O2    c     0.095936    0.303536    0.601909    0.000000
   162  O2    c     0.241906    0.905769    0.269621    0.000000
   163  O3    c     0.598450    0.564627    0.002269    0.000000
   164  O2    c     0.449709    0.020796    0.325665    0.000000
   165  O2    c     0.981919    0.398353    0.657755    0.000000
   166  O2    c     0.420293    0.428862    0.490598    0.000000
   167  O2    c     0.563299    0.958482    0.816845    0.000000
   168  O2    c     0.039959    0.589227    0.157657    0.000000
   169  O2    c     0.567068    0.577988    0.342428    0.000000
   170  O2    c     0.030187    0.438066    0.009277    0.000000
   171  O3    c     0.420809    0.944289    0.668963    0.000000
   172  O2    c     0.446723    0.400665    0.847133    0.000000
   173  O2    c     0.979886    0.548525    0.510115    0.000000
   174  O2    c     0.596057    0.028924    0.177319    0.000000
   175  O2    c     0.590115    0.161366    0.252007    0.000000
   176  O2    c     0.846475    0.408474    0.583943    0.000000
   177  O3    c     0.601015    0.401056    0.915361    0.000000
   178  O2    c     0.415233    0.820780    0.747384    0.000000
   179  O2    c     0.172808    0.581194    0.082923    0.000000
   180  O2    c     0.426086    0.572839    0.415954    0.000000
   181  F     c     0.461289    0.900350    0.250794    0.000000
   182  F     c     0.106576    0.531789    0.584032    0.000000
   183  F     c     0.475975    0.515400    0.928246    0.000000
   184  F     c     0.529149    0.082434    0.737007    0.000000
   185  F     c     0.917775    0.454539    0.084205    0.000000
   186  F     c     0.556979    0.441977    0.417226    0.000000
   187  O2    s     0.926967    0.999357    0.002958    0.000000
   188  O2    s     0.007512    0.916760    0.335040    0.000000
   189  O2    s     0.091958    0.060680    0.669909    0.000000
   190  O2    s     0.082433    0.985705    0.501469    0.000000
   191  O2    s     0.000865    0.064396    0.836668    0.000000
   192  O2    s     0.933750    0.926209    0.170021    0.000000
   193  O2    s     0.361376    0.578526    0.332367    0.000000
   194  O2    s     0.421354    0.736785    0.665999    0.000000
   195  O2    s     0.234293    0.642018    0.999494    0.000000
   196  O2    s     0.651032    0.404171    0.829424    0.000000
   197  O2    s     0.596453    0.235334    0.168892    0.000000
   198  O2    s     0.773372    0.341726    0.501113    0.000000
   199  O3    s     0.589144    0.347871    0.003537    0.000000
   200  O2    s     0.785745    0.417055    0.666670    0.000000
   201  O2    s     0.655446    0.224739    0.335328    0.000000
   202  O2    s     0.420265    0.632594    0.499194    0.000000
   203  O2    s     0.244609    0.587300    0.166257    0.000000
   204  O2    s     0.358965    0.753103    0.832731    0.000000
   205  O2    s     0.115957    0.212080    0.972404    0.000000
   206  O2    s     0.791060    0.896769    0.304254    0.000000
   207  O2    s     0.117339    0.868353    0.637482    0.000000
   208  O2    s     0.886295    0.772599    0.470177    0.000000
   209  O2    s     0.216928    0.081408    0.806924    0.000000
   210  O2    s     0.915007    0.123006    0.138605    0.000000
   211  O2    s     0.225302    0.113513    0.363767    0.000000
   212  O2    s     0.903572    0.779681    0.031033    0.000000
   213  O3    s     0.891891    0.075259    0.693924    0.000000
   214  O2    s     0.787296    0.866598    0.867311    0.000000
   215  O2    s     0.100712    0.202058    0.529738    0.000000
   216  O2    s     0.131731    0.904840    0.197893    0.000000
   217  O2    s     0.940424    0.852986    0.252046    0.000000
   218  O2    s     0.148970    0.059295    0.584456    0.000000
   219  O2    s     0.926933    0.063284    0.919109    0.000000
   220  O2    s     0.070618    0.124924    0.753073    0.000000
   221  O2    s     0.870696    0.929791    0.086587    0.000000
   222  O2    s     0.079923    0.922480    0.417771    0.000000
   223  O2    s     0.904940    0.201016    0.983651    0.000000
   224  O2    s     0.803779    0.695570    0.316623    0.000000
   225  O3    s     0.309053    0.083480    0.647340    0.000000
   226  O2    s     0.098889    0.782377    0.482137    0.000000
   227  O2    s     0.207984    0.282819    0.818124    0.000000
   228  O2    s     0.713421    0.910966    0.150146    0.000000
   229  O2    s     0.213703    0.901032    0.352085    0.000000
   230  O2    s     0.707864    0.804292    0.021866    0.000000
   231  O2    s     0.097483    0.277494    0.684955    0.000000
   232  O2    s     0.792681    0.076728    0.852358    0.000000
   233  O2    s     0.302820    0.191347    0.518286    0.000000
   234  O2    s     0.919828    0.704082    0.185061    0.000000
   235  O2    s     0.338071    0.653122    0.249537    0.000000
   236  O2    s     0.352702    0.651017    0.582363    0.000000
   237  O2    s     0.333451    0.659060    0.917144    0.000000
   238  O2    s     0.675596    0.331454    0.747795    0.000000
   239  O2    s     0.663674    0.330137    0.086042    0.000000
   240  O2    s     0.679189    0.317479    0.418058    0.000000
   241  O3    s     0.362247    0.317848    0.973094    0.000000
   242  O2    s     0.667531    0.028754    0.303129    0.000000
   243  O2    s     0.981968    0.616099    0.634658    0.000000
   244  O2    s     0.631122    0.648577    0.468489    0.000000
   245  O2    s     0.344390    0.950262    0.800584    0.000000
   246  O2    s     0.046591    0.377101    0.136160    0.000000
   247  O2    s     0.348720    0.368088    0.364754    0.000000
   248  O2    s     0.038487    0.657413    0.031498    0.000000
   249  O3    s     0.623214    0.935352    0.697955    0.000000
   250  O2    s     0.666997    0.611617    0.868434    0.000000
   251  O2    s     0.970570    0.327829    0.531580    0.000000
   252  O2    s     0.386121    0.036898    0.199442    0.000000
   253  O2    s     0.778487    0.308131    0.016121    0.000000
   254  O2    s     0.697563    0.456816    0.348060    0.000000
   255  O3    s     0.553428    0.232816    0.676158    0.000000
   256  O2    s     0.230505    0.673162    0.513174    0.000000
   257  O2    s     0.319662    0.522098    0.849925    0.000000
   258  O2    s     0.475621    0.777092    0.180424    0.000000
   259  O2    s     0.319804    0.770165    0.319782    0.000000
   260  O2    s     0.468606    0.685223    0.987637    0.000000
   261  O2    s     0.232264    0.510905    0.652123    0.000000
   262  O2    s     0.683482    0.206640    0.817169    0.000000
   263  O2    s     0.540767    0.298430    0.487250    0.000000
   264  O2    s     0.788086    0.466549    0.154760    0.000000
   265  O2    s     0.792807    0.530080    0.030939    0.000000
   266  O2    s     0.476186    0.248580    0.364722    0.000000
   267  O3    s     0.744208    0.202977    0.691358    0.000000
   268  O2    s     0.216948    0.451113    0.530268    0.000000
   269  O2    s     0.534967    0.724177    0.869005    0.000000
   270  O2    s     0.267972    0.789952    0.197552    0.000000
   271  O2    s     0.540624    0.782186    0.303032    0.000000
   272  O2    s     0.267745    0.464075    0.971279    0.000000
   273  O2    s     0.225259    0.724878    0.635767    0.000000
   274  O2    s     0.469501    0.199199    0.798081    0.000000
   275  O2    s     0.749812    0.520995    0.470409    0.000000
   276  O2    s     0.799634    0.258993    0.137670    0.000000
   277  O2    s     0.247481    0.324344    0.901504    0.000000
   278  O2    s     0.675180    0.903816    0.233059    0.000000
   279  O2    s     0.108483    0.749488    0.565335    0.000000
   280  O2    s     0.766755    0.656942    0.399420    0.000000
   281  O3    s     0.319885    0.072927    0.734724    0.000000
   282  O2    s     0.915020    0.240794    0.067026    0.000000
   283  O2    s     0.341032    0.230266    0.434860    0.000000
   284  O2    s     0.912338    0.664345    0.101630    0.000000
   285  O3    s     0.768436    0.089481    0.769544    0.000000
   286  O2    s     0.672128    0.744069    0.938528    0.000000
   287  O2    s     0.096719    0.313663    0.601075    0.000000
   288  O2    s     0.251227    0.905380    0.268747    0.000000
   289  O3    s     0.594764    0.569904    0.998458    0.000000
   290  O2    s     0.449385    0.016075    0.322244    0.000000
   291  O2    s     0.987138    0.403213    0.654316    0.000000
   292  O2    s     0.424878    0.428431    0.487262    0.000000
   293  O2    s     0.562861    0.963025    0.814567    0.000000
   294  O2    s     0.034649    0.584177    0.154314    0.000000
   295  O2    s     0.567366    0.573381    0.345835    0.000000
   296  O2    s     0.025361    0.438118    0.012797    0.000000
   297  O3    s     0.426414    0.946349    0.673105    0.000000
   298  O2    s     0.445611    0.404231    0.849834    0.000000
   299  O2    s     0.984865    0.548420    0.513377    0.000000
   300  O2    s     0.591386    0.023829    0.180682    0.000000
   301  O2    s     0.584766    0.150405    0.251922    0.000000
   302  O2    s     0.857635    0.414071    0.583825    0.000000
   303  O3    s     0.595674    0.408375    0.913391    0.000000
   304  O2    s     0.421000    0.830180    0.747921    0.000000
   305  O2    s     0.161352    0.575650    0.082988    0.000000
   306  O2    s     0.431569    0.567147    0.415967    0.000000
   307  F     s     0.461158    0.899986    0.250794    0.000000
   308  F     s     0.106973    0.531784    0.584170    0.000000
   309  F     s     0.479987    0.509074    0.930854    0.000000
   310  F     s     0.523130    0.082595    0.734098    0.000000
   311  F     s     0.918463    0.454797    0.084189    0.000000
   312  F     s     0.557301    0.441840    0.417244    0.000000
--------------------------------------------------------------------------------

  Final Cartesian lattice vectors (Angstroms) :

       11.961167    0.000584   -0.004586
       -5.886848   10.388845    0.007216
       -0.302161    0.234502   29.401612


  Final cell parameters and derivatives :

--------------------------------------------------------------------------------
       a           11.961168 Angstrom     dE/de1(xx)     0.001681 eV/strain
       b           11.940818 Angstrom     dE/de2(yy)     0.001602 eV/strain
       c           29.404100 Angstrom     dE/de3(zz)     0.002609 eV/strain
       alpha       89.277539 Degrees      dE/de4(yz)    -0.000012 eV/strain
       beta        90.610736 Degrees      dE/de5(xz)    -0.000244 eV/strain
       gamma      119.535305 Degrees      dE/de6(xy)     0.000051 eV/strain
--------------------------------------------------------------------------------

  Primitive cell volume =          3653.597017 Angs**3

  Density of cell =      1.751176 g/cm**3

  Non-primitive cell volume =          3653.597017 Angs**3


  Final internal derivatives :

--------------------------------------------------------------------------------
   No.  Atomic          a             b             c           Radius
        Label          (eV)          (eV)          (eV)        (eV/Angs)
--------------------------------------------------------------------------------
      1 Si    c       0.000000      0.000000      0.000000      0.000000
      2 Si    c       0.000011     -0.000015      0.000540      0.000000
      3 Si    c      -0.000127     -0.000602      0.000319      0.000000
      4 Si    c       0.000023     -0.000066     -0.000055      0.000000
      5 Si    c       0.000076     -0.000248     -0.000383      0.000000
      6 Si    c       0.000099      0.000122      0.000704      0.000000
      7 Si    c      -0.000034      0.000060     -0.000506      0.000000
      8 Si    c       0.000140     -0.000304      0.000587      0.000000
      9 Si    c      -0.000154     -0.000228     -0.000939      0.000000
     10 Si    c       0.000003     -0.000090     -0.000774      0.000000
     11 Si    c      -0.000008     -0.000028     -0.000276      0.000000
     12 Si    c       0.000110      0.000103      0.000251      0.000000
     13 Ge    c      -0.001403      0.001280     -0.000211      0.000000
     14 Si    c       0.000036     -0.000029      0.000395      0.000000
     15 Si    c       0.000266      0.000020     -0.000473      0.000000
     16 Si    c      -0.000075      0.000072     -0.000326      0.000000
     17 Si    c       0.000210     -0.000074      0.000185      0.000000
     18 Si    c       0.000089     -0.000250      0.000051      0.000000
     19 Si    c      -0.000038      0.000080      0.000357      0.000000
     20 Si    c      -0.000332     -0.000065     -0.000709      0.000000
     21 Si    c       0.000059      0.000449      0.001205      0.000000
     22 Si    c       0.000303     -0.000023     -0.003481      0.000000
     23 Si    c       0.000053      0.000029     -0.000223      0.000000
     24 Si    c       0.000060     -0.000028     -0.001118      0.000000
     25 Si    c      -0.000074      0.000081     -0.001400      0.000000
     26 Si    c       0.000064      0.000123      0.000103      0.000000
     27 Si    c      -0.000024      0.000062     -0.000118      0.000000
     28 Si    c       0.000012      0.000158      0.000041      0.000000
     29 Ge    c       0.000442     -0.000073      0.000685      0.000000
     30 Si    c       0.000269      0.000304     -0.000823      0.000000
     31 Si    c      -0.000046     -0.000062     -0.000152      0.000000
     32 Si    c       0.000015      0.000140      0.000438      0.000000
     33 Si    c       0.000249     -0.000140     -0.000495      0.000000
     34 Si    c       0.000289      0.000036      0.001361      0.000000
     35 Si    c       0.000047     -0.000047      0.000071      0.000000
     36 Si    c      -0.000190      0.000105      0.000507      0.000000
     37 Si    c       0.000181      0.000206      0.000353      0.000000
     38 Si    c       0.000175     -0.000087      0.000116      0.000000
     39 Si    c      -0.000085      0.000146      0.000055      0.000000
     40 Si    c       0.000001      0.000098     -0.000204      0.000000
     41 Si    c      -0.000154      0.000108      0.000119      0.000000
     42 Si    c       0.000196     -0.000071      0.000594      0.000000
     43 Si    c      -0.000027     -0.000067      0.000185      0.000000
     44 Si    c       0.000049     -0.000546     -0.000560      0.000000
     45 Ge    c      -0.000046     -0.000241      0.001209      0.000000
     46 Si    c      -0.000009      0.000007     -0.000444      0.000000
     47 Si    c       0.000066     -0.000119     -0.000150      0.000000
     48 Si    c      -0.000076      0.000029     -0.000153      0.000000
     49 Si    c      -0.000101      0.000417      0.001345      0.000000
     50 Si    c      -0.000003     -0.000085      0.000654      0.000000
     51 Si    c      -0.000224      0.000033     -0.000826      0.000000
     52 Si    c       0.000015      0.000032     -0.000044      0.000000
     53 Si    c      -0.000115      0.000299     -0.000358      0.000000
     54 Si    c      -0.000599      0.000192      0.001389      0.000000
     55 Si    c      -0.000041     -0.000072      0.000202      0.000000
     56 Si    c      -0.000395     -0.000400     -0.001220      0.000000
     57 Si    c       0.000342     -0.000025     -0.000103      0.000000
     58 Si    c      -0.000082     -0.000240     -0.001650      0.000000
     59 Si    c       0.000000     -0.000032      0.000203      0.000000
     60 Si    c       0.000155     -0.000245     -0.000489      0.000000
     61 O2    c       0.000055      0.000266     -0.000674      0.000000
     62 O2    c      -0.000009     -0.000015     -0.000102      0.000000
     63 O2    c      -0.000309     -0.000118      0.000474      0.000000
     64 O2    c       0.000024     -0.000048     -0.000042      0.000000
     65 O2    c       0.000266     -0.000017     -0.000172      0.000000
     66 O2    c       0.000306      0.000144      0.000506      0.000000
     67 O2    c       0.000034     -0.000261      0.000243      0.000000
     68 O2    c       0.000486     -0.000329      0.000004      0.000000
     69 O2    c      -0.000261      0.000206      0.000251      0.000000
     70 O2    c       0.000004      0.000154      0.000381      0.000000
     71 O2    c      -0.000084     -0.000098      0.000588      0.000000
     72 O2    c      -0.000012     -0.000082     -0.000053      0.000000
     73 O3    c       0.000315      0.000127      0.000507      0.000000
     74 O2    c      -0.000001      0.000583     -0.000369      0.000000
     75 O2    c       0.000110     -0.000181     -0.000343      0.000000
     76 O2    c       0.000020      0.000021     -0.000050      0.000000
     77 O2    c      -0.000083     -0.000313     -0.000982      0.000000
     78 O2    c      -0.000137      0.000132     -0.000026      0.000000
     79 O2    c      -0.000217     -0.000067      0.000249      0.000000
     80 O2    c      -0.000141      0.000097     -0.000011      0.000000
     81 O2    c       0.000074     -0.000429      0.000133      0.000000
     82 O2    c      -0.000059     -0.000012     -0.000006      0.000000
     83 O2    c       0.000031     -0.000038     -0.000004      0.000000
     84 O2    c      -0.000060      0.000437      0.000118      0.000000
     85 O2    c       0.000003      0.000040      0.000010      0.000000
     86 O2    c      -0.000041      0.000084      0.000049      0.000000
     87 O3    c      -0.000970      0.000138     -0.000663      0.000000
     88 O2    c      -0.000053     -0.000066      0.000004      0.000000
     89 O2    c      -0.000031      0.000031      0.000035      0.000000
     90 O2    c      -0.000063      0.000054     -0.000138      0.000000
     91 O2    c      -0.000071      0.000185     -0.000115      0.000000
     92 O2    c       0.000004     -0.000010     -0.000110      0.000000
     93 O2    c       0.000031      0.000056      0.000723      0.000000
     94 O2    c       0.000052     -0.000093      0.001958      0.000000
     95 O2    c       0.000359     -0.000236     -0.000679      0.000000
     96 O2    c       0.000063      0.000040     -0.000543      0.000000
     97 O2    c      -0.000273      0.000213     -0.000106      0.000000
     98 O2    c      -0.000039     -0.000122      0.000081      0.000000
     99 O3    c       0.000532      0.000069      0.000010      0.000000
    100 O2    c       0.000023     -0.000003     -0.000021      0.000000
    101 O2    c      -0.000046     -0.000082     -0.000030      0.000000
    102 O2    c      -0.000040      0.000064     -0.000048      0.000000
    103 O2    c       0.000054     -0.000045     -0.000194      0.000000
    104 O2    c       0.000300     -0.000091      0.000037      0.000000
    105 O2    c       0.000024      0.000455     -0.000126      0.000000
    106 O2    c      -0.000071      0.000112      0.000126      0.000000
    107 O2    c       0.000007     -0.000006     -0.000017      0.000000
    108 O2    c       0.000022     -0.000187     -0.000181      0.000000
    109 O2    c      -0.000012     -0.000068      0.000108      0.000000
    110 O2    c       0.000061      0.000020      0.000093      0.000000
    111 O2    c      -0.000224      0.000226     -0.000450      0.000000
    112 O2    c      -0.000344      0.000080      0.002157      0.000000
    113 O2    c      -0.000275      0.000113      0.000690      0.000000
    114 O2    c      -0.000045      0.000042     -0.000155      0.000000
    115 O3    c      -0.000036      0.000026      0.000119      0.000000
    116 O2    c      -0.000011      0.000050      0.000052      0.000000
    117 O2    c      -0.000061     -0.000022      0.000043      0.000000
    118 O2    c      -0.000035      0.000034      0.000020      0.000000
    119 O2    c       0.000126     -0.000173     -0.000057      0.000000
    120 O2    c      -0.000025      0.000134     -0.000025      0.000000
    121 O2    c      -0.000041     -0.000007     -0.000044      0.000000
    122 O2    c       0.000016     -0.000073     -0.000061      0.000000
    123 O3    c      -0.000509      0.000526     -0.000384      0.000000
    124 O2    c      -0.000031      0.000044     -0.000217      0.000000
    125 O2    c      -0.000109      0.000026     -0.000129      0.000000
    126 O2    c       0.000076      0.000051     -0.000133      0.000000
    127 O2    c      -0.000356      0.000238     -0.000073      0.000000
    128 O2    c       0.000057     -0.000069     -0.000101      0.000000
    129 O3    c       0.000048     -0.000137      0.000323      0.000000
    130 O2    c      -0.000014      0.000054     -0.000115      0.000000
    131 O2    c      -0.000178      0.000403      0.000091      0.000000
    132 O2    c      -0.000134     -0.000129     -0.000081      0.000000
    133 O2    c       0.000060     -0.000223      0.000030      0.000000
    134 O2    c      -0.000897      0.000397     -0.000170      0.000000
    135 O2    c      -0.000006     -0.000110      0.000085      0.000000
    136 O2    c       0.000118     -0.000125     -0.000527      0.000000
    137 O2    c       0.000030     -0.000028      0.000018      0.000000
    138 O2    c      -0.000199     -0.000347      0.000109      0.000000
    139 O2    c       0.000236      0.000176      0.000623      0.000000
    140 O2    c       0.000026     -0.000042     -0.000077      0.000000
    141 O3    c      -0.000507      0.000885      0.000131      0.000000
    142 O2    c       0.000054      0.000109     -0.000157      0.000000
    143 O2    c       0.000185      0.000017     -0.000156      0.000000
    144 O2    c      -0.000085     -0.000029     -0.000113      0.000000
    145 O2    c      -0.000001     -0.000114      0.000173      0.000000
    146 O2    c       0.000058     -0.000077     -0.000059      0.000000
    147 O2    c       0.000032      0.000077      0.000336      0.000000
    148 O2    c       0.000196     -0.000074      0.000178      0.000000
    149 O2    c       0.000055     -0.000077      0.000138      0.000000
    150 O2    c       0.000238     -0.000317      0.000160      0.000000
    151 O2    c      -0.000263     -0.000225      0.001736      0.000000
    152 O2    c       0.000025     -0.000039     -0.000221      0.000000
    153 O2    c      -0.000028      0.000067     -0.000206      0.000000
    154 O2    c      -0.000020     -0.000018     -0.000048      0.000000
    155 O3    c      -0.000012     -0.000177      0.000413      0.000000
    156 O2    c       0.000105     -0.000268      0.000232      0.000000
    157 O2    c      -0.000010      0.000023      0.000010      0.000000
    158 O2    c      -0.000117      0.000153     -0.000371      0.000000
    159 O3    c      -0.000775     -0.000067     -0.000816      0.000000
    160 O2    c       0.000443     -0.000040     -0.002255      0.000000
    161 O2    c       0.000015     -0.000049      0.000182      0.000000
    162 O2    c      -0.000165      0.000084     -0.000334      0.000000
    163 O3    c      -0.000031     -0.000339     -0.000159      0.000000
    164 O2    c       0.000072      0.000062      0.000090      0.000000
    165 O2    c      -0.000105      0.000006      0.000311      0.000000
    166 O2    c      -0.000025      0.000036      0.000057      0.000000
    167 O2    c      -0.000178      0.000292      0.000096      0.000000
    168 O2    c       0.000039      0.000077      0.000376      0.000000
    169 O2    c       0.000027      0.000039     -0.000197      0.000000
    170 O2    c      -0.000148     -0.000058     -0.000003      0.000000
    171 O3    c       0.000148     -0.000539      0.000329      0.000000
    172 O2    c       0.000282     -0.000091     -0.000296      0.000000
    173 O2    c      -0.000042     -0.000081     -0.000039      0.000000
    174 O2    c      -0.000063      0.000102     -0.000034      0.000000
    175 O2    c       0.000051      0.000138      0.000534      0.000000
    176 O2    c      -0.000093      0.000017      0.000142      0.000000
    177 O3    c       0.001669     -0.001728      0.000318      0.000000
    178 O2    c       0.000337     -0.000023     -0.001390      0.000000
    179 O2    c       0.000239     -0.000066      0.000459      0.000000
    180 O2    c       0.000037     -0.000054     -0.000085      0.000000
    181 F     c      -0.000045      0.000050     -0.000039      0.000000
    182 F     c       0.000012      0.000021     -0.000037      0.000000
    183 F     c      -0.000044     -0.000032      0.001625      0.000000
    184 F     c      -0.000140      0.000150     -0.000618      0.000000
    185 F     c      -0.000034     -0.000013     -0.000354      0.000000
    186 F     c      -0.000026      0.000026     -0.000010      0.000000
    187 O2    s       0.000115     -0.000216      0.000074      0.000000
    188 O2    s       0.000065      0.000004      0.000370      0.000000
    189 O2    s       0.000162     -0.000142     -0.000183      0.000000
    190 O2    s       0.000009      0.000019      0.000062      0.000000
    191 O2    s       0.000092     -0.000222     -0.000373      0.000000
    192 O2    s       0.000152      0.000130      0.000484      0.000000
    193 O2    s      -0.000021      0.000011      0.000104      0.000000
    194 O2    s      -0.000256      0.000329      0.000378      0.000000
    195 O2    s       0.000050      0.000133      0.000130      0.000000
    196 O2    s       0.000083     -0.000088     -0.000460      0.000000
    197 O2    s      -0.000263      0.000201      0.000162      0.000000
    198 O2    s      -0.000029      0.000032     -0.000005      0.000000
    199 O3    s      -0.000549     -0.000393     -0.000321      0.000000
    200 O2    s       0.000027     -0.000283      0.000003      0.000000
    201 O2    s      -0.000006      0.000084      0.000017      0.000000
    202 O2    s       0.000065     -0.000032     -0.000019      0.000000
    203 O2    s       0.000074     -0.000049     -0.000043      0.000000
    204 O2    s      -0.000057      0.000115     -0.000484      0.000000
    205 O2    s       0.000108     -0.000057      0.000366      0.000000
    206 O2    s      -0.000028      0.000103      0.000353      0.000000
    207 O2    s       0.000008     -0.000135     -0.000050      0.000000
    208 O2    s      -0.000011      0.000005      0.000055      0.000000
    209 O2    s       0.000019      0.000020      0.000177      0.000000
    210 O2    s       0.000193      0.000085      0.000183      0.000000
    211 O2    s      -0.000007     -0.000003     -0.000118      0.000000
    212 O2    s       0.000277     -0.000253     -0.000653      0.000000
    213 O3    s      -0.000067     -0.000090      0.000510      0.000000
    214 O2    s       0.000170     -0.000215     -0.000287      0.000000
    215 O2    s       0.000038     -0.000035     -0.000167      0.000000
    216 O2    s       0.000074      0.000090     -0.000096      0.000000
    217 O2    s       0.000107     -0.000097      0.000368      0.000000
    218 O2    s      -0.000090      0.000152     -0.000320      0.000000
    219 O2    s       0.000106     -0.000136     -0.000029      0.000000
    220 O2    s       0.000065     -0.000167     -0.000000      0.000000
    221 O2    s      -0.000205     -0.000004     -0.000124      0.000000
    222 O2    s      -0.000055      0.000001      0.000095      0.000000
    223 O2    s      -0.000111      0.000055     -0.000470      0.000000
    224 O2    s       0.000118     -0.000139      0.000087      0.000000
    225 O3    s       0.000102      0.000219      0.000204      0.000000
    226 O2    s      -0.000002      0.000006     -0.000090      0.000000
    227 O2    s       0.000067     -0.000139     -0.000803      0.000000
    228 O2    s      -0.000208     -0.000245      0.000025      0.000000
    229 O2    s      -0.000082      0.000051      0.000279      0.000000
    230 O2    s      -0.000216      0.000337      0.000498      0.000000
    231 O2    s       0.000188      0.000246     -0.000337      0.000000
    232 O2    s      -0.000373      0.000271     -0.000660      0.000000
    233 O2    s      -0.000005      0.000040      0.000045      0.000000
    234 O2    s      -0.000035     -0.000138      0.000340      0.000000
    235 O2    s       0.000040     -0.000225      0.000023      0.000000
    236 O2    s       0.000029     -0.000000      0.000036      0.000000
    237 O2    s      -0.000175      0.000180      0.000108      0.000000
    238 O2    s       0.000046     -0.000174     -0.000296      0.000000
    239 O2    s      -0.000104     -0.000059     -0.000073      0.000000
    240 O2    s       0.000056     -0.000051      0.000107      0.000000
    241 O3    s       0.000288     -0.000451      0.000046      0.000000
    242 O2    s      -0.000014      0.000071      0.000144      0.000000
    243 O2    s      -0.000051      0.000036      0.000061      0.000000
    244 O2    s       0.000008      0.000011      0.000133      0.000000
    245 O2    s       0.000070      0.000073     -0.000184      0.000000
    246 O2    s       0.000119     -0.000114      0.000195      0.000000
    247 O2    s       0.000017      0.000013     -0.000090      0.000000
    248 O2    s      -0.000077      0.000367      0.000015      0.000000
    249 O3    s      -0.000289      0.000316      0.000637      0.000000
    250 O2    s       0.000143     -0.000281      0.000594      0.000000
    251 O2    s      -0.000006     -0.000039     -0.000079      0.000000
    252 O2    s      -0.000019      0.000057      0.000130      0.000000
    253 O2    s       0.000365     -0.000573     -0.000304      0.000000
    254 O2    s      -0.000028      0.000059     -0.000071      0.000000
    255 O3    s      -0.000097     -0.000070     -0.000480      0.000000
    256 O2    s       0.000015      0.000020     -0.000159      0.000000
    257 O2    s      -0.000153      0.000087     -0.000837      0.000000
    258 O2    s       0.000134     -0.000085     -0.000542      0.000000
    259 O2    s      -0.000070      0.000108      0.000445      0.000000
    260 O2    s       0.000027      0.000222      0.000885      0.000000
    261 O2    s       0.000020      0.000005      0.000224      0.000000
    262 O2    s      -0.000064      0.000012     -0.001060      0.000000
    263 O2    s      -0.000002     -0.000001      0.000175      0.000000
    264 O2    s      -0.000074      0.000226      0.000599      0.000000
    265 O2    s      -0.000168      0.000486     -0.000215      0.000000
    266 O2    s      -0.000063      0.000060     -0.000019      0.000000
    267 O3    s       0.000269     -0.000686      0.000789      0.000000
    268 O2    s       0.000115     -0.000122     -0.000087      0.000000
    269 O2    s       0.000081      0.000080     -0.000138      0.000000
    270 O2    s      -0.000055      0.000148     -0.000214      0.000000
    271 O2    s       0.000025      0.000029      0.000078      0.000000
    272 O2    s      -0.000196      0.000019      0.000381      0.000000
    273 O2    s       0.000106     -0.000157     -0.000199      0.000000
    274 O2    s       0.000147     -0.000092     -0.000830      0.000000
    275 O2    s      -0.000030      0.000045     -0.000042      0.000000
    276 O2    s       0.000029      0.000089     -0.000058      0.000000
    277 O2    s       0.000070     -0.000122     -0.000024      0.000000
    278 O2    s       0.000170     -0.000046      0.000247      0.000000
    279 O2    s      -0.000020     -0.000037      0.000140      0.000000
    280 O2    s       0.000026      0.000013     -0.000010      0.000000
    281 O3    s       0.000416      0.000207     -0.000356      0.000000
    282 O2    s       0.000032     -0.000006      0.000014      0.000000
    283 O2    s      -0.000001     -0.000024      0.000002      0.000000
    284 O2    s       0.000043      0.000062     -0.000195      0.000000
    285 O3    s      -0.000087     -0.000071     -0.000159      0.000000
    286 O2    s       0.000022      0.000230      0.000182      0.000000
    287 O2    s       0.000003      0.000054      0.000122      0.000000
    288 O2    s       0.000028      0.000055      0.000307      0.000000
    289 O3    s       0.000851     -0.000609      0.002215      0.000000
    290 O2    s       0.000040      0.000023      0.000057      0.000000
    291 O2    s       0.000043      0.000048     -0.000407      0.000000
    292 O2    s      -0.000013      0.000014      0.000136      0.000000
    293 O2    s       0.000093      0.000203     -0.000066      0.000000
    294 O2    s       0.000148     -0.000095      0.000007      0.000000
    295 O2    s      -0.000012     -0.000073      0.000143      0.000000
    296 O2    s       0.000322     -0.000152     -0.000655      0.000000
    297 O3    s       0.000364     -0.000023      0.002211      0.000000
    298 O2    s       0.000467     -0.000279      0.000166      0.000000
    299 O2    s      -0.000068      0.000075     -0.000085      0.000000
    300 O2    s      -0.000069      0.000156     -0.000078      0.000000
    301 O2    s      -0.000046     -0.000070     -0.000059      0.000000
    302 O2    s       0.000004      0.000001      0.000062      0.000000
    303 O3    s      -0.001647      0.001705      0.000519      0.000000
    304 O2    s       0.000017      0.000319     -0.000351      0.000000
    305 O2    s       0.000044      0.000012     -0.000026      0.000000
    306 O2    s      -0.000055      0.000076      0.000006      0.000000
    307 F     s       0.000053     -0.000023      0.000145      0.000000
    308 F     s      -0.000040     -0.000024      0.000130      0.000000
    309 F     s       0.001021     -0.001313     -0.000515      0.000000
    310 F     s      -0.000343      0.000008     -0.000501      0.000000
    311 F     s       0.000012      0.000062      0.000835      0.000000
    312 F     s       0.000043     -0.000033     -0.000012      0.000000
--------------------------------------------------------------------------------
  Maximum abs         0.001669      0.001728      0.003481      0.000000
--------------------------------------------------------------------------------


  Time to end of optimisation =       7.0725 seconds


  Peak dynamic memory used =      19.13 MB 


  Timing analysis for GULP :

--------------------------------------------------------------------------------
  Task / Subroutine                                          Time (Seconds)
--------------------------------------------------------------------------------
  Calculation of reciprocal space energy and derivatives          0.2795
  Calculation of real space energy and derivatives                5.9109
  Calculation of three-body energy and derivatives                0.6566
  Calculation of matrix inversion                                 0.1921
--------------------------------------------------------------------------------
  Total CPU time                                                  7.0725
--------------------------------------------------------------------------------


  Dump file written as out.res                                                 
  CIF file written as out.cif                                                 


  Job Finished at 10:31.37 29th November   2016                               

