********************************************************************************
*                       GENERAL UTILITY LATTICE PROGRAM                        *
*                                 Julian Gale                                  *
*                      Nanochemistry Research Institute                        *
*                           Department of Chemistry                            *
*                    Curtin University, Western Australia                      *
********************************************************************************
* Version = 4.2.0 * Last modified =  20th January 2014                         *
********************************************************************************
*  optimise     - perform optimisation run                                     *
*  conp         - constant pressure calculation                                *
*  qok          - running with non charge neutral cell is OK                   *
********************************************************************************

  Job Started  at 09:59.45 28th November   2016                               

  Number of CPUs =     1


  Total number of configurations input =   1

********************************************************************************
*  Input for Configuration =   1                                               *
********************************************************************************

  Formula = Si57Ge3O120F6                                               

  Number of irreducible atoms/shells =     312


  Total number atoms/shells =     312

  Dimensionality = 3               :  Bulk   


  Charge on solid   =  -6.000000 =>neutralising background added


  Cartesian lattice vectors (Angstroms) :

       11.979246    0.000000    0.000000
       -5.967588   10.338308    0.000000
       -0.269554    0.245114   29.546795

  Cell parameters (Angstroms/Degrees):

  a =      11.9792    alpha =  89.3271
  b =      11.9370    beta  =  90.5227
  c =      29.5490    gamma = 119.9949

  Initial cell volume =        3659.226677 Angs**3

  Temperature of configuration =  0.000     K 

  Pressure of configuration =         0.000 GPa 

  Fractional coordinates of asymmetric unit :

--------------------------------------------------------------------------------
   No.  Atomic       x           y          z         Charge      Occupancy
        Label      (Frac)      (Frac)     (Frac)        (e)         (Frac)  
--------------------------------------------------------------------------------
      1 Si    c    0.699600    0.375700    0.033890     4.00000    1.000000    
      2 Si    c    0.623338 *  0.320928 *  0.368375 *   4.00000    1.000000    
      3 Si    c    0.676324 *  0.290375 *  0.700458 *   4.00000    1.000000    
      4 Si    c    0.298609 *  0.619691 *  0.537958 *   4.00000    1.000000    
      5 Si    c    0.386881 *  0.672350 *  0.871050 *   4.00000    1.000000    
      6 Si    c    0.325979 *  0.708611 *  0.204891 *   4.00000    1.000000    
      7 Si    c    0.381931 *  0.714316 *  0.304804 *   4.00000    1.000000    
      8 Si    c    0.333935 *  0.615833 *  0.972803 *   4.00000    1.000000    
      9 Si    c    0.297623 *  0.671848 *  0.638195 *   4.00000    1.000000    
     10 Si    c    0.625234 *  0.293069 *  0.800598 *   4.00000    1.000000    
     11 Si    c    0.674730 *  0.372368 *  0.470792 *   4.00000    1.000000    
     12 Si    c    0.704148 *  0.329485 *  0.137314 *   4.00000    1.000000    
     13 Ge    c    0.532984 *  0.421905 *  0.966978 *   4.00000    1.000000    
     14 Si    c    0.589663 *  0.119042 *  0.303343 *   4.00000    1.000000    
     15 Si    c    0.887259 *  0.464470 *  0.636580 *   4.00000    1.000000    
     16 Si    c    0.468630 *  0.581118 *  0.473159 *   4.00000    1.000000    
     17 Si    c    0.422368 *  0.882656 *  0.804367 *   4.00000    1.000000    
     18 Si    c    0.117742 *  0.536634 *  0.139779 *   4.00000    1.000000    
     19 Si    c    0.411521 *  0.535086 *  0.369849 *   4.00000    1.000000    
     20 Si    c    0.124951 *  0.589921 *  0.036280 *   4.00000    1.000000    
     21 Si    c    0.470284 *  0.880413 *  0.703116 *   4.00000    1.000000    
     22 Si    c    0.597132 *  0.462063 *  0.868161 *   4.00000    1.000000    
     23 Si    c    0.889208 *  0.415693 *  0.535439 *   4.00000    1.000000    
     24 Si    c    0.532833 *  0.116269 *  0.202148 *   4.00000    1.000000    
     25 Si    c    0.310414 *  0.390627 *  0.855778 *   4.00000    1.000000    
     26 Si    c    0.604097 *  0.906393 *  0.188657 *   4.00000    1.000000    
     27 Si    c    0.098105 *  0.697534 *  0.522605 *   4.00000    1.000000    
     28 Si    c    0.695387 *  0.604105 *  0.354953 *   4.00000    1.000000    
     29 Si    c    0.397652 *  0.089160 *  0.687832 *   4.00000    1.000000    
     30 Si    c    0.910536 *  0.304384 *  0.022329 *   4.00000    1.000000    
     31 Si    c    0.394710 *  0.293902 *  0.489301 *   4.00000    1.000000    
     32 Si    c    0.905953 *  0.610157 *  0.155523 *   4.00000    1.000000    
     33 Si    c    0.703217 *  0.091976 *  0.817352 *   4.00000    1.000000    
     34 Si    c    0.616617 *  0.696031 *  0.990873 *   4.00000    1.000000    
     35 Si    c    0.095856 *  0.392189 *  0.652197 *   4.00000    1.000000    
     36 Si    c    0.306371 *  0.916091 *  0.319674 *   4.00000    1.000000    
     37 Si    c    0.254148 *  0.326849 *  0.957365 *   4.00000    1.000000    
     38 Si    c    0.664183 *  0.915513 *  0.289083 *   4.00000    1.000000    
     39 Si    c    0.088778 *  0.744476 *  0.622886 *   4.00000    1.000000    
     40 Si    c    0.749282 *  0.661034 *  0.456698 *   4.00000    1.000000    
     41 Si    c    0.342792 *  0.083367 *  0.788356 *   4.00000    1.000000    
     42 Si    c    0.916608 *  0.254644 *  0.124324 *   4.00000    1.000000    
     43 Ge    c    0.357298 *  0.268880 *  0.389592 *   4.00000    1.000000    
     44 Ge    c    0.914462 *  0.643776 *  0.055464 *   4.00000    1.000000    
     45 Si    c    0.749339 *  0.081915 *  0.716943 *   4.00000    1.000000    
     46 Si    c    0.672122 *  0.741944 *  0.887951 *   4.00000    1.000000    
     47 Si    c    0.089928 *  0.337472 *  0.551711 *   4.00000    1.000000    
     48 Si    c    0.254092 *  0.917874 *  0.218679 *   4.00000    1.000000    
     49 Si    c    0.969306 *  0.117855 *  0.972457 *   4.00000    1.000000    
     50 Si    c    0.882861 *  0.855425 *  0.306618 *   4.00000    1.000000    
     51 Si    c    0.147813 *  0.022630 *  0.639194 *   4.00000    1.000000    
     52 Si    c    0.032048 *  0.879746 *  0.471681 *   4.00000    1.000000    
     53 Si    c    0.125022 *  0.145232 *  0.805399 *   4.00000    1.000000    
     54 Si    c    0.851397 *  0.972345 *  0.139365 *   4.00000    1.000000    
     55 Si    c    0.128331 *  0.984714 *  0.371676 *   4.00000    1.000000    
     56 Si    c    0.861138 *  0.878030 *  0.040047 *   4.00000    1.000000    
     57 Si    c    0.028946 *  0.144492 *  0.704470 *   4.00000    1.000000    
     58 Si    c    0.882833 *  0.025616 *  0.870930 *   4.00000    1.000000    
     59 Si    c    0.149296 *  0.117992 *  0.538854 *   4.00000    1.000000    
     60 Si    c    0.973877 *  0.853167 *  0.206456 *   4.00000    1.000000    
     61 O2    c    0.933161 *  0.001031 *  0.006271 *   0.87073    1.000000    
     62 O2    c    0.999776 *  0.930860 *  0.340813 *   0.87073    1.000000    
     63 O2    c    0.072869 *  0.063644 *  0.673902 *   0.87073    1.000000    
     64 O2    c    0.071392 *  0.997388 *  0.505830 *   0.87073    1.000000    
     65 O2    c    0.008007 *  0.067891 *  0.840074 *   0.87073    1.000000    
     66 O2    c    0.926300 *  0.929704 *  0.174262 *   0.87073    1.000000    
     67 O2    c    0.341107 *  0.594439 *  0.339453 *   0.87073    1.000000    
     68 O2    c    0.420195 *  0.754408 *  0.671219 *   0.87073    1.000000    
     69 O2    c    0.253549 *  0.656612 *  0.005256 *   0.87073    1.000000    
     70 O2    c    0.667578 *  0.420912 *  0.830313 *   0.87073    1.000000    
     71 O2    c    0.581139 *  0.241341 *  0.169144 *   0.87073    1.000000    
     72 O2    c    0.764223 *  0.338557 *  0.502784 *   0.87073    1.000000    
     73 O3    c    0.578512 *  0.328869 *  0.001971 *   1.33043    1.000000    
     74 O2    c    0.760051 *  0.413894 *  0.667672 *   0.87073    1.000000    
     75 O2    c    0.671181 *  0.244914 *  0.335333 *   0.87073    1.000000    
     76 O2    c    0.422096 *  0.658019 *  0.505788 *   0.87073    1.000000    
     77 O2    c    0.241469 *  0.584417 *  0.172781 *   0.87073    1.000000    
     78 O2    c    0.349851 *  0.757613 *  0.837921 *   0.87073    1.000000    
     79 O2    c    0.122080 *  0.208319 *  0.976101 *   0.87073    1.000000    
     80 O2    c    0.790299 *  0.917202 *  0.310153 *   0.87073    1.000000    
     81 O2    c    0.085839 *  0.867903 *  0.643871 *   0.87073    1.000000    
     82 O2    c    0.876756 *  0.784817 *  0.476436 *   0.87073    1.000000    
     83 O2    c    0.215933 *  0.080973 *  0.808594 *   0.87073    1.000000    
     84 O2    c    0.912654 *  0.127503 *  0.145391 *   0.87073    1.000000    
     85 O3    c    0.212905 *  0.134201 *  0.367268 *   1.33043    1.000000    
     86 O3    c    0.921140 *  0.789791 *  0.034573 *   1.33043    1.000000    
     87 O2    c    0.875212 *  0.081022 *  0.697452 *   0.87073    1.000000    
     88 O2    c    0.792842 *  0.870785 *  0.866362 *   0.87073    1.000000    
     89 O2    c    0.088394 *  0.211131 *  0.531525 *   0.87073    1.000000    
     90 O2    c    0.127596 *  0.918208 *  0.198777 *   0.87073    1.000000    
     91 O2    c    0.940907 *  0.870715 *  0.257161 *   0.87073    1.000000    
     92 O2    c    0.127045 *  0.062872 *  0.589526 *   0.87073    1.000000    
     93 O2    c    0.926498 *  0.065557 *  0.921953 *   0.87073    1.000000    
     94 O2    c    0.065832 *  0.133751 *  0.755843 *   0.87073    1.000000    
     95 O2    c    0.872279 *  0.938072 *  0.089640 *   0.87073    1.000000    
     96 O2    c    0.072470 *  0.933875 *  0.421855 *   0.87073    1.000000    
     97 O2    c    0.904551 *  0.204395 *  0.984595 *   0.87073    1.000000    
     98 O2    c    0.795312 *  0.702017 *  0.317707 *   0.87073    1.000000    
     99 O2    c    0.300369 *  0.091082 *  0.649567 *   0.87073    1.000000    
    100 O2    c    0.100735 *  0.796604 *  0.484160 *   0.87073    1.000000    
    101 O2    c    0.211979 *  0.297154 *  0.816940 *   0.87073    1.000000    
    102 O2    c    0.698897 *  0.904001 *  0.150131 *   0.87073    1.000000    
    103 O2    c    0.212344 *  0.916617 *  0.358341 *   0.87073    1.000000    
    104 O2    c    0.707939 *  0.802960 *  0.027442 *   0.87073    1.000000    
    105 O2    c    0.098333 *  0.295892 *  0.690983 *   0.87073    1.000000    
    106 O2    c    0.802545 *  0.095066 *  0.855541 *   0.87073    1.000000    
    107 O2    c    0.303199 *  0.202247 *  0.530620 *   0.87073    1.000000    
    108 O2    c    0.906370 *  0.699791 *  0.197077 *   0.87073    1.000000    
    109 O2    c    0.325069 *  0.651145 *  0.255280 *   0.87073    1.000000    
    110 O2    c    0.355733 *  0.675432 *  0.588123 *   0.87073    1.000000    
    111 O2    c    0.332237 *  0.667014 *  0.921385 *   0.87073    1.000000    
    112 O2    c    0.679948 *  0.348403 *  0.750203 *   0.87073    1.000000    
    113 O2    c    0.653714 *  0.331946 *  0.086739 *   0.87073    1.000000    
    114 O2    c    0.673776 *  0.319795 *  0.420257 *   0.87073    1.000000    
    115 O3    c    0.365769 *  0.306287 *  0.976164 *   1.33043    1.000000    
    116 O2    c    0.676530 *  0.049822 *  0.305807 *   0.87073    1.000000    
    117 O2    c    0.955600 *  0.620718 *  0.640005 *   0.87073    1.000000    
    118 O2    c    0.625137 *  0.666130 *  0.475051 *   0.87073    1.000000    
    119 O2    c    0.335012 *  0.951445 *  0.807569 *   0.87073    1.000000    
    120 O2    c    0.046334 *  0.379765 *  0.142271 *   0.87073    1.000000    
    121 O3    c    0.321039 *  0.383204 *  0.365283 *   1.33043    1.000000    
    122 O3    c    0.065103 *  0.681267 *  0.030751 *   1.33043    1.000000    
    123 O2    c    0.626276 *  0.948216 *  0.699791 *   0.87073    1.000000    
    124 O2    c    0.680416 *  0.620940 *  0.867880 *   0.87073    1.000000    
    125 O2    c    0.958890 *  0.329249 *  0.532430 *   0.87073    1.000000    
    126 O2    c    0.376950 *  0.048027 *  0.198834 *   0.87073    1.000000    
    127 O2    c    0.777347 *  0.303994 *  0.016928 *   0.87073    1.000000    
    128 O2    c    0.694465 *  0.469295 *  0.349384 *   0.87073    1.000000    
    129 O2    c    0.531805 *  0.222423 *  0.679127 *   0.87073    1.000000    
    130 O2    c    0.230927 *  0.695505 *  0.515150 *   0.87073    1.000000    
    131 O2    c    0.315359 *  0.528109 *  0.850248 *   0.87073    1.000000    
    132 O2    c    0.467696 *  0.774593 *  0.181536 *   0.87073    1.000000    
    133 O2    c    0.305901 *  0.781142 *  0.326451 *   0.87073    1.000000    
    134 O2    c    0.478816 *  0.692478 *  0.992295 *   0.87073    1.000000    
    135 O2    c    0.229061 *  0.526946 *  0.659823 *   0.87073    1.000000    
    136 O2    c    0.699839 *  0.224557 *  0.823905 *   0.87073    1.000000    
    137 O2    c    0.532610 *  0.297712 *  0.493545 *   0.87073    1.000000    
    138 O2    c    0.773056 *  0.471448 *  0.160234 *   0.87073    1.000000    
    139 O3    c    0.778374 *  0.530347 *  0.025966 *   1.33043    1.000000    
    140 O3    c    0.470707 *  0.240697 *  0.361751 *   1.33043    1.000000    
    141 O2    c    0.749065 *  0.206997 *  0.695836 *   0.87073    1.000000    
    142 O2    c    0.217606 *  0.463372 *  0.532917 *   0.87073    1.000000    
    143 O2    c    0.541103 *  0.736196 *  0.870756 *   0.87073    1.000000    
    144 O2    c    0.250121 *  0.789307 *  0.199972 *   0.87073    1.000000    
    145 O2    c    0.538276 *  0.791507 *  0.309782 *   0.87073    1.000000    
    146 O2    c    0.265010 *  0.460458 *  0.975404 *   0.87073    1.000000    
    147 O2    c    0.214747 *  0.744904 *  0.642892 *   0.87073    1.000000    
    148 O2    c    0.469065 *  0.211363 *  0.806427 *   0.87073    1.000000    
    149 O2    c    0.739564 *  0.527817 *  0.473303 *   0.87073    1.000000    
    150 O2    c    0.793770 *  0.263661 *  0.140316 *   0.87073    1.000000    
    151 O2    c    0.242112 *  0.318636 *  0.902276 *   0.87073    1.000000    
    152 O2    c    0.678858 *  0.909046 *  0.234987 *   0.87073    1.000000    
    153 O2    c    0.093698 *  0.767341 *  0.568746 *   0.87073    1.000000    
    154 O2    c    0.757617 *  0.672640 *  0.402618 *   0.87073    1.000000    
    155 O2    c    0.323870 *  0.084279 *  0.734159 *   0.87073    1.000000    
    156 O2    c    0.919566 *  0.243162 *  0.070317 *   0.87073    1.000000    
    157 O3    c    0.311787 *  0.216384 *  0.446501 *   1.33043    1.000000    
    158 O3    c    0.908538 *  0.691064 *  0.112131 *   1.33043    1.000000    
    159 O2    c    0.771527 *  0.087341 *  0.771007 *   0.87073    1.000000    
    160 O2    c    0.688199 *  0.754260 *  0.941926 *   0.87073    1.000000    
    161 O2    c    0.090827 *  0.318523 *  0.605958 *   0.87073    1.000000    
    162 O2    c    0.238105 *  0.921317 *  0.272757 *   0.87073    1.000000    
    163 O3    c    0.603271 *  0.561414 *  0.002927 *   1.33043    1.000000    
    164 O2    c    0.449861 *  0.036612 *  0.327014 *   0.87073    1.000000    
    165 O2    c    0.970703 *  0.406622 *  0.660326 *   0.87073    1.000000    
    166 O2    c    0.416306 *  0.438663 *  0.495147 *   0.87073    1.000000    
    167 O2    c    0.564730 *  0.964829 *  0.826630 *   0.87073    1.000000    
    168 O2    c    0.030073 *  0.590346 *  0.161334 *   0.87073    1.000000    
    169 O2    c    0.554181 *  0.585824 *  0.347879 *   0.87073    1.000000    
    170 O2    c    0.034660 *  0.445766 *  0.014888 *   0.87073    1.000000    
    171 O2    c    0.411699 *  0.963489 *  0.679520 *   0.87073    1.000000    
    172 O2    c    0.451088 *  0.409318 *  0.848207 *   0.87073    1.000000    
    173 O2    c    0.971131 *  0.558977 *  0.513076 *   0.87073    1.000000    
    174 O2    c    0.592379 *  0.033958 *  0.179811 *   0.87073    1.000000    
    175 O2    c    0.586595 *  0.171253 *  0.252517 *   0.87073    1.000000    
    176 O2    c    0.834767 *  0.412686 *  0.585824 *   0.87073    1.000000    
    177 O3    c    0.604449 *  0.403761 *  0.915640 *   1.33043    1.000000    
    178 O2    c    0.418237 *  0.826981 *  0.754030 *   0.87073    1.000000    
    179 O2    c    0.169324 *  0.586194 *  0.088771 *   0.87073    1.000000    
    180 O2    c    0.418087 *  0.582364 *  0.422301 *   0.87073    1.000000    
    181 F     c    0.455160 *  0.907431 *  0.253026 *   0.56000    1.000000    
    182 F     c    0.096172 *  0.545236 *  0.586503 *   0.56000    1.000000    
    183 F     c    0.479114 *  0.516210 *  0.929793 *   0.56000    1.000000    
    184 F     c    0.548844 *  0.088170 *  0.752357 *   0.56000    1.000000    
    185 F     c    0.914567 *  0.495519 *  0.083166 *   0.56000    1.000000    
    186 F     c    0.508867 *  0.415453 *  0.416313 *   0.56000    1.000000    
    187 O2    s    0.929771 *  0.001816 *  0.005856 *  -2.87073    1.000000    
    188 O2    s    0.999890 *  0.927847 *  0.340133 *  -2.87073    1.000000    
    189 O2    s    0.076306 *  0.068121 *  0.673459 *  -2.87073    1.000000    
    190 O2    s    0.075673 *  0.997771 *  0.505738 *  -2.87073    1.000000    
    191 O2    s    0.007313 *  0.071819 *  0.839603 *  -2.87073    1.000000    
    192 O2    s    0.923227 *  0.925899 *  0.173965 *  -2.87073    1.000000    
    193 O2    s    0.353020 *  0.600723 *  0.339073 *  -2.87073    1.000000    
    194 O2    s    0.412686 *  0.758851 *  0.671088 *  -2.87073    1.000000    
    195 O2    s    0.249016 *  0.645274 *  0.004923 *  -2.87073    1.000000    
    196 O2    s    0.656014 *  0.411628 *  0.830995 *  -2.87073    1.000000    
    197 O2    s    0.589049 *  0.237658 *  0.169215 *  -2.87073    1.000000    
    198 O2    s    0.767604 *  0.350016 *  0.502756 *  -2.87073    1.000000    
    199 O3    s    0.588199 *  0.340082 *  0.002963 *  -3.33043    1.000000    
    200 O2    s    0.764562 *  0.406303 *  0.667851 *  -2.87073    1.000000    
    201 O2    s    0.658299 *  0.240000 *  0.335464 *  -2.87073    1.000000    
    202 O2    s    0.414311 *  0.646125 *  0.505707 *  -2.87073    1.000000    
    203 O2    s    0.237147 *  0.592116 *  0.172621 *  -2.87073    1.000000    
    204 O2    s    0.361096 *  0.761293 *  0.838024 *  -2.87073    1.000000    
    205 O2    s    0.119403 *  0.211238 *  0.973631 *  -2.87073    1.000000    
    206 O2    s    0.786964 *  0.910445 *  0.307600 *  -2.87073    1.000000    
    207 O2    s    0.092728 *  0.871529 *  0.641224 *  -2.87073    1.000000    
    208 O2    s    0.878841 *  0.781194 *  0.473876 *  -2.87073    1.000000    
    209 O2    s    0.219389 *  0.087987 *  0.806200 *  -2.87073    1.000000    
    210 O2    s    0.906833 *  0.125298 *  0.142548 *  -2.87073    1.000000    
    211 O3    s    0.212794 *  0.126053 *  0.369215 *  -3.33043    1.000000    
    212 O3    s    0.913891 *  0.790398 *  0.036517 *  -3.33043    1.000000    
    213 O2    s    0.878496 *  0.087808 *  0.700178 *  -2.87073    1.000000    
    214 O2    s    0.789921 *  0.873903 *  0.869057 *  -2.87073    1.000000    
    215 O2    s    0.094955 *  0.214534 *  0.534379 *  -2.87073    1.000000    
    216 O2    s    0.124602 *  0.911377 *  0.201617 *  -2.87073    1.000000    
    217 O2    s    0.938004 *  0.866983 *  0.257063 *  -2.87073    1.000000    
    218 O2    s    0.131879 *  0.064462 *  0.589482 *  -2.87073    1.000000    
    219 O2    s    0.926209 *  0.066735 *  0.921661 *  -2.87073    1.000000    
    220 O2    s    0.068336 *  0.136204 *  0.755650 *  -2.87073    1.000000    
    221 O2    s    0.868682 *  0.935703 *  0.090177 *  -2.87073    1.000000    
    222 O2    s    0.073581 *  0.932839 *  0.422434 *  -2.87073    1.000000    
    223 O2    s    0.912020 *  0.205765 *  0.987254 *  -2.87073    1.000000    
    224 O2    s    0.793723 *  0.707457 *  0.320511 *  -2.87073    1.000000    
    225 O2    s    0.294130 *  0.083602 *  0.652384 *  -2.87073    1.000000    
    226 O2    s    0.093133 *  0.795116 *  0.486852 *  -2.87073    1.000000    
    227 O2    s    0.212867 *  0.290687 *  0.819684 *  -2.87073    1.000000    
    228 O2    s    0.705181 *  0.911404 *  0.152938 *  -2.87073    1.000000    
    229 O2    s    0.213877 *  0.923354 *  0.355601 *  -2.87073    1.000000    
    230 O2    s    0.713574 *  0.799235 *  0.024869 *  -2.87073    1.000000    
    231 O2    s    0.090696 *  0.289656 *  0.688442 *  -2.87073    1.000000    
    232 O2    s    0.800784 *  0.087343 *  0.853194 *  -2.87073    1.000000    
    233 O2    s    0.296210 *  0.202483 *  0.527466 *  -2.87073    1.000000    
    234 O2    s    0.913409 *  0.707017 *  0.194002 *  -2.87073    1.000000    
    235 O2    s    0.330971 *  0.663469 *  0.255128 *  -2.87073    1.000000    
    236 O2    s    0.343969 *  0.669364 *  0.588085 *  -2.87073    1.000000    
    237 O2    s    0.338113 *  0.662482 *  0.921216 *  -2.87073    1.000000    
    238 O2    s    0.673890 *  0.336545 *  0.750212 *  -2.87073    1.000000    
    239 O2    s    0.663576 *  0.335935 *  0.087141 *  -2.87073    1.000000    
    240 O2    s    0.668910 *  0.325318 *  0.420453 *  -2.87073    1.000000    
    241 O3    s    0.364827 *  0.316291 *  0.973460 *  -3.33043    1.000000    
    242 O2    s    0.666150 *  0.042848 *  0.303761 *  -2.87073    1.000000    
    243 O2    s    0.962514 *  0.617492 *  0.637834 *  -2.87073    1.000000    
    244 O2    s    0.622258 *  0.656931 *  0.472931 *  -2.87073    1.000000    
    245 O2    s    0.344841 *  0.957935 *  0.805248 *  -2.87073    1.000000    
    246 O2    s    0.039928 *  0.382597 *  0.140116 *  -2.87073    1.000000    
    247 O3    s    0.333094 *  0.390663 *  0.367552 *  -3.33043    1.000000    
    248 O3    s    0.061036 *  0.669144 *  0.033047 *  -3.33043    1.000000    
    249 O2    s    0.623116 *  0.955224 *  0.701942 *  -2.87073    1.000000    
    250 O2    s    0.671455 *  0.618304 *  0.870042 *  -2.87073    1.000000    
    251 O2    s    0.965369 *  0.339113 *  0.534773 *  -2.87073    1.000000    
    252 O2    s    0.380278 *  0.041506 *  0.201257 *  -2.87073    1.000000    
    253 O2    s    0.784467 *  0.311233 *  0.019270 *  -2.87073    1.000000    
    254 O2    s    0.687303 *  0.468595 *  0.351943 *  -2.87073    1.000000    
    255 O2    s    0.532572 *  0.215364 *  0.682280 *  -2.87073    1.000000    
    256 O2    s    0.223955 *  0.687858 *  0.518331 *  -2.87073    1.000000    
    257 O2    s    0.322337 *  0.528840 *  0.853014 *  -2.87073    1.000000    
    258 O2    s    0.467636 *  0.781813 *  0.184714 *  -2.87073    1.000000    
    259 O2    s    0.313932 *  0.788448 *  0.323423 *  -2.87073    1.000000    
    260 O2    s    0.477097 *  0.684556 *  0.990001 *  -2.87073    1.000000    
    261 O2    s    0.222076 *  0.527690 *  0.656748 *  -2.87073    1.000000    
    262 O2    s    0.692536 *  0.217465 *  0.820789 *  -2.87073    1.000000    
    263 O2    s    0.533423 *  0.305025 *  0.490735 *  -2.87073    1.000000    
    264 O2    s    0.779391 *  0.470800 *  0.157353 *  -2.87073    1.000000    
    265 O3    s    0.781697 *  0.524402 *  0.028963 *  -3.33043    1.000000    
    266 O3    s    0.477819 *  0.251101 *  0.364470 *  -3.33043    1.000000    
    267 O2    s    0.741422 *  0.202021 *  0.698565 *  -2.87073    1.000000    
    268 O2    s    0.212186 *  0.466070 *  0.535441 *  -2.87073    1.000000    
    269 O2    s    0.538324 *  0.729809 *  0.872618 *  -2.87073    1.000000    
    270 O2    s    0.258530 *  0.794838 *  0.202464 *  -2.87073    1.000000    
    271 O2    s    0.535808 *  0.797048 *  0.307057 *  -2.87073    1.000000    
    272 O2    s    0.271495 *  0.463650 *  0.973285 *  -2.87073    1.000000    
    273 O2    s    0.209683 *  0.737099 *  0.640263 *  -2.87073    1.000000    
    274 O2    s    0.471372 *  0.205763 *  0.803905 *  -2.87073    1.000000    
    275 O2    s    0.733690 *  0.525931 *  0.471238 *  -2.87073    1.000000    
    276 O2    s    0.797958 *  0.269688 *  0.138254 *  -2.87073    1.000000    
    277 O2    s    0.250713 *  0.327224 *  0.902754 *  -2.87073    1.000000    
    278 O2    s    0.669532 *  0.909448 *  0.235880 *  -2.87073    1.000000    
    279 O2    s    0.093645 *  0.757649 *  0.569675 *  -2.87073    1.000000    
    280 O2    s    0.750115 *  0.664134 *  0.403541 *  -2.87073    1.000000    
    281 O2    s    0.333551 *  0.084666 *  0.735072 *  -2.87073    1.000000    
    282 O2    s    0.918340 *  0.250876 *  0.071130 *  -2.87073    1.000000    
    283 O3    s    0.323484 *  0.227996 *  0.446894 *  -3.33043    1.000000    
    284 O3    s    0.908659 *  0.679444 *  0.112728 *  -3.33043    1.000000    
    285 O2    s    0.761945 *  0.087248 *  0.770127 *  -2.87073    1.000000    
    286 O2    s    0.679598 *  0.747270 *  0.940686 *  -2.87073    1.000000    
    287 O2    s    0.091250 *  0.328263 *  0.605099 *  -2.87073    1.000000    
    288 O2    s    0.246982 *  0.920443 *  0.271920 *  -2.87073    1.000000    
    289 O3    s    0.599645 *  0.566651 *  0.999194 *  -3.33043    1.000000    
    290 O2    s    0.449213 *  0.032142 *  0.323716 *  -2.87073    1.000000    
    291 O2    s    0.975635 *  0.411247 *  0.656978 *  -2.87073    1.000000    
    292 O2    s    0.419719 *  0.438669 *  0.492208 *  -2.87073    1.000000    
    293 O2    s    0.564519 *  0.969837 *  0.823299 *  -2.87073    1.000000    
    294 O2    s    0.026388 *  0.586570 *  0.158417 *  -2.87073    1.000000    
    295 O2    s    0.555538 *  0.582615 *  0.350838 *  -2.87073    1.000000    
    296 O2    s    0.030132 *  0.444840 *  0.017803 *  -2.87073    1.000000    
    297 O2    s    0.416475 *  0.968514 *  0.682887 *  -2.87073    1.000000    
    298 O2    s    0.449857 *  0.412556 *  0.851029 *  -2.87073    1.000000    
    299 O2    s    0.976151 *  0.558691 *  0.516429 *  -2.87073    1.000000    
    300 O2    s    0.587319 *  0.028817 *  0.183088 *  -2.87073    1.000000    
    301 O2    s    0.581351 *  0.160177 *  0.252560 *  -2.87073    1.000000    
    302 O2    s    0.845915 *  0.418372 *  0.585825 *  -2.87073    1.000000    
    303 O3    s    0.599080 *  0.411140 *  0.913906 *  -3.33043    1.000000    
    304 O2    s    0.423992 *  0.838218 *  0.754027 *  -2.87073    1.000000    
    305 O2    s    0.159563 *  0.581405 *  0.088928 *  -2.87073    1.000000    
    306 O2    s    0.422812 *  0.577560 *  0.422558 *  -2.87073    1.000000    
    307 F     s    0.454912 *  0.906634 *  0.252956 *  -1.56000    1.000000    
    308 F     s    0.096505 *  0.545472 *  0.586428 *  -1.56000    1.000000    
    309 F     s    0.482741 *  0.509997 *  0.932132 *  -1.56000    1.000000    
    310 F     s    0.548921 *  0.088352 *  0.752346 *  -1.56000    1.000000    
    311 F     s    0.914778 *  0.504001 *  0.081733 *  -1.56000    1.000000    
    312 F     s    0.500683 *  0.407246 *  0.414952 *  -1.56000    1.000000    
--------------------------------------------------------------------------------



********************************************************************************
*  General input information                                                   *
********************************************************************************

  Species output for all configurations : 

--------------------------------------------------------------------------------
  Species    Type    Atomic    Atomic    Charge       Radii (Angs)     Library
                     Number     Mass       (e)     Cova   Ionic  VDW   Symbol
--------------------------------------------------------------------------------
    Si       Core       14      28.09   4.000000   1.200  0.000  2.100          
    O1       Core        8      16.00   1.733957   0.730  0.000  1.360          
    O1       Shell       8       0.00  -3.733957   0.730  0.000  1.360          
    O2       Core        8      16.00   0.870733   0.730  0.000  1.360          
    O2       Shell       8       0.00  -2.870733   0.730  0.000  1.360          
    O3       Core        8      16.00   1.330431   0.730  0.000  1.360          
    O3       Shell       8       0.00  -3.330431   0.730  0.000  1.360          
    F        Core        9      19.00   0.560000   0.710  0.000  1.300          
    F        Shell       9       0.00  -1.560000   0.710  0.000  1.300          
    Ge       Core       32      72.61   4.000000   1.170  0.000  1.750          
--------------------------------------------------------------------------------


  Lattice summation method               =    Ewald          (3-D)
                                         =    Parry          (2-D)
                                         =    Saunders et al (1-D)
  Accuracy factor for lattice sums       =   12.000


  Time limit = Infinity

  Maximum range for interatomic potentials =        16.000000 Angstroms

  Taper potentials to zero over   1.0000 Angstroms using polynomial

  General interatomic potentials :

--------------------------------------------------------------------------------
Atom  Types   Potential         A         B         C         D     Cutoffs(Ang)
  1     2                                                            Min    Max 
--------------------------------------------------------------------------------
Si   c O1   s Buckingham    0.132E+04 0.318      10.1      0.00     0.000 16.000
Si   c O2   s Buckingham    0.132E+04 0.318      10.1      0.00     0.000 16.000
Si   c O3   s Buckingham    0.132E+04 0.318      10.1      0.00     0.000 16.000
Ge   c O1   s Buckingham    0.150E+04 0.326      16.8      0.00     0.000 16.000
Ge   c O2   s Buckingham    0.150E+04 0.326      16.8      0.00     0.000 16.000
Ge   c O3   s Buckingham    0.150E+04 0.326      16.8      0.00     0.000 16.000
O1   s O1   s Buckingham    0.228E+05 0.149      10.9      0.00     0.000 16.000
O1   s O2   s Buckingham    0.228E+05 0.149      10.9      0.00     0.000 16.000
O1   s O3   s Buckingham    0.228E+05 0.149      10.9      0.00     0.000 16.000
O2   s O2   s Buckingham    0.228E+05 0.149      10.9      0.00     0.000 16.000
O2   s O3   s Buckingham    0.228E+05 0.149      10.9      0.00     0.000 16.000
O3   s O3   s Buckingham    0.228E+05 0.149      10.9      0.00     0.000 16.000
Si   c F    s Buckingham     977.     0.282      0.00      0.00     0.000 16.000
Ge   c F    s Buckingham     681.     0.320      0.00      0.00     0.000 16.000
F    s F    s Buckingham     540.     0.262      0.00      0.00     0.000 16.000
O1   s F    s Buckingham    0.168E+04 0.268      0.00      0.00     0.000 16.000
O2   s F    s Buckingham    0.168E+04 0.268      0.00      0.00     0.000 16.000
O3   s F    s Buckingham    0.168E+04 0.268      0.00      0.00     0.000 16.000
O2   c O2   s Spring (c-s)   76.0      0.00      0.00      0.00     0.000  0.800
O3   c O3   s Spring (c-s)   128.      0.00      0.00      0.00     0.000  0.800
O1   c O1   s Spring (c-s)   180.      0.00      0.00      0.00     0.000  0.800
F    c F    s Spring (c-s)   33.5      0.00      0.00      0.00     0.000  0.800
--------------------------------------------------------------------------------

  General Three-body potentials :

  Harmonic form:

--------------------------------------------------------------------------------
Atom    Atom    Atom           Force Constants            Theta     Cutoffs  
  1       2       3     (eVrad**-2/eVrad**-3/eVrad**-4)   (deg)  1-2  1-3  2-3
--------------------------------------------------------------------------------
Si    c O1    s O1    s  1.261        0.0000    0.0000   109.470 0.00 0.00 0.00
                                                                 1.90 1.90 3.50
Si    c O1    s O2    s  1.261        0.0000    0.0000   109.470 0.00 0.00 0.00
                                                                 1.90 1.90 3.50
Si    c O2    s O2    s  1.261        0.0000    0.0000   109.470 0.00 0.00 0.00
                                                                 1.90 1.90 3.50
--------------------------------------------------------------------------------

********************************************************************************
*  Output for configuration   1                                                *
********************************************************************************


  Components of energy : 

--------------------------------------------------------------------------------
  Interatomic potentials     =        2065.69195453 eV
  Three-body potentials      =           0.48495666 eV
  Monopole - monopole (real) =       -6616.05229533 eV
  Monopole - monopole (recip)=       -3170.64546695 eV
  Monopole - monopole (total)=       -9786.69776228 eV
  Neutralising energy        =          -6.45860673 eV
--------------------------------------------------------------------------------
  Total lattice energy       =       -7726.97945781 eV
--------------------------------------------------------------------------------
  Total lattice energy       =         -745535.4000 kJ/(mole unit cells)
--------------------------------------------------------------------------------


  Number of variables =      939

  Maximum number of calculations  =          1000
  Maximum Hessian update interval =            10
  Maximum step size               =   1.000000000
  Maximum parameter tolerance     =   0.000010000
  Maximum function  tolerance     =   0.000010000
  Maximum gradient  tolerance     =   0.001000000
  Maximum gradient  component     =   0.010000000

  Symmetry not applied to optimisation

  Cell parameters to be optimised using strains

  Newton-Raphson optimiser to be used

  BFGS hessian update to be used

  Dumpfile to be written after every cycle

  Start of bulk optimisation :

  Cycle:      0 Energy:     -7726.979458  Gnorm:      0.001942  CPU:    1.964
  ** Hessian calculated **
  Cycle:      1 Energy:     -7727.049964  Gnorm:      0.004715  CPU:    5.549
  Cycle:      2 Energy:     -7727.050640  Gnorm:      0.000501  CPU:    8.263
  Cycle:      3 Energy:     -7727.050684  Gnorm:      0.000177  CPU:   10.612


  **** Optimisation achieved ****


  Final energy =   -7727.05068541 eV
  Final Gnorm  =       0.00002009

  Components of energy : 

--------------------------------------------------------------------------------
  Interatomic potentials     =        2065.98842487 eV
  Three-body potentials      =           0.48872013 eV
  Monopole - monopole (real) =       -6616.84338383 eV
  Monopole - monopole (recip)=       -3170.22669376 eV
  Monopole - monopole (total)=       -9787.07007759 eV
  Neutralising energy        =          -6.45775282 eV
--------------------------------------------------------------------------------
  Total lattice energy       =       -7727.05068541 eV
--------------------------------------------------------------------------------
  Total lattice energy       =         -745542.2724 kJ/(mole unit cells)
--------------------------------------------------------------------------------

  Final fractional coordinates of atoms :

--------------------------------------------------------------------------------
   No.  Atomic        x           y          z          Radius
        Label       (Frac)      (Frac)     (Frac)       (Angs) 
--------------------------------------------------------------------------------
     1  Si    c     0.699600    0.375700    0.033890    0.000000
     2  Si    c     0.625364    0.318037    0.368993    0.000000
     3  Si    c     0.673059    0.273623    0.701141    0.000000
     4  Si    c     0.297064    0.605964    0.539754    0.000000
     5  Si    c     0.387704    0.661254    0.872212    0.000000
     6  Si    c     0.331956    0.710231    0.205967    0.000000
     7  Si    c     0.389315    0.715568    0.306088    0.000000
     8  Si    c     0.335830    0.607562    0.973940    0.000000
     9  Si    c     0.293059    0.655044    0.640093    0.000000
    10  Si    c     0.623875    0.280084    0.801258    0.000000
    11  Si    c     0.674867    0.363714    0.471769    0.000000
    12  Si    c     0.709812    0.331911    0.137565    0.000000
    13  Ge    c     0.529173    0.412222    0.966790    0.000000
    14  Si    c     0.597335    0.120020    0.303766    0.000000
    15  Si    c     0.883575    0.447678    0.637231    0.000000
    16  Si    c     0.469973    0.572879    0.474932    0.000000
    17  Si    c     0.421135    0.870364    0.805806    0.000000
    18  Si    c     0.123417    0.537753    0.140420    0.000000
    19  Si    c     0.414523    0.532801    0.371279    0.000000
    20  Si    c     0.129113    0.588825    0.036684    0.000000
    21  Si    c     0.466570    0.863671    0.704816    0.000000
    22  Si    c     0.596130    0.450149    0.868464    0.000000
    23  Si    c     0.887806    0.401649    0.536119    0.000000
    24  Si    c     0.540326    0.118850    0.202878    0.000000
    25  Si    c     0.309291    0.379336    0.856488    0.000000
    26  Si    c     0.610316    0.908229    0.189919    0.000000
    27  Si    c     0.096736    0.683872    0.523681    0.000000
    28  Si    c     0.698383    0.602009    0.356414    0.000000
    29  Si    c     0.394168    0.072392    0.689260    0.000000
    30  Si    c     0.911947    0.304302    0.022579    0.000000
    31  Si    c     0.395073    0.284975    0.490847    0.000000
    32  Si    c     0.912570    0.612781    0.155835    0.000000
    33  Si    c     0.701813    0.079110    0.818316    0.000000
    34  Si    c     0.617685    0.686034    0.992543    0.000000
    35  Si    c     0.091327    0.375008    0.653402    0.000000
    36  Si    c     0.314730    0.918428    0.320917    0.000000
    37  Si    c     0.251558    0.317224    0.958260    0.000000
    38  Si    c     0.671722    0.916879    0.290117    0.000000
    39  Si    c     0.084853    0.728089    0.624071    0.000000
    40  Si    c     0.750523    0.653139    0.458451    0.000000
    41  Si    c     0.340966    0.070221    0.789708    0.000000
    42  Si    c     0.921423    0.255674    0.124506    0.000000
    43  Ge    c     0.360150    0.266355    0.390955    0.000000
    44  Ge    c     0.919003    0.642165    0.055745    0.000000
    45  Si    c     0.745885    0.065068    0.718046    0.000000
    46  Si    c     0.672669    0.730385    0.889407    0.000000
    47  Si    c     0.087939    0.323408    0.552845    0.000000
    48  Si    c     0.261525    0.920927    0.220022    0.000000
    49  Si    c     0.966095    0.112871    0.973677    0.000000
    50  Si    c     0.887983    0.853752    0.307989    0.000000
    51  Si    c     0.144560    0.006534    0.640506    0.000000
    52  Si    c     0.034314    0.869030    0.472833    0.000000
    53  Si    c     0.123619    0.132555    0.806822    0.000000
    54  Si    c     0.856723    0.972682    0.140483    0.000000
    55  Si    c     0.132946    0.981225    0.373511    0.000000
    56  Si    c     0.861860    0.872968    0.041530    0.000000
    57  Si    c     0.025136    0.127344    0.705899    0.000000
    58  Si    c     0.882209    0.015018    0.872512    0.000000
    59  Si    c     0.150371    0.106382    0.540423    0.000000
    60  Si    c     0.980711    0.855267    0.207655    0.000000
    61  O2    c     0.926851    0.997208    0.008178    0.000000
    62  O2    c     0.004926    0.926728    0.342320    0.000000
    63  O2    c     0.069574    0.046716    0.675477    0.000000
    64  O2    c     0.075355    0.986074    0.507231    0.000000
    65  O2    c     0.008401    0.057113    0.842284    0.000000
    66  O2    c     0.933535    0.933360    0.175939    0.000000
    67  O2    c     0.347198    0.595541    0.340893    0.000000
    68  O2    c     0.415178    0.736686    0.673386    0.000000
    69  O2    c     0.257877    0.652079    0.005950    0.000000
    70  O2    c     0.666247    0.408762    0.830618    0.000000
    71  O2    c     0.587813    0.243710    0.169811    0.000000
    72  O2    c     0.763359    0.326874    0.503086    0.000000
    73  O3    c     0.577872    0.322919    0.002489    0.000000
    74  O2    c     0.755834    0.396410    0.667997    0.000000
    75  O2    c     0.676990    0.245871    0.335914    0.000000
    76  O2    c     0.421928    0.647252    0.508088    0.000000
    77  O2    c     0.247041    0.586381    0.173667    0.000000
    78  O2    c     0.349298    0.745978    0.839522    0.000000
    79  O2    c     0.119268    0.200260    0.977205    0.000000
    80  O2    c     0.797529    0.917956    0.311233    0.000000
    81  O2    c     0.081255    0.851478    0.644759    0.000000
    82  O2    c     0.878933    0.776099    0.478083    0.000000
    83  O2    c     0.214872    0.068742    0.810092    0.000000
    84  O2    c     0.917998    0.128310    0.145218    0.000000
    85  O3    c     0.214134    0.131146    0.369676    0.000000
    86  O3    c     0.925782    0.788733    0.035006    0.000000
    87  O2    c     0.871317    0.062990    0.698814    0.000000
    88  O2    c     0.793740    0.859857    0.868268    0.000000
    89  O2    c     0.087507    0.197587    0.532702    0.000000
    90  O2    c     0.134714    0.921264    0.200437    0.000000
    91  O2    c     0.946062    0.868547    0.258582    0.000000
    92  O2    c     0.126686    0.050052    0.590980    0.000000
    93  O2    c     0.923152    0.057403    0.923536    0.000000
    94  O2    c     0.062405    0.117891    0.757404    0.000000
    95  O2    c     0.874196    0.932713    0.091249    0.000000
    96  O2    c     0.075718    0.924147    0.423126    0.000000
    97  O2    c     0.905206    0.203455    0.984857    0.000000
    98  O2    c     0.798239    0.700619    0.319304    0.000000
    99  O2    c     0.296753    0.073666    0.651012    0.000000
   100  O2    c     0.100593    0.783454    0.485168    0.000000
   101  O2    c     0.210858    0.285067    0.817732    0.000000
   102  O2    c     0.704679    0.904972    0.151528    0.000000
   103  O2    c     0.221109    0.918143    0.359790    0.000000
   104  O2    c     0.708225    0.792078    0.029418    0.000000
   105  O2    c     0.093649    0.278477    0.692132    0.000000
   106  O2    c     0.801957    0.083570    0.856306    0.000000
   107  O2    c     0.304225    0.192750    0.532253    0.000000
   108  O2    c     0.913684    0.702456    0.197404    0.000000
   109  O2    c     0.332767    0.653548    0.256378    0.000000
   110  O2    c     0.352233    0.659831    0.590208    0.000000
   111  O2    c     0.332251    0.655489    0.922286    0.000000
   112  O2    c     0.677833    0.333291    0.750676    0.000000
   113  O2    c     0.657713    0.334863    0.087320    0.000000
   114  O2    c     0.673315    0.313367    0.420946    0.000000
   115  O3    c     0.362904    0.294942    0.976225    0.000000
   116  O2    c     0.685318    0.052042    0.306570    0.000000
   117  O2    c     0.951563    0.603956    0.640913    0.000000
   118  O2    c     0.626504    0.657824    0.477153    0.000000
   119  O2    c     0.333520    0.938718    0.809195    0.000000
   120  O2    c     0.051128    0.380652    0.142859    0.000000
   121  O3    c     0.323794    0.380982    0.366442    0.000000
   122  O3    c     0.070242    0.680901    0.030901    0.000000
   123  O2    c     0.622456    0.930985    0.701291    0.000000
   124  O2    c     0.679475    0.609253    0.868522    0.000000
   125  O2    c     0.957157    0.314868    0.533064    0.000000
   126  O2    c     0.384322    0.050402    0.199763    0.000000
   127  O2    c     0.779411    0.304793    0.017547    0.000000
   128  O2    c     0.696955    0.467161    0.350702    0.000000
   129  O2    c     0.528248    0.205315    0.680164    0.000000
   130  O2    c     0.229525    0.681773    0.516910    0.000000
   131  O2    c     0.316818    0.517851    0.850647    0.000000
   132  O2    c     0.473517    0.776853    0.182633    0.000000
   133  O2    c     0.313820    0.783121    0.327347    0.000000
   134  O2    c     0.481050    0.684934    0.992967    0.000000
   135  O2    c     0.224168    0.509831    0.661486    0.000000
   136  O2    c     0.698771    0.212035    0.824608    0.000000
   137  O2    c     0.533152    0.289164    0.494717    0.000000
   138  O2    c     0.779784    0.473816    0.160584    0.000000
   139  O3    c     0.781310    0.530286    0.026150    0.000000
   140  O3    c     0.472806    0.238923    0.362096    0.000000
   141  O2    c     0.745135    0.189621    0.696608    0.000000
   142  O2    c     0.216051    0.449658    0.534396    0.000000
   143  O2    c     0.542045    0.725781    0.872419    0.000000
   144  O2    c     0.256914    0.791684    0.201709    0.000000
   145  O2    c     0.545580    0.793116    0.310954    0.000000
   146  O2    c     0.266589    0.451993    0.977120    0.000000
   147  O2    c     0.210117    0.728035    0.644547    0.000000
   148  O2    c     0.467903    0.198585    0.807239    0.000000
   149  O2    c     0.740362    0.519339    0.474666    0.000000
   150  O2    c     0.798987    0.265508    0.140268    0.000000
   151  O2    c     0.239813    0.309705    0.903151    0.000000
   152  O2    c     0.685687    0.910116    0.236041    0.000000
   153  O2    c     0.091087    0.752037    0.569995    0.000000
   154  O2    c     0.759466    0.667921    0.404476    0.000000
   155  O2    c     0.321112    0.069129    0.735534    0.000000
   156  O2    c     0.923683    0.244238    0.070520    0.000000
   157  O3    c     0.313487    0.209834    0.447645    0.000000
   158  O3    c     0.914688    0.692544    0.112283    0.000000
   159  O2    c     0.769070    0.072625    0.772040    0.000000
   160  O2    c     0.689757    0.741124    0.943394    0.000000
   161  O2    c     0.087360    0.302492    0.607033    0.000000
   162  O2    c     0.247001    0.925284    0.274097    0.000000
   163  O3    c     0.599024    0.549164    0.004112    0.000000
   164  O2    c     0.458499    0.038284    0.328146    0.000000
   165  O2    c     0.965817    0.388834    0.661289    0.000000
   166  O2    c     0.416964    0.429947    0.496640    0.000000
   167  O2    c     0.563575    0.952304    0.828076    0.000000
   168  O2    c     0.036565    0.592677    0.161584    0.000000
   169  O2    c     0.557328    0.584009    0.349544    0.000000
   170  O2    c     0.036929    0.445203    0.015051    0.000000
   171  O2    c     0.407706    0.946372    0.681130    0.000000
   172  O2    c     0.449324    0.396355    0.849105    0.000000
   173  O2    c     0.970267    0.545201    0.513957    0.000000
   174  O2    c     0.600057    0.036559    0.180682    0.000000
   175  O2    c     0.594781    0.174017    0.253189    0.000000
   176  O2    c     0.831900    0.396805    0.586355    0.000000
   177  O3    c     0.602234    0.392414    0.916160    0.000000
   178  O2    c     0.415517    0.812050    0.755866    0.000000
   179  O2    c     0.173879    0.585788    0.089241    0.000000
   180  O2    c     0.420315    0.577124    0.424136    0.000000
   181  F     c     0.465139    0.912216    0.254105    0.000000
   182  F     c     0.092150    0.528437    0.587956    0.000000
   183  F     c     0.477586    0.506353    0.930048    0.000000
   184  F     c     0.545867    0.072359    0.753660    0.000000
   185  F     c     0.919465    0.496599    0.083387    0.000000
   186  F     c     0.509916    0.410657    0.417806    0.000000
   187  O2    s     0.924549    0.997727    0.007624    0.000000
   188  O2    s     0.004914    0.924020    0.341642    0.000000
   189  O2    s     0.072941    0.051274    0.674992    0.000000
   190  O2    s     0.079188    0.986510    0.507125    0.000000
   191  O2    s     0.007412    0.060853    0.841650    0.000000
   192  O2    s     0.930268    0.929015    0.175541    0.000000
   193  O2    s     0.358862    0.601401    0.340502    0.000000
   194  O2    s     0.407866    0.741377    0.673185    0.000000
   195  O2    s     0.252958    0.640631    0.005651    0.000000
   196  O2    s     0.654742    0.399501    0.831353    0.000000
   197  O2    s     0.595646    0.239995    0.169859    0.000000
   198  O2    s     0.766834    0.338420    0.503176    0.000000
   199  O3    s     0.587779    0.334658    0.003482    0.000000
   200  O2    s     0.760489    0.388939    0.668259    0.000000
   201  O2    s     0.663844    0.240587    0.336053    0.000000
   202  O2    s     0.414148    0.635312    0.507903    0.000000
   203  O2    s     0.242822    0.593929    0.173516    0.000000
   204  O2    s     0.360731    0.749692    0.839559    0.000000
   205  O2    s     0.116779    0.203524    0.974701    0.000000
   206  O2    s     0.794005    0.911005    0.308712    0.000000
   207  O2    s     0.088356    0.855159    0.642186    0.000000
   208  O2    s     0.880905    0.772346    0.475480    0.000000
   209  O2    s     0.218233    0.075618    0.807671    0.000000
   210  O2    s     0.912113    0.126052    0.142546    0.000000
   211  O3    s     0.214480    0.122951    0.371482    0.000000
   212  O3    s     0.918087    0.788963    0.037039    0.000000
   213  O2    s     0.874650    0.069989    0.701514    0.000000
   214  O2    s     0.790621    0.862951    0.870882    0.000000
   215  O2    s     0.094173    0.201135    0.535592    0.000000
   216  O2    s     0.131730    0.914341    0.203188    0.000000
   217  O2    s     0.943347    0.865366    0.258453    0.000000
   218  O2    s     0.131349    0.051406    0.590941    0.000000
   219  O2    s     0.923195    0.058659    0.923198    0.000000
   220  O2    s     0.065098    0.120559    0.757188    0.000000
   221  O2    s     0.870872    0.931058    0.091716    0.000000
   222  O2    s     0.076847    0.923663    0.423762    0.000000
   223  O2    s     0.912319    0.204338    0.987553    0.000000
   224  O2    s     0.796877    0.705946    0.322068    0.000000
   225  O2    s     0.290549    0.066362    0.653833    0.000000
   226  O2    s     0.093140    0.782148    0.487879    0.000000
   227  O2    s     0.211703    0.278646    0.820518    0.000000
   228  O2    s     0.711005    0.912429    0.154299    0.000000
   229  O2    s     0.222195    0.924459    0.357053    0.000000
   230  O2    s     0.713848    0.788912    0.026740    0.000000
   231  O2    s     0.086097    0.272257    0.689625    0.000000
   232  O2    s     0.800070    0.075748    0.854040    0.000000
   233  O2    s     0.297190    0.192818    0.529102    0.000000
   234  O2    s     0.920625    0.709641    0.194401    0.000000
   235  O2    s     0.338419    0.665595    0.256242    0.000000
   236  O2    s     0.340516    0.653813    0.590117    0.000000
   237  O2    s     0.338460    0.651271    0.922169    0.000000
   238  O2    s     0.671721    0.321496    0.750761    0.000000
   239  O2    s     0.667304    0.338465    0.087693    0.000000
   240  O2    s     0.668741    0.319066    0.421203    0.000000
   241  O3    s     0.362042    0.305249    0.973598    0.000000
   242  O2    s     0.674699    0.044855    0.304519    0.000000
   243  O2    s     0.958548    0.600804    0.638744    0.000000
   244  O2    s     0.623614    0.648715    0.474971    0.000000
   245  O2    s     0.343351    0.945256    0.806817    0.000000
   246  O2    s     0.044911    0.383579    0.140686    0.000000
   247  O3    s     0.335824    0.388550    0.368719    0.000000
   248  O3    s     0.066196    0.668654    0.033203    0.000000
   249  O2    s     0.619372    0.938102    0.703416    0.000000
   250  O2    s     0.670702    0.606602    0.870717    0.000000
   251  O2    s     0.963613    0.324775    0.535454    0.000000
   252  O2    s     0.387574    0.043913    0.202208    0.000000
   253  O2    s     0.786585    0.311656    0.019748    0.000000
   254  O2    s     0.689797    0.466487    0.353211    0.000000
   255  O2    s     0.529072    0.198326    0.683332    0.000000
   256  O2    s     0.222493    0.674118    0.520031    0.000000
   257  O2    s     0.323438    0.518267    0.853523    0.000000
   258  O2    s     0.473433    0.783907    0.185831    0.000000
   259  O2    s     0.321868    0.790319    0.324384    0.000000
   260  O2    s     0.479092    0.676669    0.990815    0.000000
   261  O2    s     0.217264    0.510634    0.658380    0.000000
   262  O2    s     0.691375    0.204932    0.821511    0.000000
   263  O2    s     0.533941    0.296450    0.491926    0.000000
   264  O2    s     0.785960    0.473165    0.157692    0.000000
   265  O3    s     0.784261    0.524025    0.029101    0.000000
   266  O3    s     0.480007    0.249125    0.364891    0.000000
   267  O2    s     0.737624    0.184762    0.699364    0.000000
   268  O2    s     0.210622    0.452367    0.536911    0.000000
   269  O2    s     0.539248    0.719214    0.874204    0.000000
   270  O2    s     0.265319    0.797146    0.204095    0.000000
   271  O2    s     0.543031    0.798497    0.308232    0.000000
   272  O2    s     0.272654    0.455065    0.974868    0.000000
   273  O2    s     0.205150    0.720308    0.641894    0.000000
   274  O2    s     0.470167    0.192963    0.804758    0.000000
   275  O2    s     0.734490    0.517539    0.472607    0.000000
   276  O2    s     0.803206    0.271468    0.138261    0.000000
   277  O2    s     0.248482    0.317960    0.903619    0.000000
   278  O2    s     0.676374    0.910619    0.236984    0.000000
   279  O2    s     0.091030    0.742390    0.570886    0.000000
   280  O2    s     0.751990    0.659312    0.405330    0.000000
   281  O2    s     0.330815    0.069569    0.736459    0.000000
   282  O2    s     0.922238    0.251777    0.071368    0.000000
   283  O3    s     0.325179    0.221505    0.448216    0.000000
   284  O3    s     0.914721    0.680805    0.113011    0.000000
   285  O2    s     0.759478    0.072510    0.771149    0.000000
   286  O2    s     0.681057    0.734654    0.942153    0.000000
   287  O2    s     0.087835    0.312341    0.606209    0.000000
   288  O2    s     0.255659    0.924124    0.273239    0.000000
   289  O3    s     0.596095    0.555013    0.000377    0.000000
   290  O2    s     0.457593    0.033707    0.324792    0.000000
   291  O2    s     0.970934    0.393627    0.657942    0.000000
   292  O2    s     0.420432    0.430023    0.493734    0.000000
   293  O2    s     0.563407    0.957374    0.824691    0.000000
   294  O2    s     0.032888    0.588771    0.158711    0.000000
   295  O2    s     0.558635    0.580719    0.352460    0.000000
   296  O2    s     0.032496    0.444257    0.017985    0.000000
   297  O2    s     0.412576    0.951485    0.684487    0.000000
   298  O2    s     0.448263    0.399887    0.851844    0.000000
   299  O2    s     0.975235    0.544965    0.517314    0.000000
   300  O2    s     0.594819    0.031326    0.183981    0.000000
   301  O2    s     0.589401    0.162715    0.253216    0.000000
   302  O2    s     0.843138    0.402609    0.586392    0.000000
   303  O3    s     0.596925    0.399852    0.914314    0.000000
   304  O2    s     0.421372    0.823440    0.755774    0.000000
   305  O2    s     0.164206    0.581074    0.089450    0.000000
   306  O2    s     0.425001    0.572319    0.424350    0.000000
   307  F     s     0.465161    0.911745    0.254037    0.000000
   308  F     s     0.092359    0.528533    0.587909    0.000000
   309  F     s     0.481308    0.499590    0.932551    0.000000
   310  F     s     0.545879    0.072431    0.753664    0.000000
   311  F     s     0.919772    0.505759    0.081828    0.000000
   312  F     s     0.501284    0.402111    0.416337    0.000000
--------------------------------------------------------------------------------

  Final Cartesian lattice vectors (Angstroms) :

       11.987168   -0.000432   -0.005799
       -5.971907   10.332982    0.004363
       -0.284045    0.249204   29.554996


  Final cell parameters and derivatives :

--------------------------------------------------------------------------------
       a           11.987170 Angstrom     dE/de1(xx)    -0.000615 eV/strain
       b           11.934580 Angstrom     dE/de2(yy)    -0.000457 eV/strain
       c           29.557411 Angstrom     dE/de3(zz)     0.000359 eV/strain
       alpha       89.285278 Degrees      dE/de4(yz)    -0.000848 eV/strain
       beta        90.578352 Degrees      dE/de5(xz)    -0.000352 eV/strain
       gamma      120.027669 Degrees      dE/de6(xy)    -0.000043 eV/strain
--------------------------------------------------------------------------------

  Primitive cell volume =          3660.678442 Angs**3

  Density of cell =      1.747789 g/cm**3

  Non-primitive cell volume =          3660.678442 Angs**3


  Final internal derivatives :

--------------------------------------------------------------------------------
   No.  Atomic          a             b             c           Radius
        Label          (eV)          (eV)          (eV)        (eV/Angs)
--------------------------------------------------------------------------------
      1 Si    c       0.000000      0.000000      0.000000      0.000000
      2 Si    c      -0.000115     -0.000128     -0.000762      0.000000
      3 Si    c      -0.000032      0.000049     -0.000282      0.000000
      4 Si    c       0.000162     -0.000217      0.000154      0.000000
      5 Si    c      -0.000218     -0.000008     -0.000793      0.000000
      6 Si    c      -0.000134     -0.000028      0.000330      0.000000
      7 Si    c       0.000068      0.000093      0.000244      0.000000
      8 Si    c       0.000795     -0.000562     -0.000667      0.000000
      9 Si    c       0.000005     -0.000030     -0.000045      0.000000
     10 Si    c      -0.000033      0.000117      0.000294      0.000000
     11 Si    c      -0.000064      0.000329      0.000579      0.000000
     12 Si    c       0.000378      0.000104      0.001136      0.000000
     13 Ge    c       0.001895     -0.001473      0.005575      0.000000
     14 Si    c       0.000062     -0.000319      0.000662      0.000000
     15 Si    c      -0.000018      0.000070     -0.000135      0.000000
     16 Si    c       0.000344     -0.000248     -0.001020      0.000000
     17 Si    c       0.000027      0.000023     -0.001104      0.000000
     18 Si    c       0.000049     -0.000224      0.000692      0.000000
     19 Si    c       0.000272     -0.000555      0.000791      0.000000
     20 Si    c      -0.000159     -0.000137     -0.000637      0.000000
     21 Si    c      -0.000012     -0.000001      0.000592      0.000000
     22 Si    c       0.000126      0.000035     -0.001470      0.000000
     23 Si    c       0.000393     -0.000112      0.000762      0.000000
     24 Si    c      -0.000085      0.000264     -0.000196      0.000000
     25 Si    c      -0.000065      0.000018      0.000156      0.000000
     26 Si    c       0.000393     -0.000233     -0.000782      0.000000
     27 Si    c      -0.000114     -0.000015     -0.000336      0.000000
     28 Si    c      -0.000092     -0.000066     -0.001086      0.000000
     29 Si    c       0.000000      0.000009      0.000352      0.000000
     30 Si    c      -0.000040      0.000691     -0.001375      0.000000
     31 Si    c       0.000099      0.000040      0.002042      0.000000
     32 Si    c       0.000114     -0.000044      0.000745      0.000000
     33 Si    c       0.000154     -0.000060      0.000192      0.000000
     34 Si    c       0.000214     -0.001189     -0.000480      0.000000
     35 Si    c       0.000022      0.000068     -0.000232      0.000000
     36 Si    c       0.000387     -0.000033     -0.000135      0.000000
     37 Si    c       0.000134      0.000254      0.002347      0.000000
     38 Si    c      -0.000268      0.000213      0.000421      0.000000
     39 Si    c       0.000060     -0.000125     -0.000142      0.000000
     40 Si    c       0.000022     -0.000274      0.000149      0.000000
     41 Si    c       0.000107     -0.000059     -0.000254      0.000000
     42 Si    c       0.000038      0.000166      0.000524      0.000000
     43 Ge    c       0.000784      0.000827      0.000085      0.000000
     44 Ge    c      -0.000730      0.000144     -0.002757      0.000000
     45 Si    c      -0.000087     -0.000010      0.000110      0.000000
     46 Si    c       0.000220     -0.000332      0.001074      0.000000
     47 Si    c      -0.000041      0.000174      0.000009      0.000000
     48 Si    c      -0.000128     -0.000080      0.000082      0.000000
     49 Si    c      -0.000136      0.000715     -0.000852      0.000000
     50 Si    c       0.000096     -0.000282      0.000278      0.000000
     51 Si    c      -0.000167     -0.000060      0.000409      0.000000
     52 Si    c      -0.000249      0.000382      0.000564      0.000000
     53 Si    c      -0.000333     -0.000005      0.000039      0.000000
     54 Si    c      -0.000503      0.000589      0.001683      0.000000
     55 Si    c       0.000040     -0.000149     -0.000552      0.000000
     56 Si    c       0.000098     -0.001101      0.001671      0.000000
     57 Si    c       0.000123     -0.000040      0.000270      0.000000
     58 Si    c       0.000242     -0.000157     -0.000763      0.000000
     59 Si    c      -0.000375     -0.000004     -0.000259      0.000000
     60 Si    c       0.000510     -0.000226     -0.001898      0.000000
     61 O2    c       0.001311      0.000132     -0.002116      0.000000
     62 O2    c       0.000263     -0.000235      0.000462      0.000000
     63 O2    c       0.000131     -0.000045     -0.000391      0.000000
     64 O2    c       0.000527     -0.000204      0.000090      0.000000
     65 O2    c       0.000339      0.000138     -0.000558      0.000000
     66 O2    c      -0.000021      0.000374      0.000538      0.000000
     67 O2    c      -0.000622      0.000796     -0.001175      0.000000
     68 O2    c      -0.000152     -0.000080     -0.000352      0.000000
     69 O2    c      -0.000723      0.000439      0.001512      0.000000
     70 O2    c       0.000003      0.000034      0.000067      0.000000
     71 O2    c      -0.000173     -0.000173      0.000848      0.000000
     72 O2    c      -0.000286     -0.000050     -0.001199      0.000000
     73 O3    c       0.000221      0.001421     -0.000545      0.000000
     74 O2    c      -0.000058     -0.000100      0.000173      0.000000
     75 O2    c      -0.000251      0.000408      0.000157      0.000000
     76 O2    c      -0.000345      0.000269      0.001103      0.000000
     77 O2    c      -0.000035     -0.000047     -0.000274      0.000000
     78 O2    c       0.000080      0.000022      0.000142      0.000000
     79 O2    c       0.000088      0.000181      0.000128      0.000000
     80 O2    c      -0.000262      0.000273      0.000078      0.000000
     81 O2    c      -0.000031      0.000148     -0.000051      0.000000
     82 O2    c      -0.000128      0.000007      0.000043      0.000000
     83 O2    c      -0.000044      0.000018      0.000074      0.000000
     84 O2    c      -0.000008      0.000480     -0.000103      0.000000
     85 O3    c      -0.000725     -0.000213     -0.000465      0.000000
     86 O3    c      -0.000176      0.000317     -0.000493      0.000000
     87 O2    c      -0.000040      0.000031     -0.000016      0.000000
     88 O2    c       0.000005     -0.000103     -0.000047      0.000000
     89 O2    c       0.000130     -0.000175      0.000042      0.000000
     90 O2    c      -0.000019     -0.000045      0.000038      0.000000
     91 O2    c      -0.000505     -0.000084      0.004048      0.000000
     92 O2    c       0.000184      0.000283     -0.000292      0.000000
     93 O2    c      -0.000359      0.000100     -0.000521      0.000000
     94 O2    c      -0.000010     -0.000147     -0.000341      0.000000
     95 O2    c       0.000446     -0.000977     -0.002095      0.000000
     96 O2    c       0.000147     -0.000963      0.000424      0.000000
     97 O2    c      -0.000992      0.001226      0.000894      0.000000
     98 O2    c      -0.000065     -0.000009     -0.000112      0.000000
     99 O2    c      -0.000096      0.000013      0.000017      0.000000
    100 O2    c       0.000058     -0.000226     -0.000114      0.000000
    101 O2    c      -0.000043     -0.000059     -0.000321      0.000000
    102 O2    c       0.000079      0.000040     -0.000099      0.000000
    103 O2    c      -0.000310      0.000667      0.000219      0.000000
    104 O2    c      -0.000752      0.000043     -0.000231      0.000000
    105 O2    c      -0.000001     -0.000078      0.000001      0.000000
    106 O2    c       0.000036     -0.000084     -0.000195      0.000000
    107 O2    c       0.000064      0.000031      0.000182      0.000000
    108 O2    c       0.000021     -0.000371     -0.000182      0.000000
    109 O2    c      -0.000074     -0.000038     -0.000870      0.000000
    110 O2    c      -0.000085      0.000001     -0.000033      0.000000
    111 O2    c       0.000071     -0.000355      0.001516      0.000000
    112 O2    c       0.000022     -0.000024     -0.000279      0.000000
    113 O2    c      -0.000226      0.000257      0.002374      0.000000
    114 O2    c      -0.000189     -0.000025     -0.000466      0.000000
    115 O3    c      -0.001869      0.001204     -0.001541      0.000000
    116 O2    c      -0.000304      0.000206     -0.000017      0.000000
    117 O2    c       0.000027      0.000030     -0.000063      0.000000
    118 O2    c       0.000015     -0.000020     -0.000105      0.000000
    119 O2    c      -0.000000      0.000050     -0.000097      0.000000
    120 O2    c      -0.000053      0.000064     -0.000164      0.000000
    121 O3    c      -0.000004      0.000010     -0.000412      0.000000
    122 O3    c      -0.000015     -0.000026     -0.000250      0.000000
    123 O2    c      -0.000033      0.000043      0.000060      0.000000
    124 O2    c      -0.000216      0.000673      0.000810      0.000000
    125 O2    c       0.000083     -0.000043     -0.000004      0.000000
    126 O2    c      -0.000014     -0.000043     -0.000077      0.000000
    127 O2    c       0.000168      0.000022     -0.000517      0.000000
    128 O2    c      -0.000066     -0.000108      0.000080      0.000000
    129 O2    c       0.000029     -0.000031      0.000034      0.000000
    130 O2    c       0.000028      0.000025     -0.000062      0.000000
    131 O2    c       0.000146      0.000276      0.000768      0.000000
    132 O2    c      -0.000054     -0.000065     -0.000153      0.000000
    133 O2    c       0.000069     -0.000141     -0.000099      0.000000
    134 O2    c       0.000541     -0.000640      0.000002      0.000000
    135 O2    c      -0.000057      0.000020     -0.000083      0.000000
    136 O2    c      -0.000007      0.000005      0.000075      0.000000
    137 O2    c       0.000205      0.000002     -0.000066      0.000000
    138 O2    c      -0.000035     -0.000158     -0.000056      0.000000
    139 O3    c       0.002291     -0.001003      0.003184      0.000000
    140 O3    c       0.000116      0.000230     -0.000139      0.000000
    141 O2    c       0.000046     -0.000085     -0.000000      0.000000
    142 O2    c      -0.000038     -0.000053      0.000046      0.000000
    143 O2    c       0.000129     -0.000074      0.000088      0.000000
    144 O2    c      -0.000205      0.000193      0.000083      0.000000
    145 O2    c       0.000092     -0.000059     -0.000003      0.000000
    146 O2    c       0.000565     -0.001747     -0.001625      0.000000
    147 O2    c      -0.000028     -0.000010     -0.000149      0.000000
    148 O2    c      -0.000020     -0.000038     -0.000117      0.000000
    149 O2    c      -0.000075      0.000178     -0.000083      0.000000
    150 O2    c       0.000179     -0.000138     -0.000042      0.000000
    151 O2    c      -0.000019      0.000273     -0.001895      0.000000
    152 O2    c       0.000119     -0.000095      0.000291      0.000000
    153 O2    c      -0.000071      0.000112      0.000429      0.000000
    154 O2    c       0.000020      0.000208      0.001249      0.000000
    155 O2    c       0.000071     -0.000034      0.000018      0.000000
    156 O2    c       0.000420     -0.000366      0.001321      0.000000
    157 O3    c      -0.000404     -0.000532     -0.000360      0.000000
    158 O3    c       0.000090      0.000315     -0.000251      0.000000
    159 O2    c      -0.000087      0.000061     -0.000140      0.000000
    160 O2    c      -0.000227     -0.000120     -0.001357      0.000000
    161 O2    c      -0.000014      0.000066      0.000181      0.000000
    162 O2    c      -0.000188      0.000077     -0.001047      0.000000
    163 O3    c      -0.002037      0.001726     -0.005406      0.000000
    164 O2    c       0.000194     -0.000206     -0.000920      0.000000
    165 O2    c       0.000091     -0.000055      0.000022      0.000000
    166 O2    c       0.000019      0.000095     -0.000009      0.000000
    167 O2    c      -0.000027      0.000065     -0.000005      0.000000
    168 O2    c      -0.000211      0.000192      0.000143      0.000000
    169 O2    c       0.000183     -0.000098     -0.000030      0.000000
    170 O2    c      -0.000215     -0.000113      0.000004      0.000000
    171 O2    c       0.000022     -0.000012      0.000074      0.000000
    172 O2    c       0.000008      0.000090      0.000012      0.000000
    173 O2    c      -0.000039     -0.000001      0.000051      0.000000
    174 O2    c       0.000026      0.000083     -0.000225      0.000000
    175 O2    c      -0.000037      0.000006     -0.000177      0.000000
    176 O2    c       0.000009      0.000007     -0.000143      0.000000
    177 O3    c       0.000413     -0.000437      0.001742      0.000000
    178 O2    c      -0.000039      0.000207      0.000580      0.000000
    179 O2    c       0.000135     -0.000022     -0.000517      0.000000
    180 O2    c       0.000008      0.000029      0.001271      0.000000
    181 F     c      -0.000036     -0.000228      0.000171      0.000000
    182 F     c      -0.000035      0.000107     -0.000245      0.000000
    183 F     c      -0.000069      0.000347     -0.000105      0.000000
    184 F     c      -0.000023      0.000106     -0.000085      0.000000
    185 F     c      -0.000173     -0.000588     -0.000429      0.000000
    186 F     c      -0.000149     -0.000116     -0.000390      0.000000
    187 O2    s       0.000443     -0.000708      0.000805      0.000000
    188 O2    s       0.000177      0.000007     -0.000310      0.000000
    189 O2    s      -0.000072     -0.000023      0.000055      0.000000
    190 O2    s       0.000251     -0.000153      0.000421      0.000000
    191 O2    s      -0.000117      0.000025      0.000279      0.000000
    192 O2    s       0.000136      0.000359      0.000225      0.000000
    193 O2    s       0.000458     -0.000329      0.000176      0.000000
    194 O2    s       0.000024      0.000033      0.000022      0.000000
    195 O2    s       0.000168      0.000078     -0.000364      0.000000
    196 O2    s      -0.000035     -0.000058     -0.000181      0.000000
    197 O2    s      -0.000092      0.000010     -0.000027      0.000000
    198 O2    s      -0.000086      0.000152      0.000164      0.000000
    199 O3    s       0.000485     -0.002168      0.001122      0.000000
    200 O2    s       0.000022      0.000000      0.000168      0.000000
    201 O2    s       0.000406     -0.000299     -0.000332      0.000000
    202 O2    s      -0.000000     -0.000180     -0.000234      0.000000
    203 O2    s       0.000052      0.000003      0.000013      0.000000
    204 O2    s       0.000017     -0.000038      0.000158      0.000000
    205 O2    s       0.000848      0.000119     -0.000696      0.000000
    206 O2    s       0.000081      0.000001     -0.000215      0.000000
    207 O2    s      -0.000117      0.000154     -0.000174      0.000000
    208 O2    s      -0.000021      0.000048     -0.000188      0.000000
    209 O2    s      -0.000043      0.000069     -0.000102      0.000000
    210 O2    s      -0.000060      0.000184     -0.000302      0.000000
    211 O3    s       0.000163      0.000289      0.001775      0.000000
    212 O3    s       0.000586     -0.000739      0.000841      0.000000
    213 O2    s       0.000040     -0.000025      0.000181      0.000000
    214 O2    s       0.000079     -0.000284      0.000288      0.000000
    215 O2    s       0.000006     -0.000023      0.000013      0.000000
    216 O2    s       0.000229      0.000154     -0.000079      0.000000
    217 O2    s       0.000159      0.000145     -0.000622      0.000000
    218 O2    s      -0.000039     -0.000299      0.000011      0.000000
    219 O2    s      -0.000056      0.000024     -0.000506      0.000000
    220 O2    s       0.000037      0.000038      0.000503      0.000000
    221 O2    s      -0.000509      0.000026      0.000784      0.000000
    222 O2    s       0.000163      0.000246     -0.000543      0.000000
    223 O2    s      -0.000348      0.000166     -0.000677      0.000000
    224 O2    s      -0.000020      0.000047      0.000199      0.000000
    225 O2    s       0.000067     -0.000105     -0.000162      0.000000
    226 O2    s      -0.000172      0.000247      0.000274      0.000000
    227 O2    s       0.000020      0.000043      0.000065      0.000000
    228 O2    s      -0.000331     -0.000094      0.000608      0.000000
    229 O2    s       0.000108      0.000164      0.000156      0.000000
    230 O2    s      -0.000566      0.000209      0.000240      0.000000
    231 O2    s       0.000004      0.000007      0.000081      0.000000
    232 O2    s      -0.000040      0.000093     -0.000622      0.000000
    233 O2    s      -0.000252      0.000066     -0.000267      0.000000
    234 O2    s       0.000127     -0.000404     -0.000436      0.000000
    235 O2    s       0.000149     -0.000270      0.000740      0.000000
    236 O2    s      -0.000016     -0.000012      0.000003      0.000000
    237 O2    s       0.000279     -0.000101     -0.001436      0.000000
    238 O2    s       0.000009     -0.000122      0.000123      0.000000
    239 O2    s       0.000243     -0.000344     -0.001516      0.000000
    240 O2    s       0.000015     -0.000020      0.000218      0.000000
    241 O3    s       0.000127      0.000375     -0.000101      0.000000
    242 O2    s       0.000480     -0.000234      0.000035      0.000000
    243 O2    s       0.000026      0.000041      0.000073      0.000000
    244 O2    s       0.000161     -0.000093     -0.000009      0.000000
    245 O2    s      -0.000102      0.000064      0.000216      0.000000
    246 O2    s      -0.000058     -0.000127      0.000165      0.000000
    247 O3    s      -0.000107     -0.000228      0.000432      0.000000
    248 O3    s       0.000281     -0.000019      0.000489      0.000000
    249 O2    s       0.000068      0.000011     -0.000011      0.000000
    250 O2    s      -0.000344      0.000212      0.000282      0.000000
    251 O2    s       0.000032     -0.000081     -0.000016      0.000000
    252 O2    s       0.000203     -0.000121      0.000319      0.000000
    253 O2    s       0.000155     -0.000573      0.000877      0.000000
    254 O2    s       0.000054      0.000033      0.000473      0.000000
    255 O2    s       0.000013      0.000025      0.000203      0.000000
    256 O2    s      -0.000099     -0.000066      0.000385      0.000000
    257 O2    s       0.000249     -0.000202      0.000380      0.000000
    258 O2    s       0.000080      0.000140      0.000184      0.000000
    259 O2    s       0.000101     -0.000166      0.000080      0.000000
    260 O2    s       0.000162      0.000315     -0.001249      0.000000
    261 O2    s       0.000020      0.000039      0.000003      0.000000
    262 O2    s      -0.000093      0.000000     -0.000593      0.000000
    263 O2    s      -0.000084     -0.000052     -0.000386      0.000000
    264 O2    s      -0.000012      0.000126      0.000036      0.000000
    265 O3    s      -0.002922      0.002054     -0.003278      0.000000
    266 O3    s      -0.000543     -0.000085     -0.000052      0.000000
    267 O2    s      -0.000061      0.000113      0.000216      0.000000
    268 O2    s      -0.000022      0.000126      0.000107      0.000000
    269 O2    s       0.000217     -0.000506      0.000665      0.000000
    270 O2    s      -0.000002      0.000071     -0.000317      0.000000
    271 O2    s      -0.000249      0.000168     -0.000405      0.000000
    272 O2    s       0.000534     -0.000196     -0.000673      0.000000
    273 O2    s       0.000005      0.000043      0.000160      0.000000
    274 O2    s       0.000130     -0.000043     -0.000270      0.000000
    275 O2    s      -0.000049      0.000003     -0.000174      0.000000
    276 O2    s       0.000043      0.000001     -0.000224      0.000000
    277 O2    s       0.000445      0.000224      0.002109      0.000000
    278 O2    s      -0.000216      0.000100     -0.000236      0.000000
    279 O2    s       0.000163     -0.000210     -0.000295      0.000000
    280 O2    s       0.000080     -0.000142      0.000114      0.000000
    281 O2    s      -0.000018      0.000023      0.000059      0.000000
    282 O2    s      -0.000321      0.000125     -0.000468      0.000000
    283 O3    s       0.000365      0.000473     -0.001198      0.000000
    284 O3    s      -0.000184     -0.000117     -0.000083      0.000000
    285 O2    s      -0.000037      0.000011      0.000207      0.000000
    286 O2    s      -0.000394     -0.000161     -0.000142      0.000000
    287 O2    s      -0.000025     -0.000003     -0.000357      0.000000
    288 O2    s      -0.000042      0.000112      0.000012      0.000000
    289 O3    s       0.001595     -0.000361      0.004766      0.000000
    290 O2    s      -0.000462      0.000537      0.001963      0.000000
    291 O2    s      -0.000004      0.000008     -0.000036      0.000000
    292 O2    s      -0.000120     -0.000105     -0.000000      0.000000
    293 O2    s       0.000112     -0.000052      0.000076      0.000000
    294 O2    s       0.000138     -0.000101     -0.000066      0.000000
    295 O2    s      -0.000136      0.000207     -0.000298      0.000000
    296 O2    s       0.000300     -0.000013      0.000016      0.000000
    297 O2    s      -0.000070      0.000104     -0.000150      0.000000
    298 O2    s      -0.000339      0.000013      0.001059      0.000000
    299 O2    s       0.000135      0.000053      0.000009      0.000000
    300 O2    s      -0.000191     -0.000083      0.000657      0.000000
    301 O2    s      -0.000079      0.000038     -0.000796      0.000000
    302 O2    s       0.000006     -0.000054      0.000112      0.000000
    303 O3    s      -0.000428      0.000216     -0.001416      0.000000
    304 O2    s       0.000025     -0.000195     -0.000067      0.000000
    305 O2    s      -0.000144      0.000112     -0.000188      0.000000
    306 O2    s      -0.000034      0.000045     -0.000222      0.000000
    307 F     s       0.000193      0.000460     -0.000521      0.000000
    308 F     s       0.000060     -0.000179      0.000355      0.000000
    309 F     s      -0.000848      0.000602     -0.001554      0.000000
    310 F     s       0.000019     -0.000095      0.000216      0.000000
    311 F     s       0.000830     -0.000153      0.002242      0.000000
    312 F     s      -0.000115     -0.000357     -0.000588      0.000000
--------------------------------------------------------------------------------
  Maximum abs         0.002922      0.002168      0.005575      0.000000
--------------------------------------------------------------------------------


  Time to end of optimisation =      13.6576 seconds


  Peak dynamic memory used =      19.13 MB 


  Timing analysis for GULP :

--------------------------------------------------------------------------------
  Task / Subroutine                                          Time (Seconds)
--------------------------------------------------------------------------------
  Calculation of reciprocal space energy and derivatives          0.4306
  Calculation of real space energy and derivatives               11.5663
  Calculation of three-body energy and derivatives                1.2958
  Calculation of matrix inversion                                 0.2742
--------------------------------------------------------------------------------
  Total CPU time                                                 13.6576
--------------------------------------------------------------------------------


  Dump file written as out.res                                                 
  CIF file written as out.cif                                                 


  Job Finished at 09:59.59 28th November   2016                               

