********************************************************************************
*                       GENERAL UTILITY LATTICE PROGRAM                        *
*                                 Julian Gale                                  *
*                      Nanochemistry Research Institute                        *
*                           Department of Chemistry                            *
*                    Curtin University, Western Australia                      *
********************************************************************************
* Version = 4.2.0 * Last modified =  20th January 2014                         *
********************************************************************************
*  optimise     - perform optimisation run                                     *
*  conp         - constant pressure calculation                                *
*  qok          - running with non charge neutral cell is OK                   *
********************************************************************************

  Job Started  at 19:53.03 27th November   2016                               

  Number of CPUs =     1


  Total number of configurations input =   1

********************************************************************************
*  Input for Configuration =   1                                               *
********************************************************************************

  Formula = Si57Ge3O120F6                                               

  Number of irreducible atoms/shells =     312


  Total number atoms/shells =     312

  Dimensionality = 3               :  Bulk   


  Charge on solid   =  -6.000000 =>neutralising background added


  Cartesian lattice vectors (Angstroms) :

       11.967757    0.000000    0.000000
       -5.955887   10.378494    0.000000
       -0.049676    0.146945   29.487158

  Cell parameters (Angstroms/Degrees):

  a =      11.9678    alpha =  89.7043
  b =      11.9660    beta  =  90.0965
  c =      29.4876    gamma = 119.8501

  Initial cell volume =        3662.520245 Angs**3

  Temperature of configuration =  0.000     K 

  Pressure of configuration =         0.000 GPa 

  Fractional coordinates of asymmetric unit :

--------------------------------------------------------------------------------
   No.  Atomic       x           y          z         Charge      Occupancy
        Label      (Frac)      (Frac)     (Frac)        (e)         (Frac)  
--------------------------------------------------------------------------------
      1 Si    c    0.699600    0.375700    0.033890     4.00000    1.000000    
      2 Si    c    0.620013 *  0.323503 *  0.367649 *   4.00000    1.000000    
      3 Si    c    0.676422 *  0.293778 *  0.697795 *   4.00000    1.000000    
      4 Si    c    0.298332 *  0.620763 *  0.533809 *   4.00000    1.000000    
      5 Si    c    0.376443 *  0.674774 *  0.867317 *   4.00000    1.000000    
      6 Si    c    0.326917 *  0.700504 *  0.200842 *   4.00000    1.000000    
      7 Si    c    0.377268 *  0.702300 *  0.301969 *   4.00000    1.000000    
      8 Si    c    0.321570 *  0.620174 *  0.969821 *   4.00000    1.000000    
      9 Si    c    0.296719 *  0.674415 *  0.634298 *   4.00000    1.000000    
     10 Si    c    0.621282 *  0.292538 *  0.798037 *   4.00000    1.000000    
     11 Si    c    0.675560 *  0.378844 *  0.467965 *   4.00000    1.000000    
     12 Si    c    0.702911 *  0.321913 *  0.134848 *   4.00000    1.000000    
     13 Ge    c    0.532129 *  0.429479 *  0.966247 *   4.00000    1.000000    
     14 Si    c    0.581324 *  0.113132 *  0.302689 *   4.00000    1.000000    
     15 Si    c    0.887445 *  0.468954 *  0.633825 *   4.00000    1.000000    
     16 Si    c    0.470264 *  0.582642 *  0.468897 *   4.00000    1.000000    
     17 Si    c    0.416310 *  0.883837 *  0.800718 *   4.00000    1.000000    
     18 Si    c    0.116208 *  0.531639 *  0.135707 *   4.00000    1.000000    
     19 Si    c    0.416037 *  0.530836 *  0.367369 *   4.00000    1.000000    
     20 Si    c    0.110214 *  0.582886 *  0.034550 *   4.00000    1.000000    
     21 Si    c    0.469056 *  0.883309 *  0.699182 *   4.00000    1.000000    
     22 Si    c    0.593196 *  0.462762 *  0.866130 *   4.00000    1.000000    
     23 Si    c    0.886876 *  0.416825 *  0.532356 *   4.00000    1.000000    
     24 Si    c    0.534932 *  0.113743 *  0.200874 *   4.00000    1.000000    
     25 Si    c    0.306692 *  0.394867 *  0.852642 *   4.00000    1.000000    
     26 Si    c    0.605236 *  0.903288 *  0.187314 *   4.00000    1.000000    
     27 Si    c    0.096631 *  0.697264 *  0.519182 *   4.00000    1.000000    
     28 Si    c    0.696564 *  0.601668 *  0.353173 *   4.00000    1.000000    
     29 Si    c    0.398163 *  0.093136 *  0.684224 *   4.00000    1.000000    
     30 Si    c    0.904731 *  0.302638 *  0.019766 *   4.00000    1.000000    
     31 Si    c    0.397888 *  0.301685 *  0.483159 *   4.00000    1.000000    
     32 Si    c    0.904024 *  0.598345 *  0.150436 *   4.00000    1.000000    
     33 Si    c    0.697390 *  0.091132 *  0.814367 *   4.00000    1.000000    
     34 Si    c    0.604906 *  0.701501 *  0.988900 *   4.00000    1.000000    
     35 Si    c    0.095551 *  0.396528 *  0.648620 *   4.00000    1.000000    
     36 Si    c    0.299607 *  0.903703 *  0.315572 *   4.00000    1.000000    
     37 Si    c    0.250216 *  0.333464 *  0.954610 *   4.00000    1.000000    
     38 Si    c    0.657995 *  0.910748 *  0.288440 *   4.00000    1.000000    
     39 Si    c    0.088299 *  0.747611 *  0.619570 *   4.00000    1.000000    
     40 Si    c    0.749052 *  0.660395 *  0.453590 *   4.00000    1.000000    
     41 Si    c    0.339988 *  0.086364 *  0.784741 *   4.00000    1.000000    
     42 Si    c    0.914713 *  0.254865 *  0.120247 *   4.00000    1.000000    
     43 Si    c    0.339201 *  0.251968 *  0.382631 *   4.00000    1.000000    
     44 Si    c    0.908314 *  0.659267 *  0.050030 *   4.00000    1.000000    
     45 Si    c    0.748021 *  0.084255 *  0.713775 *   4.00000    1.000000    
     46 Ge    c    0.664943 *  0.743690 *  0.885365 *   4.00000    1.000000    
     47 Si    c    0.088745 *  0.339689 *  0.548079 *   4.00000    1.000000    
     48 Si    c    0.257381 *  0.911271 *  0.214448 *   4.00000    1.000000    
     49 Si    c    0.966574 *  0.120379 *  0.968383 *   4.00000    1.000000    
     50 Si    c    0.877116 *  0.851803 *  0.304412 *   4.00000    1.000000    
     51 Si    c    0.150017 *  0.027321 *  0.634673 *   4.00000    1.000000    
     52 Si    c    0.029238 *  0.878516 *  0.469014 *   4.00000    1.000000    
     53 Si    c    0.124300 *  0.151245 *  0.801062 *   4.00000    1.000000    
     54 Si    c    0.852980 *  0.976525 *  0.135977 *   4.00000    1.000000    
     55 Si    c    0.121765 *  0.972717 *  0.368115 *   4.00000    1.000000    
     56 Si    c    0.850179 *  0.882685 *  0.035723 *   4.00000    1.000000    
     57 Si    c    0.028819 *  0.148971 *  0.700010 *   4.00000    1.000000    
     58 Si    c    0.880753 *  0.028566 *  0.866643 *   4.00000    1.000000    
     59 Si    c    0.149927 *  0.121340 *  0.533748 *   4.00000    1.000000    
     60 Ge    c    0.974283 *  0.848559 *  0.201746 *   4.00000    1.000000    
     61 O2    c    0.929288 *  0.999500 *  0.000938 *   0.87073    1.000000    
     62 O2    c    0.995526 *  0.930504 *  0.338417 *   0.87073    1.000000    
     63 O2    c    0.072880 *  0.068994 *  0.668631 *   0.87073    1.000000    
     64 O2    c    0.069134 *  0.998490 *  0.502103 *   0.87073    1.000000    
     65 O2    c    0.006953 *  0.078023 *  0.835557 *   0.87073    1.000000    
     66 O3    c    0.935291 *  0.940293 *  0.168127 *   1.33043    1.000000    
     67 O2    c    0.338581 *  0.579439 *  0.335125 *   0.87073    1.000000    
     68 O2    c    0.419628 *  0.757833 *  0.667110 *   0.87073    1.000000    
     69 O2    c    0.235302 *  0.657961 *  0.001235 *   0.87073    1.000000    
     70 O2    c    0.662679 *  0.417193 *  0.829247 *   0.87073    1.000000    
     71 O2    c    0.581356 *  0.237911 *  0.168086 *   0.87073    1.000000    
     72 O2    c    0.761390 *  0.340271 *  0.500268 *   0.87073    1.000000    
     73 O3    c    0.582051 *  0.342148 *  0.001765 *   1.33043    1.000000    
     74 O2    c    0.760414 *  0.417745 *  0.665517 *   0.87073    1.000000    
     75 O2    c    0.657266 *  0.237936 *  0.335190 *   0.87073    1.000000    
     76 O2    c    0.421629 *  0.659255 *  0.501369 *   0.87073    1.000000    
     77 O2    c    0.242408 *  0.578886 *  0.167802 *   0.87073    1.000000    
     78 O2    c    0.338541 *  0.758772 *  0.833800 *   0.87073    1.000000    
     79 O2    c    0.119554 *  0.212029 *  0.973163 *   0.87073    1.000000    
     80 O2    c    0.783335 *  0.912019 *  0.309914 *   0.87073    1.000000    
     81 O2    c    0.086775 *  0.873023 *  0.639627 *   0.87073    1.000000    
     82 O2    c    0.874939 *  0.787039 *  0.473353 *   0.87073    1.000000    
     83 O2    c    0.213289 *  0.085183 *  0.804988 *   0.87073    1.000000    
     84 O2    c    0.913422 *  0.129628 *  0.141340 *   0.87073    1.000000    
     85 O2    c    0.213338 *  0.126675 *  0.362333 *   0.87073    1.000000    
     86 O2    c    0.906392 *  0.785278 *  0.030046 *   0.87073    1.000000    
     87 O2    c    0.874626 *  0.084096 *  0.694090 *   0.87073    1.000000    
     88 O3    c    0.797522 *  0.877151 *  0.861142 *   1.33043    1.000000    
     89 O2    c    0.087902 *  0.213458 *  0.527820 *   0.87073    1.000000    
     90 O3    c    0.136648 *  0.913409 *  0.192450 *   1.33043    1.000000    
     91 O3    c    0.937432 *  0.871873 *  0.255546 *   1.33043    1.000000    
     92 O2    c    0.135398 *  0.069726 *  0.584683 *   0.87073    1.000000    
     93 O2    c    0.926317 *  0.068810 *  0.917860 *   0.87073    1.000000    
     94 O2    c    0.067555 *  0.139115 *  0.751186 *   0.87073    1.000000    
     95 O2    c    0.870772 *  0.939389 *  0.085581 *   0.87073    1.000000    
     96 O2    c    0.074648 *  0.934718 *  0.419269 *   0.87073    1.000000    
     97 O2    c    0.898879 *  0.203434 *  0.981100 *   0.87073    1.000000    
     98 O2    c    0.794887 *  0.698668 *  0.314893 *   0.87073    1.000000    
     99 O2    c    0.301895 *  0.095151 *  0.645799 *   0.87073    1.000000    
    100 O2    c    0.098546 *  0.796077 *  0.480970 *   0.87073    1.000000    
    101 O2    c    0.211630 *  0.302347 *  0.813211 *   0.87073    1.000000    
    102 O2    c    0.701268 *  0.901899 *  0.148806 *   0.87073    1.000000    
    103 O2    c    0.200990 *  0.901889 *  0.353772 *   0.87073    1.000000    
    104 O2    c    0.697296 *  0.809291 *  0.025901 *   0.87073    1.000000    
    105 O2    c    0.097255 *  0.299900 *  0.687210 *   0.87073    1.000000    
    106 O2    c    0.794167 *  0.093080 *  0.853131 *   0.87073    1.000000    
    107 O2    c    0.301395 *  0.202713 *  0.521583 *   0.87073    1.000000    
    108 O3    c    0.897240 *  0.687011 *  0.189994 *   1.33043    1.000000    
    109 O2    c    0.323267 *  0.643799 *  0.251652 *   0.87073    1.000000    
    110 O2    c    0.354958 *  0.676490 *  0.584153 *   0.87073    1.000000    
    111 O2    c    0.323626 *  0.671531 *  0.918311 *   0.87073    1.000000    
    112 O2    c    0.678143 *  0.350450 *  0.747931 *   0.87073    1.000000    
    113 O2    c    0.646136 *  0.320051 *  0.084805 *   0.87073    1.000000    
    114 O2    c    0.676803 *  0.322346 *  0.417880 *   0.87073    1.000000    
    115 O3    c    0.365228 *  0.318792 *  0.973928 *   1.33043    1.000000    
    116 O2    c    0.667252 *  0.042784 *  0.306508 *   0.87073    1.000000    
    117 O2    c    0.955608 *  0.624900 *  0.637599 *   0.87073    1.000000    
    118 O2    c    0.626342 *  0.669914 *  0.471987 *   0.87073    1.000000    
    119 O2    c    0.330463 *  0.954323 *  0.803802 *   0.87073    1.000000    
    120 O2    c    0.047655 *  0.375618 *  0.138701 *   0.87073    1.000000    
    121 O2    c    0.329046 *  0.374745 *  0.364568 *   0.87073    1.000000    
    122 O2    c    0.042170 *  0.671107 *  0.031364 *   0.87073    1.000000    
    123 O2    c    0.625230 *  0.951471 *  0.696240 *   0.87073    1.000000    
    124 O3    c    0.680490 *  0.618156 *  0.864457 *   1.33043    1.000000    
    125 O2    c    0.956660 *  0.330128 *  0.529618 *   0.87073    1.000000    
    126 O2    c    0.379777 *  0.044824 *  0.197505 *   0.87073    1.000000    
    127 O2    c    0.771757 *  0.303033 *  0.012738 *   0.87073    1.000000    
    128 O2    c    0.695442 *  0.467137 *  0.345414 *   0.87073    1.000000    
    129 O2    c    0.532525 *  0.225848 *  0.676109 *   0.87073    1.000000    
    130 O2    c    0.230211 *  0.696481 *  0.511625 *   0.87073    1.000000    
    131 O2    c    0.306766 *  0.529540 *  0.847570 *   0.87073    1.000000    
    132 O2    c    0.471626 *  0.769243 *  0.179742 *   0.87073    1.000000    
    133 O2    c    0.301307 *  0.770391 *  0.323684 *   0.87073    1.000000    
    134 O2    c    0.466146 *  0.696430 *  0.990191 *   0.87073    1.000000    
    135 O2    c    0.228729 *  0.530674 *  0.656475 *   0.87073    1.000000    
    136 O2    c    0.694903 *  0.223679 *  0.821333 *   0.87073    1.000000    
    137 O2    c    0.532691 *  0.302881 *  0.490674 *   0.87073    1.000000    
    138 O2    c    0.770720 *  0.464282 *  0.156999 *   0.87073    1.000000    
    139 O2    c    0.785282 *  0.533412 *  0.030349 *   0.87073    1.000000    
    140 O2    c    0.464256 *  0.250670 *  0.363078 *   0.87073    1.000000    
    141 O2    c    0.748789 *  0.209928 *  0.693346 *   0.87073    1.000000    
    142 O2    c    0.215644 *  0.465030 *  0.529009 *   0.87073    1.000000    
    143 O3    c    0.528979 *  0.741331 *  0.864851 *   1.33043    1.000000    
    144 O2    c    0.255191 *  0.784094 *  0.195350 *   0.87073    1.000000    
    145 O2    c    0.532758 *  0.783835 *  0.307592 *   0.87073    1.000000    
    146 O2    c    0.258189 *  0.465810 *  0.972062 *   0.87073    1.000000    
    147 O2    c    0.214744 *  0.748696 *  0.639327 *   0.87073    1.000000    
    148 O2    c    0.464964 *  0.213499 *  0.803582 *   0.87073    1.000000    
    149 O2    c    0.750227 *  0.534766 *  0.473173 *   0.87073    1.000000    
    150 O2    c    0.787033 *  0.250436 *  0.139740 *   0.87073    1.000000    
    151 O2    c    0.240494 *  0.323878 *  0.899626 *   0.87073    1.000000    
    152 O2    c    0.678063 *  0.907237 *  0.234237 *   0.87073    1.000000    
    153 O2    c    0.091268 *  0.767447 *  0.565314 *   0.87073    1.000000    
    154 O2    c    0.767304 *  0.676765 *  0.399295 *   0.87073    1.000000    
    155 O2    c    0.322742 *  0.088198 *  0.730456 *   0.87073    1.000000    
    156 O2    c    0.912990 *  0.233889 *  0.066047 *   0.87073    1.000000    
    157 O2    c    0.322613 *  0.232205 *  0.436967 *   0.87073    1.000000    
    158 O2    c    0.909454 *  0.677457 *  0.104609 *   0.87073    1.000000    
    159 O2    c    0.767546 *  0.086785 *  0.768044 *   0.87073    1.000000    
    160 O3    c    0.684513 *  0.769419 *  0.942578 *   1.33043    1.000000    
    161 O2    c    0.090628 *  0.321819 *  0.602414 *   0.87073    1.000000    
    162 O2    c    0.229907 *  0.905897 *  0.268693 *   0.87073    1.000000    
    163 O3    c    0.597747 *  0.569627 *  0.001429 *   1.33043    1.000000    
    164 O2    c    0.438158 *  0.029961 *  0.324417 *   0.87073    1.000000    
    165 O2    c    0.970173 *  0.410583 *  0.657480 *   0.87073    1.000000    
    166 O2    c    0.412256 *  0.441158 *  0.492121 *   0.87073    1.000000    
    167 O2    c    0.558323 *  0.964467 *  0.823324 *   0.87073    1.000000    
    168 O2    c    0.032040 *  0.588036 *  0.159237 *   0.87073    1.000000    
    169 O2    c    0.557124 *  0.587609 *  0.344332 *   0.87073    1.000000    
    170 O2    c    0.030261 *  0.442373 *  0.010754 *   0.87073    1.000000    
    171 O2    c    0.412245 *  0.967678 *  0.675889 *   0.87073    1.000000    
    172 O2    c    0.448792 *  0.416419 *  0.845891 *   0.87073    1.000000    
    173 O2    c    0.971655 *  0.558602 *  0.509768 *   0.87073    1.000000    
    174 O2    c    0.592572 *  0.029448 *  0.178500 *   0.87073    1.000000    
    175 O2    c    0.586304 *  0.167531 *  0.251677 *   0.87073    1.000000    
    176 O2    c    0.834338 *  0.416747 *  0.583163 *   0.87073    1.000000    
    177 O3    c    0.597400 *  0.406264 *  0.914726 *   1.33043    1.000000    
    178 O2    c    0.415361 *  0.830061 *  0.750104 *   0.87073    1.000000    
    179 O2    c    0.168765 *  0.585567 *  0.084707 *   0.87073    1.000000    
    180 O2    c    0.416803 *  0.583430 *  0.418227 *   0.87073    1.000000    
    181 F     c    0.452801 *  0.904242 *  0.251890 *   0.56000    1.000000    
    182 F     c    0.095688 *  0.547628 *  0.584237 *   0.56000    1.000000    
    183 F     c    0.484617 *  0.533081 *  0.926999 *   0.56000    1.000000    
    184 F     c    0.546872 *  0.091959 *  0.749746 *   0.56000    1.000000    
    185 F     c    0.911407 *  0.455161 *  0.085433 *   0.56000    1.000000    
    186 F     c    0.547988 *  0.452190 *  0.418498 *   0.56000    1.000000    
    187 O2    s    0.924746 *  0.000159 *  0.001122 *  -2.87073    1.000000    
    188 O2    s    0.996822 *  0.926633 *  0.338057 *  -2.87073    1.000000    
    189 O2    s    0.076521 *  0.073303 *  0.668370 *  -2.87073    1.000000    
    190 O2    s    0.073729 *  0.998912 *  0.501973 *  -2.87073    1.000000    
    191 O2    s    0.006485 *  0.080957 *  0.835040 *  -2.87073    1.000000    
    192 O3    s    0.929630 *  0.936143 *  0.167560 *  -3.33043    1.000000    
    193 O2    s    0.350521 *  0.586967 *  0.335062 *  -2.87073    1.000000    
    194 O2    s    0.412178 *  0.762278 *  0.667069 *  -2.87073    1.000000    
    195 O2    s    0.232071 *  0.646503 *  0.001184 *  -2.87073    1.000000    
    196 O2    s    0.651134 *  0.408560 *  0.829693 *  -2.87073    1.000000    
    197 O2    s    0.589101 *  0.233643 *  0.168067 *  -2.87073    1.000000    
    198 O2    s    0.765646 *  0.352160 *  0.500291 *  -2.87073    1.000000    
    199 O3    s    0.591116 *  0.351769 *  0.002736 *  -3.33043    1.000000    
    200 O2    s    0.764753 *  0.410107 *  0.665615 *  -2.87073    1.000000    
    201 O2    s    0.645606 *  0.233955 *  0.335218 *  -2.87073    1.000000    
    202 O2    s    0.413855 *  0.647427 *  0.501411 *  -2.87073    1.000000    
    203 O2    s    0.238315 *  0.586586 *  0.167949 *  -2.87073    1.000000    
    204 O2    s    0.350175 *  0.762620 *  0.833944 *  -2.87073    1.000000    
    205 O2    s    0.116905 *  0.215137 *  0.970655 *  -2.87073    1.000000    
    206 O2    s    0.780176 *  0.905511 *  0.307132 *  -2.87073    1.000000    
    207 O2    s    0.093625 *  0.876448 *  0.637069 *  -2.87073    1.000000    
    208 O2    s    0.878298 *  0.783678 *  0.470896 *  -2.87073    1.000000    
    209 O2    s    0.216908 *  0.092282 *  0.802514 *  -2.87073    1.000000    
    210 O2    s    0.907028 *  0.126485 *  0.138543 *  -2.87073    1.000000    
    211 O2    s    0.216689 *  0.123374 *  0.365017 *  -2.87073    1.000000    
    212 O2    s    0.900707 *  0.782594 *  0.032652 *  -2.87073    1.000000    
    213 O2    s    0.877861 *  0.090938 *  0.696716 *  -2.87073    1.000000    
    214 O3    s    0.796083 *  0.882750 *  0.863552 *  -3.33043    1.000000    
    215 O2    s    0.094576 *  0.216765 *  0.530520 *  -2.87073    1.000000    
    216 O3    s    0.135393 *  0.907802 *  0.195418 *  -3.33043    1.000000    
    217 O3    s    0.934052 *  0.867601 *  0.256161 *  -3.33043    1.000000    
    218 O2    s    0.138678 *  0.070692 *  0.584639 *  -2.87073    1.000000    
    219 O2    s    0.925779 *  0.070125 *  0.917835 *  -2.87073    1.000000    
    220 O2    s    0.069641 *  0.141573 *  0.751094 *  -2.87073    1.000000    
    221 O2    s    0.866407 *  0.937019 *  0.085475 *  -2.87073    1.000000    
    222 O2    s    0.074778 *  0.932581 *  0.419180 *  -2.87073    1.000000    
    223 O2    s    0.906778 *  0.204603 *  0.983669 *  -2.87073    1.000000    
    224 O2    s    0.793368 *  0.704639 *  0.317713 *  -2.87073    1.000000    
    225 O2    s    0.295648 *  0.087716 *  0.648572 *  -2.87073    1.000000    
    226 O2    s    0.090925 *  0.794652 *  0.483657 *  -2.87073    1.000000    
    227 O2    s    0.212350 *  0.296087 *  0.816021 *  -2.87073    1.000000    
    228 O2    s    0.707213 *  0.909796 *  0.151426 *  -2.87073    1.000000    
    229 O2    s    0.202637 *  0.909614 *  0.351396 *  -2.87073    1.000000    
    230 O2    s    0.704180 *  0.806350 *  0.023291 *  -2.87073    1.000000    
    231 O2    s    0.089760 *  0.293623 *  0.684635 *  -2.87073    1.000000    
    232 O2    s    0.793095 *  0.086143 *  0.850484 *  -2.87073    1.000000    
    233 O2    s    0.295111 *  0.204105 *  0.518978 *  -2.87073    1.000000    
    234 O3    s    0.904309 *  0.692006 *  0.187192 *  -3.33043    1.000000    
    235 O2    s    0.329118 *  0.655470 *  0.251604 *  -2.87073    1.000000    
    236 O2    s    0.343237 *  0.670602 *  0.584162 *  -2.87073    1.000000    
    237 O2    s    0.328842 *  0.666708 *  0.918254 *  -2.87073    1.000000    
    238 O2    s    0.672071 *  0.338527 *  0.747887 *  -2.87073    1.000000    
    239 O2    s    0.657485 *  0.325813 *  0.084999 *  -2.87073    1.000000    
    240 O2    s    0.670876 *  0.328241 *  0.417880 *  -2.87073    1.000000    
    241 O3    s    0.364713 *  0.328180 *  0.971303 *  -3.33043    1.000000    
    242 O2    s    0.657362 *  0.036191 *  0.304203 *  -2.87073    1.000000    
    243 O2    s    0.962432 *  0.621663 *  0.635333 *  -2.87073    1.000000    
    244 O2    s    0.623105 *  0.659953 *  0.469743 *  -2.87073    1.000000    
    245 O2    s    0.340345 *  0.960736 *  0.801495 *  -2.87073    1.000000    
    246 O2    s    0.040876 *  0.379167 *  0.136446 *  -2.87073    1.000000    
    247 O2    s    0.339060 *  0.377909 *  0.366764 *  -2.87073    1.000000    
    248 O2    s    0.035707 *  0.660827 *  0.033590 *  -2.87073    1.000000    
    249 O2    s    0.622029 *  0.958314 *  0.698384 *  -2.87073    1.000000    
    250 O3    s    0.671021 *  0.613870 *  0.866376 *  -3.33043    1.000000    
    251 O2    s    0.963349 *  0.340067 *  0.531855 *  -2.87073    1.000000    
    252 O2    s    0.383254 *  0.037941 *  0.199681 *  -2.87073    1.000000    
    253 O2    s    0.778963 *  0.310439 *  0.015709 *  -2.87073    1.000000    
    254 O2    s    0.687802 *  0.466483 *  0.348545 *  -2.87073    1.000000    
    255 O2    s    0.533140 *  0.218804 *  0.679232 *  -2.87073    1.000000    
    256 O2    s    0.223150 *  0.688746 *  0.514749 *  -2.87073    1.000000    
    257 O2    s    0.314006 *  0.530552 *  0.850181 *  -2.87073    1.000000    
    258 O2    s    0.470722 *  0.776175 *  0.182738 *  -2.87073    1.000000    
    259 O2    s    0.308935 *  0.777328 *  0.320570 *  -2.87073    1.000000    
    260 O2    s    0.464971 *  0.688903 *  0.987901 *  -2.87073    1.000000    
    261 O2    s    0.221723 *  0.531350 *  0.653343 *  -2.87073    1.000000    
    262 O2    s    0.687537 *  0.216553 *  0.818150 *  -2.87073    1.000000    
    263 O2    s    0.533188 *  0.310538 *  0.487530 *  -2.87073    1.000000    
    264 O2    s    0.777845 *  0.463643 *  0.153931 *  -2.87073    1.000000    
    265 O2    s    0.790739 *  0.531912 *  0.032845 *  -2.87073    1.000000    
    266 O2    s    0.466986 *  0.258539 *  0.365661 *  -2.87073    1.000000    
    267 O2    s    0.741053 *  0.204929 *  0.695994 *  -2.87073    1.000000    
    268 O2    s    0.210399 *  0.467679 *  0.531555 *  -2.87073    1.000000    
    269 O3    s    0.524424 *  0.734534 *  0.866806 *  -3.33043    1.000000    
    270 O2    s    0.263188 *  0.789010 *  0.197976 *  -2.87073    1.000000    
    271 O2    s    0.530056 *  0.789159 *  0.304952 *  -2.87073    1.000000    
    272 O2    s    0.264342 *  0.468787 *  0.970012 *  -2.87073    1.000000    
    273 O2    s    0.209526 *  0.740761 *  0.636704 *  -2.87073    1.000000    
    274 O2    s    0.467384 *  0.207709 *  0.801008 *  -2.87073    1.000000    
    275 O2    s    0.742272 *  0.532162 *  0.470554 *  -2.87073    1.000000    
    276 O2    s    0.792176 *  0.258621 *  0.137103 *  -2.87073    1.000000    
    277 O2    s    0.248624 *  0.332472 *  0.900184 *  -2.87073    1.000000    
    278 O2    s    0.668454 *  0.907160 *  0.235030 *  -2.87073    1.000000    
    279 O2    s    0.091500 *  0.757998 *  0.566293 *  -2.87073    1.000000    
    280 O2    s    0.757966 *  0.667181 *  0.400278 *  -2.87073    1.000000    
    281 O2    s    0.332425 *  0.088494 *  0.731408 *  -2.87073    1.000000    
    282 O2    s    0.912357 *  0.243343 *  0.066889 *  -2.87073    1.000000    
    283 O2    s    0.332264 *  0.241593 *  0.436066 *  -2.87073    1.000000    
    284 O2    s    0.908853 *  0.667663 *  0.103659 *  -2.87073    1.000000    
    285 O2    s    0.758102 *  0.086939 *  0.767128 *  -2.87073    1.000000    
    286 O3    s    0.675629 *  0.760961 *  0.941945 *  -3.33043    1.000000    
    287 O2    s    0.090945 *  0.331549 *  0.601529 *  -2.87073    1.000000    
    288 O2    s    0.239873 *  0.906159 *  0.268069 *  -2.87073    1.000000    
    289 O3    s    0.593784 *  0.574053 *  0.997657 *  -3.33043    1.000000    
    290 O2    s    0.438249 *  0.024957 *  0.321205 *  -2.87073    1.000000    
    291 O2    s    0.975224 *  0.415311 *  0.654068 *  -2.87073    1.000000    
    292 O2    s    0.416916 *  0.440884 *  0.488744 *  -2.87073    1.000000    
    293 O2    s    0.558169 *  0.969484 *  0.820033 *  -2.87073    1.000000    
    294 O2    s    0.027106 *  0.583122 *  0.155847 *  -2.87073    1.000000    
    295 O2    s    0.557382 *  0.582998 *  0.347700 *  -2.87073    1.000000    
    296 O2    s    0.025140 *  0.442103 *  0.014154 *  -2.87073    1.000000    
    297 O2    s    0.416864 *  0.972541 *  0.679243 *  -2.87073    1.000000    
    298 O2    s    0.447124 *  0.418706 *  0.848653 *  -2.87073    1.000000    
    299 O2    s    0.976410 *  0.558672 *  0.513160 *  -2.87073    1.000000    
    300 O2    s    0.587739 *  0.024424 *  0.181811 *  -2.87073    1.000000    
    301 O2    s    0.580495 *  0.156333 *  0.251738 *  -2.87073    1.000000    
    302 O2    s    0.845371 *  0.422228 *  0.583175 *  -2.87073    1.000000    
    303 O3    s    0.592535 *  0.413692 *  0.913274 *  -3.33043    1.000000    
    304 O2    s    0.420946 *  0.841059 *  0.750154 *  -2.87073    1.000000    
    305 O2    s    0.157398 *  0.579795 *  0.084752 *  -2.87073    1.000000    
    306 O2    s    0.422271 *  0.577916 *  0.418233 *  -2.87073    1.000000    
    307 F     s    0.452550 *  0.903900 *  0.251924 *  -1.56000    1.000000    
    308 F     s    0.096061 *  0.547881 *  0.584294 *  -1.56000    1.000000    
    309 F     s    0.488450 *  0.529057 *  0.928850 *  -1.56000    1.000000    
    310 F     s    0.546985 *  0.092347 *  0.749818 *  -1.56000    1.000000    
    311 F     s    0.911851 *  0.455309 *  0.085504 *  -1.56000    1.000000    
    312 F     s    0.548267 *  0.451970 *  0.418550 *  -1.56000    1.000000    
--------------------------------------------------------------------------------



********************************************************************************
*  General input information                                                   *
********************************************************************************

  Species output for all configurations : 

--------------------------------------------------------------------------------
  Species    Type    Atomic    Atomic    Charge       Radii (Angs)     Library
                     Number     Mass       (e)     Cova   Ionic  VDW   Symbol
--------------------------------------------------------------------------------
    Si       Core       14      28.09   4.000000   1.200  0.000  2.100          
    O1       Core        8      16.00   1.733957   0.730  0.000  1.360          
    O1       Shell       8       0.00  -3.733957   0.730  0.000  1.360          
    O2       Core        8      16.00   0.870733   0.730  0.000  1.360          
    O2       Shell       8       0.00  -2.870733   0.730  0.000  1.360          
    O3       Core        8      16.00   1.330431   0.730  0.000  1.360          
    O3       Shell       8       0.00  -3.330431   0.730  0.000  1.360          
    F        Core        9      19.00   0.560000   0.710  0.000  1.300          
    F        Shell       9       0.00  -1.560000   0.710  0.000  1.300          
    Ge       Core       32      72.61   4.000000   1.170  0.000  1.750          
--------------------------------------------------------------------------------


  Lattice summation method               =    Ewald          (3-D)
                                         =    Parry          (2-D)
                                         =    Saunders et al (1-D)
  Accuracy factor for lattice sums       =   12.000


  Time limit = Infinity

  Maximum range for interatomic potentials =        16.000000 Angstroms

  Taper potentials to zero over   1.0000 Angstroms using polynomial

  General interatomic potentials :

--------------------------------------------------------------------------------
Atom  Types   Potential         A         B         C         D     Cutoffs(Ang)
  1     2                                                            Min    Max 
--------------------------------------------------------------------------------
Si   c O1   s Buckingham    0.132E+04 0.318      10.1      0.00     0.000 16.000
Si   c O2   s Buckingham    0.132E+04 0.318      10.1      0.00     0.000 16.000
Si   c O3   s Buckingham    0.132E+04 0.318      10.1      0.00     0.000 16.000
Ge   c O1   s Buckingham    0.150E+04 0.326      16.8      0.00     0.000 16.000
Ge   c O2   s Buckingham    0.150E+04 0.326      16.8      0.00     0.000 16.000
Ge   c O3   s Buckingham    0.150E+04 0.326      16.8      0.00     0.000 16.000
O1   s O1   s Buckingham    0.228E+05 0.149      10.9      0.00     0.000 16.000
O1   s O2   s Buckingham    0.228E+05 0.149      10.9      0.00     0.000 16.000
O1   s O3   s Buckingham    0.228E+05 0.149      10.9      0.00     0.000 16.000
O2   s O2   s Buckingham    0.228E+05 0.149      10.9      0.00     0.000 16.000
O2   s O3   s Buckingham    0.228E+05 0.149      10.9      0.00     0.000 16.000
O3   s O3   s Buckingham    0.228E+05 0.149      10.9      0.00     0.000 16.000
Si   c F    s Buckingham     977.     0.282      0.00      0.00     0.000 16.000
Ge   c F    s Buckingham     681.     0.320      0.00      0.00     0.000 16.000
F    s F    s Buckingham     540.     0.262      0.00      0.00     0.000 16.000
O1   s F    s Buckingham    0.168E+04 0.268      0.00      0.00     0.000 16.000
O2   s F    s Buckingham    0.168E+04 0.268      0.00      0.00     0.000 16.000
O3   s F    s Buckingham    0.168E+04 0.268      0.00      0.00     0.000 16.000
O2   c O2   s Spring (c-s)   76.0      0.00      0.00      0.00     0.000  0.800
O3   c O3   s Spring (c-s)   128.      0.00      0.00      0.00     0.000  0.800
O1   c O1   s Spring (c-s)   180.      0.00      0.00      0.00     0.000  0.800
F    c F    s Spring (c-s)   33.5      0.00      0.00      0.00     0.000  0.800
--------------------------------------------------------------------------------

  General Three-body potentials :

  Harmonic form:

--------------------------------------------------------------------------------
Atom    Atom    Atom           Force Constants            Theta     Cutoffs  
  1       2       3     (eVrad**-2/eVrad**-3/eVrad**-4)   (deg)  1-2  1-3  2-3
--------------------------------------------------------------------------------
Si    c O1    s O1    s  1.261        0.0000    0.0000   109.470 0.00 0.00 0.00
                                                                 1.90 1.90 3.50
Si    c O1    s O2    s  1.261        0.0000    0.0000   109.470 0.00 0.00 0.00
                                                                 1.90 1.90 3.50
Si    c O2    s O2    s  1.261        0.0000    0.0000   109.470 0.00 0.00 0.00
                                                                 1.90 1.90 3.50
--------------------------------------------------------------------------------

********************************************************************************
*  Output for configuration   1                                                *
********************************************************************************


  Components of energy : 

--------------------------------------------------------------------------------
  Interatomic potentials     =        2061.10563310 eV
  Three-body potentials      =           0.44139511 eV
  Monopole - monopole (real) =       -6611.37797192 eV
  Monopole - monopole (recip)=       -3169.69784152 eV
  Monopole - monopole (total)=       -9781.07581344 eV
  Neutralising energy        =          -6.45667015 eV
--------------------------------------------------------------------------------
  Total lattice energy       =       -7725.98545538 eV
--------------------------------------------------------------------------------
  Total lattice energy       =         -745439.4939 kJ/(mole unit cells)
--------------------------------------------------------------------------------


  Number of variables =      939

  Maximum number of calculations  =          1000
  Maximum Hessian update interval =            10
  Maximum step size               =   1.000000000
  Maximum parameter tolerance     =   0.000010000
  Maximum function  tolerance     =   0.000010000
  Maximum gradient  tolerance     =   0.001000000
  Maximum gradient  component     =   0.010000000

  Symmetry not applied to optimisation

  Cell parameters to be optimised using strains

  Newton-Raphson optimiser to be used

  BFGS hessian update to be used

  Dumpfile to be written after every cycle

  Start of bulk optimisation :

  Cycle:      0 Energy:     -7725.985455  Gnorm:      0.008857  CPU:    2.115
  ** Hessian calculated **
  Cycle:      1 Energy:     -7726.047008  Gnorm:      0.006023  CPU:    6.050
  Cycle:      2 Energy:     -7726.047945  Gnorm:      0.003732  CPU:    8.981
  Cycle:      3 Energy:     -7726.049629  Gnorm:      0.000237  CPU:   11.841
  Cycle:      4 Energy:     -7726.049638  Gnorm:      0.000091  CPU:   14.752


  **** Optimisation achieved ****


  Final energy =   -7726.04963864 eV
  Final Gnorm  =       0.00002278

  Components of energy : 

--------------------------------------------------------------------------------
  Interatomic potentials     =        2061.23081209 eV
  Three-body potentials      =           0.44918857 eV
  Monopole - monopole (real) =       -6612.00185596 eV
  Monopole - monopole (recip)=       -3169.27197994 eV
  Monopole - monopole (total)=       -9781.27383590 eV
  Neutralising energy        =          -6.45580340 eV
--------------------------------------------------------------------------------
  Total lattice energy       =       -7726.04963864 eV
--------------------------------------------------------------------------------
  Total lattice energy       =         -745445.6866 kJ/(mole unit cells)
--------------------------------------------------------------------------------

  Final fractional coordinates of atoms :

--------------------------------------------------------------------------------
   No.  Atomic        x           y          z          Radius
        Label       (Frac)      (Frac)     (Frac)       (Angs) 
--------------------------------------------------------------------------------
     1  Si    c     0.699600    0.375700    0.033890    0.000000
     2  Si    c     0.621069    0.313673    0.367916    0.000000
     3  Si    c     0.675437    0.276128    0.697941    0.000000
     4  Si    c     0.297006    0.605426    0.533966    0.000000
     5  Si    c     0.380394    0.661882    0.867189    0.000000
     6  Si    c     0.331564    0.695828    0.200395    0.000000
     7  Si    c     0.380198    0.693954    0.301674    0.000000
     8  Si    c     0.324487    0.611939    0.969890    0.000000
     9  Si    c     0.294925    0.657553    0.634637    0.000000
    10  Si    c     0.620691    0.276150    0.798420    0.000000
    11  Si    c     0.675616    0.367001    0.468351    0.000000
    12  Si    c     0.707073    0.320497    0.135024    0.000000
    13  Ge    c     0.529841    0.421084    0.965949    0.000000
    14  Si    c     0.583758    0.104438    0.302915    0.000000
    15  Si    c     0.886384    0.452898    0.634212    0.000000
    16  Si    c     0.470436    0.570052    0.468873    0.000000
    17  Si    c     0.416728    0.868308    0.800477    0.000000
    18  Si    c     0.120634    0.528588    0.135100    0.000000
    19  Si    c     0.417181    0.520799    0.367188    0.000000
    20  Si    c     0.112864    0.578334    0.033974    0.000000
    21  Si    c     0.468737    0.865984    0.699142    0.000000
    22  Si    c     0.596274    0.449389    0.866514    0.000000
    23  Si    c     0.886002    0.402206    0.532649    0.000000
    24  Si    c     0.540101    0.110004    0.201033    0.000000
    25  Si    c     0.309572    0.381803    0.852949    0.000000
    26  Si    c     0.609637    0.898854    0.187561    0.000000
    27  Si    c     0.095448    0.682384    0.519480    0.000000
    28  Si    c     0.698000    0.591739    0.353189    0.000000
    29  Si    c     0.397581    0.075546    0.684335    0.000000
    30  Si    c     0.904478    0.299940    0.019305    0.000000
    31  Si    c     0.397593    0.289316    0.483477    0.000000
    32  Si    c     0.909452    0.596208    0.150189    0.000000
    33  Si    c     0.696748    0.074361    0.814393    0.000000
    34  Si    c     0.607405    0.693110    0.990058    0.000000
    35  Si    c     0.093985    0.380000    0.648987    0.000000
    36  Si    c     0.302291    0.895412    0.315512    0.000000
    37  Si    c     0.249473    0.323595    0.955125    0.000000
    38  Si    c     0.660806    0.902501    0.288602    0.000000
    39  Si    c     0.086768    0.731268    0.620071    0.000000
    40  Si    c     0.749259    0.648394    0.453808    0.000000
    41  Si    c     0.339637    0.069962    0.784915    0.000000
    42  Si    c     0.918190    0.252133    0.119658    0.000000
    43  Si    c     0.340141    0.241907    0.382752    0.000000
    44  Si    c     0.912838    0.656599    0.049838    0.000000
    45  Si    c     0.747253    0.066449    0.713810    0.000000
    46  Ge    c     0.668976    0.731307    0.885883    0.000000
    47  Si    c     0.087486    0.324658    0.548312    0.000000
    48  Si    c     0.262368    0.906944    0.214336    0.000000
    49  Si    c     0.964683    0.115046    0.968896    0.000000
    50  Si    c     0.879542    0.842679    0.304919    0.000000
    51  Si    c     0.149755    0.011325    0.635100    0.000000
    52  Si    c     0.029804    0.865263    0.469391    0.000000
    53  Si    c     0.126229    0.137856    0.801664    0.000000
    54  Si    c     0.858426    0.974028    0.136567    0.000000
    55  Si    c     0.123446    0.962475    0.368675    0.000000
    56  Si    c     0.852281    0.877548    0.036486    0.000000
    57  Si    c     0.028698    0.132986    0.700680    0.000000
    58  Si    c     0.882879    0.016740    0.867512    0.000000
    59  Si    c     0.149999    0.107301    0.534323    0.000000
    60  Ge    c     0.979847    0.846123    0.202015    0.000000
    61  O2    c     0.927054    0.995686    0.002057    0.000000
    62  O2    c     0.995891    0.919730    0.339792    0.000000
    63  O2    c     0.074126    0.053361    0.669696    0.000000
    64  O2    c     0.069597    0.983962    0.503009    0.000000
    65  O2    c     0.010398    0.067771    0.836977    0.000000
    66  O3    c     0.941393    0.941093    0.169798    0.000000
    67  O2    c     0.341028    0.570560    0.334716    0.000000
    68  O2    c     0.418390    0.740324    0.667184    0.000000
    69  O2    c     0.237906    0.651380    0.000457    0.000000
    70  O2    c     0.663572    0.401314    0.829565    0.000000
    71  O2    c     0.586599    0.235097    0.168675    0.000000
    72  O2    c     0.760638    0.327121    0.500530    0.000000
    73  O3    c     0.580690    0.336763    0.002537    0.000000
    74  O2    c     0.759023    0.400527    0.665869    0.000000
    75  O2    c     0.659146    0.228455    0.335654    0.000000
    76  O2    c     0.420571    0.645392    0.501510    0.000000
    77  O2    c     0.247099    0.575240    0.167011    0.000000
    78  O2    c     0.340157    0.743495    0.833598    0.000000
    79  O2    c     0.117548    0.205241    0.973825    0.000000
    80  O2    c     0.785654    0.902914    0.310068    0.000000
    81  O2    c     0.085306    0.856938    0.639924    0.000000
    82  O2    c     0.875385    0.774889    0.473372    0.000000
    83  O2    c     0.213128    0.069365    0.805167    0.000000
    84  O2    c     0.917913    0.127193    0.140529    0.000000
    85  O2    c     0.214267    0.116423    0.362690    0.000000
    86  O2    c     0.911159    0.782743    0.029768    0.000000
    87  O2    c     0.874513    0.066779    0.694459    0.000000
    88  O3    c     0.803215    0.864964    0.862577    0.000000
    89  O2    c     0.086994    0.198492    0.528175    0.000000
    90  O3    c     0.142101    0.910309    0.192462    0.000000
    91  O3    c     0.943269    0.864955    0.256502    0.000000
    92  O2    c     0.135822    0.055861    0.585344    0.000000
    93  O2    c     0.925758    0.060930    0.918611    0.000000
    94  O2    c     0.067437    0.125072    0.752075    0.000000
    95  O2    c     0.875163    0.932829    0.086636    0.000000
    96  O2    c     0.078133    0.923790    0.420033    0.000000
    97  O2    c     0.897718    0.199579    0.980670    0.000000
    98  O2    c     0.796526    0.689373    0.315030    0.000000
    99  O2    c     0.301542    0.077451    0.645877    0.000000
   100  O2    c     0.097554    0.781297    0.481298    0.000000
   101  O2    c     0.216012    0.288813    0.813363    0.000000
   102  O2    c     0.706787    0.899021    0.149169    0.000000
   103  O2    c     0.202819    0.892254    0.353697    0.000000
   104  O2    c     0.699158    0.801612    0.026893    0.000000
   105  O2    c     0.095910    0.283420    0.687523    0.000000
   106  O2    c     0.793563    0.077178    0.853117    0.000000
   107  O2    c     0.301222    0.189608    0.521836    0.000000
   108  O3    c     0.902312    0.685336    0.189521    0.000000
   109  O2    c     0.327465    0.637554    0.251038    0.000000
   110  O2    c     0.352935    0.659693    0.584438    0.000000
   111  O2    c     0.328492    0.661567    0.918059    0.000000
   112  O2    c     0.676727    0.332368    0.748118    0.000000
   113  O2    c     0.649810    0.321808    0.085430    0.000000
   114  O2    c     0.677244    0.311605    0.418133    0.000000
   115  O3    c     0.363734    0.308031    0.974574    0.000000
   116  O2    c     0.669823    0.034218    0.306866    0.000000
   117  O2    c     0.954266    0.608695    0.638321    0.000000
   118  O2    c     0.626361    0.657746    0.472261    0.000000
   119  O2    c     0.330065    0.937963    0.803981    0.000000
   120  O2    c     0.051066    0.372578    0.138145    0.000000
   121  O2    c     0.330089    0.364723    0.364534    0.000000
   122  O2    c     0.046196    0.668020    0.030763    0.000000
   123  O2    c     0.624936    0.933698    0.696147    0.000000
   124  O3    c     0.683957    0.604949    0.865246    0.000000
   125  O2    c     0.955363    0.315026    0.529877    0.000000
   126  O2    c     0.384971    0.040558    0.197624    0.000000
   127  O2    c     0.772576    0.302374    0.013116    0.000000
   128  O2    c     0.696716    0.457137    0.345572    0.000000
   129  O2    c     0.531781    0.208133    0.676297    0.000000
   130  O2    c     0.228992    0.681542    0.512078    0.000000
   131  O2    c     0.310154    0.516516    0.847706    0.000000
   132  O2    c     0.476458    0.765119    0.179376    0.000000
   133  O2    c     0.303842    0.761874    0.323278    0.000000
   134  O2    c     0.468530    0.688128    0.990532    0.000000
   135  O2    c     0.226864    0.514012    0.656912    0.000000
   136  O2    c     0.693822    0.206637    0.821431    0.000000
   137  O2    c     0.532591    0.290918    0.490952    0.000000
   138  O2    c     0.776550    0.462278    0.157556    0.000000
   139  O2    c     0.788130    0.532476    0.030111    0.000000
   140  O2    c     0.465409    0.240994    0.363158    0.000000
   141  O2    c     0.747323    0.191806    0.693441    0.000000
   142  O2    c     0.214045    0.449874    0.529041    0.000000
   143  O3    c     0.532924    0.727109    0.864587    0.000000
   144  O2    c     0.260590    0.780195    0.195087    0.000000
   145  O2    c     0.535472    0.775250    0.307513    0.000000
   146  O2    c     0.260665    0.457639    0.972285    0.000000
   147  O2    c     0.213072    0.732043    0.639793    0.000000
   148  O2    c     0.464526    0.197012    0.803785    0.000000
   149  O2    c     0.750309    0.522825    0.473577    0.000000
   150  O2    c     0.790768    0.248360    0.139077    0.000000
   151  O2    c     0.242259    0.312493    0.900069    0.000000
   152  O2    c     0.681828    0.900621    0.234381    0.000000
   153  O2    c     0.089464    0.751377    0.565827    0.000000
   154  O2    c     0.767926    0.665540    0.399528    0.000000
   155  O2    c     0.322320    0.071160    0.730618    0.000000
   156  O2    c     0.915030    0.231716    0.065427    0.000000
   157  O2    c     0.323126    0.221300    0.437079    0.000000
   158  O2    c     0.913932    0.675183    0.104395    0.000000
   159  O2    c     0.766597    0.069220    0.768072    0.000000
   160  O3    c     0.686256    0.757143    0.943124    0.000000
   161  O2    c     0.089524    0.306135    0.602624    0.000000
   162  O2    c     0.234112    0.899837    0.268593    0.000000
   163  O3    c     0.597123    0.560184    0.002235    0.000000
   164  O2    c     0.440597    0.021175    0.324687    0.000000
   165  O2    c     0.968367    0.393709    0.657902    0.000000
   166  O2    c     0.411956    0.428766    0.492334    0.000000
   167  O2    c     0.558178    0.947741    0.823506    0.000000
   168  O2    c     0.037966    0.586601    0.158909    0.000000
   169  O2    c     0.558479    0.577392    0.344339    0.000000
   170  O2    c     0.031189    0.438485    0.009989    0.000000
   171  O2    c     0.412009    0.950391    0.675827    0.000000
   172  O2    c     0.451823    0.403454    0.846542    0.000000
   173  O2    c     0.970989    0.543781    0.510024    0.000000
   174  O2    c     0.598040    0.025723    0.178815    0.000000
   175  O2    c     0.589915    0.161073    0.252161    0.000000
   176  O2    c     0.833283    0.401752    0.583496    0.000000
   177  O3    c     0.598473    0.394426    0.915466    0.000000
   178  O2    c     0.415090    0.812953    0.750080    0.000000
   179  O2    c     0.172829    0.581512    0.083931    0.000000
   180  O2    c     0.417469    0.572323    0.418222    0.000000
   181  F     c     0.457540    0.897965    0.251918    0.000000
   182  F     c     0.093548    0.531232    0.584810    0.000000
   183  F     c     0.484725    0.520700    0.927313    0.000000
   184  F     c     0.544900    0.072454    0.750012    0.000000
   185  F     c     0.917230    0.455917    0.085328    0.000000
   186  F     c     0.548520    0.441570    0.418802    0.000000
   187  O2    s     0.922925    0.995974    0.002150    0.000000
   188  O2    s     0.997596    0.916123    0.339249    0.000000
   189  O2    s     0.077436    0.057613    0.669324    0.000000
   190  O2    s     0.074195    0.984607    0.502786    0.000000
   191  O2    s     0.009583    0.070155    0.836308    0.000000
   192  O3    s     0.935681    0.936341    0.168990    0.000000
   193  O2    s     0.352814    0.577958    0.334690    0.000000
   194  O2    s     0.411003    0.744894    0.667164    0.000000
   195  O2    s     0.234748    0.639962    0.000502    0.000000
   196  O2    s     0.652120    0.392986    0.830043    0.000000
   197  O2    s     0.594147    0.230846    0.168582    0.000000
   198  O2    s     0.764986    0.338994    0.500574    0.000000
   199  O3    s     0.590275    0.346934    0.003459    0.000000
   200  O2    s     0.763410    0.392931    0.665967    0.000000
   201  O2    s     0.647422    0.224534    0.335643    0.000000
   202  O2    s     0.412850    0.633531    0.501549    0.000000
   203  O2    s     0.243014    0.582890    0.167222    0.000000
   204  O2    s     0.352020    0.747594    0.833754    0.000000
   205  O2    s     0.115211    0.208348    0.971239    0.000000
   206  O2    s     0.782558    0.896489    0.307311    0.000000
   207  O2    s     0.092272    0.860349    0.637398    0.000000
   208  O2    s     0.878751    0.771446    0.470966    0.000000
   209  O2    s     0.216951    0.076669    0.802733    0.000000
   210  O2    s     0.911483    0.123968    0.137886    0.000000
   211  O2    s     0.217695    0.113161    0.365365    0.000000
   212  O2    s     0.905158    0.779858    0.032481    0.000000
   213  O2    s     0.877647    0.073704    0.697082    0.000000
   214  O3    s     0.801225    0.870503    0.864852    0.000000
   215  O2    s     0.093735    0.201889    0.530887    0.000000
   216  O3    s     0.140813    0.904656    0.195438    0.000000
   217  O3    s     0.939463    0.860847    0.257054    0.000000
   218  O2    s     0.138979    0.056555    0.585279    0.000000
   219  O2    s     0.925349    0.062076    0.918558    0.000000
   220  O2    s     0.069746    0.127374    0.751933    0.000000
   221  O2    s     0.870644    0.931079    0.086446    0.000000
   222  O2    s     0.077696    0.921442    0.419888    0.000000
   223  O2    s     0.905572    0.200555    0.983261    0.000000
   224  O2    s     0.795048    0.695253    0.317867    0.000000
   225  O2    s     0.295295    0.070209    0.648699    0.000000
   226  O2    s     0.090079    0.779993    0.483994    0.000000
   227  O2    s     0.216287    0.282605    0.816225    0.000000
   228  O2    s     0.712655    0.906832    0.151807    0.000000
   229  O2    s     0.204536    0.900058    0.351386    0.000000
   230  O2    s     0.706013    0.798802    0.024265    0.000000
   231  O2    s     0.088502    0.277163    0.684990    0.000000
   232  O2    s     0.792757    0.070512    0.850541    0.000000
   233  O2    s     0.294956    0.190972    0.519283    0.000000
   234  O3    s     0.909491    0.690300    0.186811    0.000000
   235  O2    s     0.333210    0.649112    0.251059    0.000000
   236  O2    s     0.341268    0.653932    0.584443    0.000000
   237  O2    s     0.333446    0.656566    0.918050    0.000000
   238  O2    s     0.670764    0.320652    0.748117    0.000000
   239  O2    s     0.660781    0.326994    0.085603    0.000000
   240  O2    s     0.671330    0.317520    0.418163    0.000000
   241  O3    s     0.363108    0.317590    0.971866    0.000000
   242  O2    s     0.659950    0.027633    0.304526    0.000000
   243  O2    s     0.961077    0.605461    0.635999    0.000000
   244  O2    s     0.623172    0.647785    0.469985    0.000000
   245  O2    s     0.340023    0.944508    0.801623    0.000000
   246  O2    s     0.044407    0.376160    0.135888    0.000000
   247  O2    s     0.340054    0.367881    0.366719    0.000000
   248  O2    s     0.039581    0.657678    0.033029    0.000000
   249  O2    s     0.621731    0.940592    0.698301    0.000000
   250  O3    s     0.674595    0.600777    0.867079    0.000000
   251  O2    s     0.962076    0.324998    0.532104    0.000000
   252  O2    s     0.388406    0.033723    0.199782    0.000000
   253  O2    s     0.779962    0.309413    0.015902    0.000000
   254  O2    s     0.689087    0.456561    0.348697    0.000000
   255  O2    s     0.532417    0.201119    0.679414    0.000000
   256  O2    s     0.221882    0.673762    0.515158    0.000000
   257  O2    s     0.317394    0.517456    0.850308    0.000000
   258  O2    s     0.475488    0.771955    0.182427    0.000000
   259  O2    s     0.311527    0.768816    0.320214    0.000000
   260  O2    s     0.467354    0.680622    0.988287    0.000000
   261  O2    s     0.219893    0.514691    0.653758    0.000000
   262  O2    s     0.686513    0.199676    0.818252    0.000000
   263  O2    s     0.533087    0.298548    0.487824    0.000000
   264  O2    s     0.783392    0.461617    0.154368    0.000000
   265  O2    s     0.793237    0.530506    0.032632    0.000000
   266  O2    s     0.468057    0.248792    0.365761    0.000000
   267  O2    s     0.739722    0.186914    0.696085    0.000000
   268  O2    s     0.208863    0.452519    0.531624    0.000000
   269  O3    s     0.528468    0.720664    0.866612    0.000000
   270  O2    s     0.268453    0.785010    0.197720    0.000000
   271  O2    s     0.532757    0.780593    0.304880    0.000000
   272  O2    s     0.266542    0.460476    0.970259    0.000000
   273  O2    s     0.207868    0.724147    0.637169    0.000000
   274  O2    s     0.467077    0.191364    0.801232    0.000000
   275  O2    s     0.742376    0.520213    0.470944    0.000000
   276  O2    s     0.795952    0.256516    0.136542    0.000000
   277  O2    s     0.250225    0.321051    0.900587    0.000000
   278  O2    s     0.672185    0.900602    0.235196    0.000000
   279  O2    s     0.089796    0.742009    0.566770    0.000000
   280  O2    s     0.758612    0.655991    0.400480    0.000000
   281  O2    s     0.331992    0.071476    0.731574    0.000000
   282  O2    s     0.914303    0.241005    0.066330    0.000000
   283  O2    s     0.332761    0.230647    0.436220    0.000000
   284  O2    s     0.913438    0.665369    0.103415    0.000000
   285  O2    s     0.757184    0.069451    0.767161    0.000000
   286  O3    s     0.677675    0.749079    0.942512    0.000000
   287  O2    s     0.089777    0.315867    0.601774    0.000000
   288  O2    s     0.244016    0.900043    0.267977    0.000000
   289  O3    s     0.593548    0.565329    0.998496    0.000000
   290  O2    s     0.440665    0.016196    0.321433    0.000000
   291  O2    s     0.973529    0.398553    0.654483    0.000000
   292  O2    s     0.416644    0.428409    0.488948    0.000000
   293  O2    s     0.558155    0.952988    0.820153    0.000000
   294  O2    s     0.032815    0.581471    0.155515    0.000000
   295  O2    s     0.558701    0.572828    0.347690    0.000000
   296  O2    s     0.026157    0.438312    0.013437    0.000000
   297  O2    s     0.416583    0.955243    0.679202    0.000000
   298  O2    s     0.450128    0.405677    0.849238    0.000000
   299  O2    s     0.975680    0.543879    0.513428    0.000000
   300  O2    s     0.593053    0.020686    0.182104    0.000000
   301  O2    s     0.584139    0.149926    0.252139    0.000000
   302  O2    s     0.844347    0.407166    0.583510    0.000000
   303  O3    s     0.593713    0.401942    0.913740    0.000000
   304  O2    s     0.420771    0.824151    0.750092    0.000000
   305  O2    s     0.161370    0.575796    0.084028    0.000000
   306  O2    s     0.422915    0.566771    0.418192    0.000000
   307  F     s     0.457402    0.897650    0.251954    0.000000
   308  F     s     0.093823    0.531408    0.584894    0.000000
   309  F     s     0.488836    0.515656    0.929551    0.000000
   310  F     s     0.544874    0.072582    0.750103    0.000000
   311  F     s     0.917939    0.456401    0.085414    0.000000
   312  F     s     0.548790    0.441401    0.418868    0.000000
--------------------------------------------------------------------------------

  Final Cartesian lattice vectors (Angstroms) :

       11.967268    0.006104    0.008989
       -5.950350   10.383889   -0.000905
       -0.027451    0.157178   29.476335


  Final cell parameters and derivatives :

--------------------------------------------------------------------------------
       a           11.967273 Angstrom     dE/de1(xx)     0.000103 eV/strain
       b           11.967949 Angstrom     dE/de2(yy)     0.000201 eV/strain
       c           29.476767 Angstrom     dE/de3(zz)    -0.000871 eV/strain
       alpha       89.712726 Degrees      dE/de4(yz)     0.000107 eV/strain
       beta        90.010165 Degrees      dE/de5(xz)    -0.000048 eV/strain
       gamma      119.785066 Degrees      dE/de6(xy)     0.000463 eV/strain
--------------------------------------------------------------------------------

  Primitive cell volume =          3663.995624 Angs**3

  Density of cell =      1.746206 g/cm**3

  Non-primitive cell volume =          3663.995624 Angs**3


  Final internal derivatives :

--------------------------------------------------------------------------------
   No.  Atomic          a             b             c           Radius
        Label          (eV)          (eV)          (eV)        (eV/Angs)
--------------------------------------------------------------------------------
      1 Si    c       0.000000      0.000000      0.000000      0.000000
      2 Si    c       0.000067     -0.000073      0.000186      0.000000
      3 Si    c      -0.000016     -0.000199      0.000089      0.000000
      4 Si    c       0.000001     -0.000035      0.000036      0.000000
      5 Si    c       0.000027     -0.000160     -0.000738      0.000000
      6 Si    c      -0.000107      0.000007     -0.000053      0.000000
      7 Si    c      -0.000164      0.000120      0.000361      0.000000
      8 Si    c       0.000208     -0.000276      0.000477      0.000000
      9 Si    c      -0.000046     -0.000029     -0.000066      0.000000
     10 Si    c      -0.000059      0.000045     -0.000001      0.000000
     11 Si    c      -0.000011      0.000034     -0.000070      0.000000
     12 Si    c       0.000589     -0.000232      0.000834      0.000000
     13 Ge    c      -0.001636      0.002493     -0.004040      0.000000
     14 Si    c       0.000053     -0.000026      0.000249      0.000000
     15 Si    c       0.000041      0.000007      0.000030      0.000000
     16 Si    c      -0.000092      0.000008     -0.000110      0.000000
     17 Si    c      -0.000018      0.000038     -0.000095      0.000000
     18 Si    c      -0.000006     -0.000250     -0.000034      0.000000
     19 Si    c      -0.000062      0.000071      0.000156      0.000000
     20 Si    c      -0.000194     -0.000208     -0.000254      0.000000
     21 Si    c       0.000005      0.000034     -0.000080      0.000000
     22 Si    c      -0.000777      0.001059      0.000683      0.000000
     23 Si    c       0.000025      0.000028      0.000156      0.000000
     24 Si    c       0.000096     -0.000094     -0.000368      0.000000
     25 Si    c       0.000322     -0.000116     -0.000222      0.000000
     26 Si    c       0.000099      0.000241      0.000383      0.000000
     27 Si    c      -0.000000     -0.000008     -0.000125      0.000000
     28 Si    c      -0.000099      0.000021      0.000292      0.000000
     29 Si    c       0.000040     -0.000029      0.000179      0.000000
     30 Si    c       0.000144      0.000147     -0.000486      0.000000
     31 Si    c      -0.000042     -0.000003      0.000054      0.000000
     32 Si    c       0.000032      0.000055      0.000044      0.000000
     33 Si    c       0.000051     -0.000146     -0.000155      0.000000
     34 Si    c       0.000068     -0.000182     -0.000613      0.000000
     35 Si    c      -0.000015      0.000001      0.000060      0.000000
     36 Si    c      -0.000138      0.000010      0.000407      0.000000
     37 Si    c       0.000108      0.000044      0.000679      0.000000
     38 Si    c      -0.000097      0.000230     -0.000090      0.000000
     39 Si    c       0.000011     -0.000029      0.000156      0.000000
     40 Si    c       0.000017      0.000047      0.000100      0.000000
     41 Si    c       0.000048     -0.000051     -0.000122      0.000000
     42 Si    c      -0.000071      0.000222      0.000695      0.000000
     43 Si    c      -0.000005      0.000043      0.000163      0.000000
     44 Si    c      -0.000088      0.000223      0.000137      0.000000
     45 Si    c      -0.000128      0.000060      0.000218      0.000000
     46 Ge    c       0.000318     -0.000755      0.000886      0.000000
     47 Si    c      -0.000008      0.000017      0.000032      0.000000
     48 Si    c       0.000532     -0.000388      0.000059      0.000000
     49 Si    c      -0.000446     -0.000226      0.000239      0.000000
     50 Si    c       0.001031      0.000329     -0.001559      0.000000
     51 Si    c       0.000032     -0.000042     -0.000066      0.000000
     52 Si    c      -0.000007      0.000196     -0.000973      0.000000
     53 Si    c      -0.000255      0.000069      0.000306      0.000000
     54 Si    c       0.003547     -0.002155      0.006808      0.000000
     55 Si    c      -0.000611     -0.000137     -0.000126      0.000000
     56 Si    c       0.000610      0.000233      0.003984      0.000000
     57 Si    c       0.000076     -0.000038     -0.000007      0.000000
     58 Si    c       0.000382     -0.000148     -0.004206      0.000000
     59 Si    c       0.000004     -0.000039     -0.000072      0.000000
     60 Ge    c      -0.003514      0.004001      0.000950      0.000000
     61 O2    c       0.000259      0.000550     -0.001923      0.000000
     62 O2    c       0.000516     -0.000394     -0.000411      0.000000
     63 O2    c      -0.000058      0.000031      0.000183      0.000000
     64 O2    c       0.000004      0.000041      0.000148      0.000000
     65 O2    c      -0.000153      0.000047      0.000466      0.000000
     66 O3    c      -0.001452     -0.002331     -0.006870      0.000000
     67 O2    c       0.000095     -0.000145      0.000255      0.000000
     68 O2    c       0.000016     -0.000020      0.000026      0.000000
     69 O2    c      -0.000187      0.000212      0.000343      0.000000
     70 O2    c       0.000477     -0.000395     -0.000952      0.000000
     71 O2    c      -0.000042     -0.000042      0.000156      0.000000
     72 O2    c       0.000010     -0.000024      0.000063      0.000000
     73 O3    c      -0.001905      0.000198     -0.003324      0.000000
     74 O2    c      -0.000002      0.000030     -0.000226      0.000000
     75 O2    c       0.000026     -0.000119     -0.000265      0.000000
     76 O2    c       0.000021     -0.000019     -0.000035      0.000000
     77 O2    c      -0.000006     -0.000063     -0.000225      0.000000
     78 O2    c      -0.000303      0.000333     -0.000704      0.000000
     79 O2    c       0.000218     -0.000027      0.000175      0.000000
     80 O2    c       0.000320     -0.000337      0.000333      0.000000
     81 O2    c      -0.000008     -0.000019      0.000145      0.000000
     82 O2    c       0.000029     -0.000014      0.000163      0.000000
     83 O2    c       0.000225     -0.000243      0.000183      0.000000
     84 O2    c      -0.000131     -0.000639     -0.000161      0.000000
     85 O2    c       0.000011      0.000035     -0.000038      0.000000
     86 O2    c      -0.000239      0.000125      0.000041      0.000000
     87 O2    c       0.000009     -0.000062     -0.000128      0.000000
     88 O3    c       0.000499     -0.000692     -0.001077      0.000000
     89 O2    c       0.000014     -0.000010     -0.000041      0.000000
     90 O3    c      -0.000157      0.000035     -0.000822      0.000000
     91 O3    c       0.000183     -0.000564     -0.005243      0.000000
     92 O2    c       0.000002     -0.000001      0.000114      0.000000
     93 O2    c       0.000564      0.000613      0.008893      0.000000
     94 O2    c       0.000007     -0.000006      0.000205      0.000000
     95 O2    c      -0.001010      0.000170     -0.002158      0.000000
     96 O2    c       0.000073     -0.000027     -0.000326      0.000000
     97 O2    c       0.000163     -0.000211      0.000156      0.000000
     98 O2    c      -0.000119      0.000122      0.000464      0.000000
     99 O2    c       0.000027     -0.000032      0.000019      0.000000
    100 O2    c       0.000009     -0.000019      0.000130      0.000000
    101 O2    c       0.000078      0.000068      0.000059      0.000000
    102 O2    c      -0.000133      0.000124     -0.000085      0.000000
    103 O2    c      -0.000297      0.000335      0.000140      0.000000
    104 O2    c      -0.001063     -0.000029     -0.000530      0.000000
    105 O2    c      -0.000004     -0.000028     -0.000031      0.000000
    106 O2    c      -0.000874      0.000721     -0.000522      0.000000
    107 O2    c      -0.000006     -0.000020      0.000021      0.000000
    108 O3    c       0.000342      0.000389     -0.001064      0.000000
    109 O2    c      -0.000002     -0.000086     -0.000113      0.000000
    110 O2    c      -0.000005     -0.000014     -0.000044      0.000000
    111 O2    c      -0.000246      0.000265      0.000321      0.000000
    112 O2    c       0.000027     -0.000003     -0.000264      0.000000
    113 O2    c      -0.000413      0.000086     -0.000115      0.000000
    114 O2    c      -0.000013      0.000006      0.000091      0.000000
    115 O3    c       0.000143      0.000064      0.000147      0.000000
    116 O2    c       0.000034     -0.000062     -0.000109      0.000000
    117 O2    c      -0.000001     -0.000017      0.000186      0.000000
    118 O2    c       0.000046      0.000007     -0.000012      0.000000
    119 O2    c      -0.000026      0.000011      0.000068      0.000000
    120 O2    c      -0.000066      0.000070     -0.000139      0.000000
    121 O2    c      -0.000018      0.000040     -0.000016      0.000000
    122 O2    c       0.000071      0.000041     -0.000007      0.000000
    123 O2    c      -0.000002     -0.000035     -0.000031      0.000000
    124 O3    c      -0.000031      0.000053      0.000517      0.000000
    125 O2    c       0.000041     -0.000029      0.000160      0.000000
    126 O2    c       0.000059     -0.000012     -0.000191      0.000000
    127 O2    c      -0.000177     -0.000019     -0.000311      0.000000
    128 O2    c       0.000021     -0.000061     -0.000038      0.000000
    129 O2    c       0.000030     -0.000032      0.000070      0.000000
    130 O2    c       0.000010      0.000004      0.000022      0.000000
    131 O2    c       0.000028     -0.000055      0.000026      0.000000
    132 O2    c      -0.000065     -0.000132     -0.000267      0.000000
    133 O2    c       0.000093     -0.000140     -0.000097      0.000000
    134 O2    c      -0.000023      0.000018      0.000371      0.000000
    135 O2    c      -0.000010     -0.000014      0.000051      0.000000
    136 O2    c       0.000097     -0.000092      0.000295      0.000000
    137 O2    c      -0.000004     -0.000018      0.000120      0.000000
    138 O2    c       0.000003      0.000114      0.000192      0.000000
    139 O2    c      -0.000468      0.000348     -0.000476      0.000000
    140 O2    c      -0.000041     -0.000023      0.000013      0.000000
    141 O2    c      -0.000041     -0.000015      0.000099      0.000000
    142 O2    c       0.000002      0.000014     -0.000078      0.000000
    143 O3    c      -0.000346      0.000211     -0.000822      0.000000
    144 O2    c       0.000033     -0.000027      0.000008      0.000000
    145 O2    c       0.000012     -0.000078      0.000135      0.000000
    146 O2    c      -0.000097      0.000073     -0.000095      0.000000
    147 O2    c      -0.000014     -0.000013     -0.000097      0.000000
    148 O2    c      -0.000157      0.000027      0.000294      0.000000
    149 O2    c       0.000013     -0.000020      0.000043      0.000000
    150 O2    c       0.000122     -0.000074     -0.000175      0.000000
    151 O2    c       0.000000     -0.000116     -0.000704      0.000000
    152 O2    c       0.000093      0.000012      0.000023      0.000000
    153 O2    c      -0.000033      0.000049      0.000218      0.000000
    154 O2    c       0.000004      0.000058      0.000296      0.000000
    155 O2    c       0.000030     -0.000032      0.000050      0.000000
    156 O2    c       0.000256     -0.000410      0.000104      0.000000
    157 O2    c       0.000012      0.000010      0.000024      0.000000
    158 O2    c      -0.000235      0.000358     -0.000326      0.000000
    159 O2    c       0.000011     -0.000047     -0.000195      0.000000
    160 O3    c       0.000134      0.000024      0.000816      0.000000
    161 O2    c       0.000011     -0.000012     -0.000019      0.000000
    162 O2    c      -0.000094     -0.000021      0.000260      0.000000
    163 O3    c       0.000622     -0.000789      0.000485      0.000000
    164 O2    c       0.000013     -0.000009      0.000135      0.000000
    165 O2    c       0.000010     -0.000014      0.000050      0.000000
    166 O2    c      -0.000003      0.000012      0.000098      0.000000
    167 O2    c       0.000104     -0.000024      0.000321      0.000000
    168 O2    c      -0.000108      0.000103      0.000198      0.000000
    169 O2    c      -0.000048      0.000024      0.000032      0.000000
    170 O2    c      -0.000103     -0.000125     -0.000053      0.000000
    171 O2    c       0.000031     -0.000033      0.000018      0.000000
    172 O2    c       0.000067      0.000025      0.000237      0.000000
    173 O2    c      -0.000006     -0.000009      0.000005      0.000000
    174 O2    c       0.000042     -0.000015     -0.000111      0.000000
    175 O2    c       0.000033      0.000038      0.000171      0.000000
    176 O2    c       0.000003      0.000000      0.000003      0.000000
    177 O3    c      -0.000051      0.000036      0.000953      0.000000
    178 O2    c       0.000009     -0.000034     -0.000076      0.000000
    179 O2    c       0.000199     -0.000108      0.000516      0.000000
    180 O2    c       0.000040     -0.000035      0.000011      0.000000
    181 F     c      -0.000000      0.000047     -0.000026      0.000000
    182 F     c      -0.000009      0.000013     -0.000046      0.000000
    183 F     c       0.000448     -0.000208      0.000308      0.000000
    184 F     c      -0.000022      0.000039      0.000213      0.000000
    185 F     c      -0.000033     -0.000097     -0.000323      0.000000
    186 F     c       0.000028     -0.000019     -0.000015      0.000000
    187 O2    s       0.000439     -0.000090      0.002209      0.000000
    188 O2    s      -0.000353     -0.000054     -0.000124      0.000000
    189 O2    s       0.000041     -0.000039     -0.000121      0.000000
    190 O2    s      -0.000043     -0.000057     -0.000139      0.000000
    191 O2    s       0.000433     -0.000050     -0.000830      0.000000
    192 O3    s       0.000801      0.000410      0.001099      0.000000
    193 O2    s      -0.000033     -0.000022     -0.000010      0.000000
    194 O2    s      -0.000007     -0.000027      0.000072      0.000000
    195 O2    s      -0.000002      0.000041     -0.000075      0.000000
    196 O2    s      -0.000082     -0.000062      0.000074      0.000000
    197 O2    s      -0.000096      0.000058      0.000289      0.000000
    198 O2    s       0.000019      0.000018     -0.000120      0.000000
    199 O3    s       0.000823     -0.000191      0.001426      0.000000
    200 O2    s       0.000001     -0.000011      0.000192      0.000000
    201 O2    s      -0.000017      0.000032      0.000042      0.000000
    202 O2    s      -0.000008     -0.000004      0.000048      0.000000
    203 O2    s       0.000028      0.000023      0.000002      0.000000
    204 O2    s       0.000248     -0.000152      0.000434      0.000000
    205 O2    s      -0.000186     -0.000039     -0.000088      0.000000
    206 O2    s       0.000698     -0.000298     -0.000845      0.000000
    207 O2    s       0.000001     -0.000021     -0.000233      0.000000
    208 O2    s       0.000123     -0.000016     -0.000290      0.000000
    209 O2    s       0.000048     -0.000121     -0.000279      0.000000
    210 O2    s       0.001011     -0.001301     -0.000548      0.000000
    211 O2    s      -0.000053     -0.000172      0.000237      0.000000
    212 O2    s       0.000024      0.000112      0.000710      0.000000
    213 O2    s      -0.000001     -0.000009      0.000022      0.000000
    214 O3    s       0.000196     -0.000842     -0.000502      0.000000
    215 O2    s       0.000004     -0.000013      0.000082      0.000000
    216 O3    s      -0.000853      0.000535      0.000994      0.000000
    217 O3    s      -0.000430     -0.000165      0.001703      0.000000
    218 O2    s      -0.000034     -0.000009     -0.000144      0.000000
    219 O2    s       0.000029      0.000107     -0.000898      0.000000
    220 O2    s      -0.000027      0.000045     -0.000244      0.000000
    221 O2    s       0.000408      0.001033      0.003678      0.000000
    222 O2    s       0.000050     -0.000075     -0.000848      0.000000
    223 O2    s       0.000199     -0.000279     -0.000889      0.000000
    224 O2    s       0.000496      0.000114     -0.001403      0.000000
    225 O2    s       0.000023     -0.000049      0.000001      0.000000
    226 O2    s      -0.000089      0.000079     -0.000370      0.000000
    227 O2    s       0.000030      0.000100     -0.000302      0.000000
    228 O2    s       0.000864     -0.000381     -0.001023      0.000000
    229 O2    s      -0.000288      0.000122      0.000518      0.000000
    230 O2    s       0.000180     -0.000066      0.000555      0.000000
    231 O2    s      -0.000015      0.000023      0.000043      0.000000
    232 O2    s      -0.000491      0.000748     -0.000919      0.000000
    233 O2    s      -0.000016     -0.000003     -0.000026      0.000000
    234 O3    s      -0.000802      0.001075      0.002733      0.000000
    235 O2    s       0.000039     -0.000007     -0.000029      0.000000
    236 O2    s       0.000012     -0.000028      0.000062      0.000000
    237 O2    s       0.000364     -0.000342     -0.000464      0.000000
    238 O2    s      -0.000079     -0.000156      0.000525      0.000000
    239 O2    s       0.000001      0.000074     -0.000572      0.000000
    240 O2    s       0.000012     -0.000015     -0.000073      0.000000
    241 O3    s       0.000122     -0.000023     -0.000406      0.000000
    242 O2    s      -0.000033      0.000069      0.000235      0.000000
    243 O2    s      -0.000008      0.000007     -0.000214      0.000000
    244 O2    s      -0.000002     -0.000031      0.000062      0.000000
    245 O2    s       0.000077     -0.000099     -0.000065      0.000000
    246 O2    s       0.000231     -0.000182      0.000419      0.000000
    247 O2    s       0.000031     -0.000034     -0.000028      0.000000
    248 O2    s      -0.000026     -0.000037      0.000333      0.000000
    249 O2    s       0.000004     -0.000114     -0.000012      0.000000
    250 O3    s       0.000276      0.000153     -0.001323      0.000000
    251 O2    s      -0.000015      0.000017     -0.000225      0.000000
    252 O2    s      -0.000114      0.000100      0.000310      0.000000
    253 O2    s      -0.000321      0.000260      0.000319      0.000000
    254 O2    s      -0.000017      0.000102     -0.000024      0.000000
    255 O2    s      -0.000059      0.000056     -0.000181      0.000000
    256 O2    s      -0.000053      0.000020      0.000011      0.000000
    257 O2    s       0.000007      0.000132      0.000272      0.000000
    258 O2    s       0.000077      0.000030      0.000117      0.000000
    259 O2    s      -0.000041      0.000034      0.000270      0.000000
    260 O2    s      -0.000125      0.000088     -0.000155      0.000000
    261 O2    s       0.000010     -0.000018     -0.000045      0.000000
    262 O2    s      -0.000133      0.000030     -0.000482      0.000000
    263 O2    s       0.000013      0.000007     -0.000167      0.000000
    264 O2    s      -0.000252      0.000264      0.001068      0.000000
    265 O2    s       0.000662     -0.000819      0.000602      0.000000
    266 O2    s      -0.000036      0.000052     -0.000071      0.000000
    267 O2    s       0.000068     -0.000019     -0.000206      0.000000
    268 O2    s       0.000005     -0.000035      0.000060      0.000000
    269 O3    s      -0.000041     -0.000285      0.000659      0.000000
    270 O2    s      -0.000031      0.000101     -0.000229      0.000000
    271 O2    s       0.000044      0.000016      0.000096      0.000000
    272 O2    s       0.000111     -0.000137      0.000286      0.000000
    273 O2    s       0.000002     -0.000020      0.000154      0.000000
    274 O2    s       0.000334     -0.000148     -0.000608      0.000000
    275 O2    s      -0.000014     -0.000007     -0.000105      0.000000
    276 O2    s       0.000177     -0.000294      0.000225      0.000000
    277 O2    s      -0.000022      0.000020      0.000312      0.000000
    278 O2    s      -0.000138     -0.000096     -0.000017      0.000000
    279 O2    s       0.000028     -0.000080     -0.000208      0.000000
    280 O2    s       0.000026     -0.000154     -0.000333      0.000000
    281 O2    s      -0.000048     -0.000004      0.000013      0.000000
    282 O2    s      -0.000195      0.000413      0.000668      0.000000
    283 O2    s      -0.000023      0.000003     -0.000077      0.000000
    284 O2    s       0.000598     -0.000940     -0.000322      0.000000
    285 O2    s      -0.000034      0.000004      0.000306      0.000000
    286 O3    s      -0.000224      0.000320     -0.000641      0.000000
    287 O2    s       0.000008     -0.000007      0.000016      0.000000
    288 O2    s       0.000087      0.000169     -0.000407      0.000000
    289 O3    s      -0.000668      0.000473     -0.000163      0.000000
    290 O2    s      -0.000008      0.000074     -0.000210      0.000000
    291 O2    s      -0.000003     -0.000021     -0.000038      0.000000
    292 O2    s       0.000005     -0.000041     -0.000091      0.000000
    293 O2    s      -0.000039     -0.000057     -0.000405      0.000000
    294 O2    s       0.000096      0.000082     -0.000005      0.000000
    295 O2    s       0.000096     -0.000079     -0.000133      0.000000
    296 O2    s       0.000318      0.000010     -0.000664      0.000000
    297 O2    s      -0.000014     -0.000071     -0.000015      0.000000
    298 O2    s      -0.000057     -0.000094     -0.001079      0.000000
    299 O2    s       0.000038      0.000007      0.000040      0.000000
    300 O2    s      -0.000084      0.000061      0.000152      0.000000
    301 O2    s      -0.000073     -0.000006      0.000021      0.000000
    302 O2    s       0.000036      0.000017     -0.000077      0.000000
    303 O3    s       0.000605     -0.000933      0.001040      0.000000
    304 O2    s       0.000038      0.000128      0.000210      0.000000
    305 O2    s      -0.000095      0.000214     -0.000099      0.000000
    306 O2    s      -0.000014      0.000007     -0.000029      0.000000
    307 F     s      -0.000004     -0.000077      0.000045      0.000000
    308 F     s       0.000018     -0.000027      0.000084      0.000000
    309 F     s       0.000060     -0.001201      0.002414      0.000000
    310 F     s       0.000008     -0.000202     -0.000167      0.000000
    311 F     s       0.000089      0.000432      0.000739      0.000000
    312 F     s      -0.000048      0.000023      0.000056      0.000000
--------------------------------------------------------------------------------
  Maximum abs         0.003547      0.004001      0.008893      0.000000
--------------------------------------------------------------------------------


  Time to end of optimisation =      16.9230 seconds


  Peak dynamic memory used =      19.13 MB 


  Timing analysis for GULP :

--------------------------------------------------------------------------------
  Task / Subroutine                                          Time (Seconds)
--------------------------------------------------------------------------------
  Calculation of reciprocal space energy and derivatives          0.5125
  Calculation of real space energy and derivatives               14.2133
  Calculation of three-body energy and derivatives                1.6630
  Calculation of matrix inversion                                 0.3864
--------------------------------------------------------------------------------
  Total CPU time                                                 16.9230
--------------------------------------------------------------------------------


  Dump file written as out.res                                                 
  CIF file written as out.cif                                                 


  Job Finished at 19:53.20 27th November   2016                               

