********************************************************************************
*                       GENERAL UTILITY LATTICE PROGRAM                        *
*                                 Julian Gale                                  *
*                      Nanochemistry Research Institute                        *
*                           Department of Chemistry                            *
*                    Curtin University, Western Australia                      *
********************************************************************************
* Version = 4.2.0 * Last modified =  20th January 2014                         *
********************************************************************************
*  optimise     - perform optimisation run                                     *
*  conp         - constant pressure calculation                                *
*  qok          - running with non charge neutral cell is OK                   *
********************************************************************************

  Job Started  at 14:16.14 27th November   2016                               

  Number of CPUs =     1


  Total number of configurations input =   1

********************************************************************************
*  Input for Configuration =   1                                               *
********************************************************************************

  Formula = Si57Ge3O120F6                                               

  Number of irreducible atoms/shells =     312


  Total number atoms/shells =     312

  Dimensionality = 3               :  Bulk   


  Charge on solid   =  -6.000000 =>neutralising background added


  Cartesian lattice vectors (Angstroms) :

       11.973263    0.000000    0.000000
       -5.952029   10.388470    0.000000
       -0.067502    0.054041   29.493559

  Cell parameters (Angstroms/Degrees):

  a =      11.9733    alpha =  89.8437
  b =      11.9728    beta  =  90.1311
  c =      29.4937    gamma = 119.8104

  Initial cell volume =        3668.523388 Angs**3

  Temperature of configuration =  0.000     K 

  Pressure of configuration =         0.000 GPa 

  Fractional coordinates of asymmetric unit :

--------------------------------------------------------------------------------
   No.  Atomic       x           y          z         Charge      Occupancy
        Label      (Frac)      (Frac)     (Frac)        (e)         (Frac)  
--------------------------------------------------------------------------------
      1 Si    c    0.699600    0.375700    0.033890     4.00000    1.000000    
      2 Si    c    0.619657 *  0.323270 *  0.367934 *   4.00000    1.000000    
      3 Si    c    0.676999 *  0.292314 *  0.697934 *   4.00000    1.000000    
      4 Si    c    0.298354 *  0.620234 *  0.534151 *   4.00000    1.000000    
      5 Si    c    0.379390 *  0.672360 *  0.867438 *   4.00000    1.000000    
      6 Si    c    0.327270 *  0.698796 *  0.201046 *   4.00000    1.000000    
      7 Si    c    0.377294 *  0.701931 *  0.302385 *   4.00000    1.000000    
      8 Si    c    0.327523 *  0.624183 *  0.970013 *   4.00000    1.000000    
      9 Si    c    0.296826 *  0.673784 *  0.634728 *   4.00000    1.000000    
     10 Si    c    0.622639 *  0.293149 *  0.798336 *   4.00000    1.000000    
     11 Si    c    0.675824 *  0.379029 *  0.468255 *   4.00000    1.000000    
     12 Si    c    0.705159 *  0.319393 *  0.134549 *   4.00000    1.000000    
     13 Ge    c    0.536689 *  0.433276 *  0.965560 *   4.00000    1.000000    
     14 Si    c    0.580997 *  0.112409 *  0.303055 *   4.00000    1.000000    
     15 Si    c    0.887487 *  0.468261 *  0.634080 *   4.00000    1.000000    
     16 Si    c    0.470601 *  0.582477 *  0.469307 *   4.00000    1.000000    
     17 Si    c    0.419862 *  0.883392 *  0.801129 *   4.00000    1.000000    
     18 Si    c    0.118139 *  0.528455 *  0.135451 *   4.00000    1.000000    
     19 Si    c    0.415998 *  0.530638 *  0.367737 *   4.00000    1.000000    
     20 Si    c    0.114914 *  0.583687 *  0.034514 *   4.00000    1.000000    
     21 Si    c    0.470935 *  0.882345 *  0.699583 *   4.00000    1.000000    
     22 Si    c    0.592365 *  0.463447 *  0.865837 *   4.00000    1.000000    
     23 Si    c    0.887395 *  0.416685 *  0.532526 *   4.00000    1.000000    
     24 Si    c    0.535801 *  0.112899 *  0.201119 *   4.00000    1.000000    
     25 Si    c    0.304402 *  0.390345 *  0.854636 *   4.00000    1.000000    
     26 Si    c    0.605376 *  0.901880 *  0.188247 *   4.00000    1.000000    
     27 Si    c    0.096706 *  0.696796 *  0.519497 *   4.00000    1.000000    
     28 Si    c    0.696309 *  0.601238 *  0.353523 *   4.00000    1.000000    
     29 Si    c    0.398685 *  0.091057 *  0.684662 *   4.00000    1.000000    
     30 Si    c    0.906264 *  0.305704 *  0.018533 *   4.00000    1.000000    
     31 Si    c    0.398370 *  0.301893 *  0.483472 *   4.00000    1.000000    
     32 Si    c    0.906958 *  0.595668 *  0.151656 *   4.00000    1.000000    
     33 Si    c    0.699368 *  0.092177 *  0.814697 *   4.00000    1.000000    
     34 Si    c    0.611616 *  0.706280 *  0.985511 *   4.00000    1.000000    
     35 Si    c    0.095786 *  0.396308 *  0.648799 *   4.00000    1.000000    
     36 Si    c    0.299700 *  0.903425 *  0.315687 *   4.00000    1.000000    
     37 Si    c    0.257167 *  0.337571 *  0.957224 *   4.00000    1.000000    
     38 Si    c    0.657865 *  0.909984 *  0.289323 *   4.00000    1.000000    
     39 Si    c    0.088177 *  0.746482 *  0.619972 *   4.00000    1.000000    
     40 Si    c    0.749157 *  0.660250 *  0.453981 *   4.00000    1.000000    
     41 Si    c    0.341943 *  0.084547 *  0.785312 *   4.00000    1.000000    
     42 Si    c    0.917142 *  0.252660 *  0.118293 *   4.00000    1.000000    
     43 Si    c    0.339104 *  0.251947 *  0.382934 *   4.00000    1.000000    
     44 Si    c    0.911152 *  0.656435 *  0.051384 *   4.00000    1.000000    
     45 Si    c    0.749399 *  0.083580 *  0.714147 *   4.00000    1.000000    
     46 Si    c    0.665122 *  0.743506 *  0.882408 *   4.00000    1.000000    
     47 Si    c    0.089133 *  0.339432 *  0.548246 *   4.00000    1.000000    
     48 Si    c    0.258509 *  0.910383 *  0.214469 *   4.00000    1.000000    
     49 Ge    c    0.969983 *  0.120435 *  0.968744 *   4.00000    1.000000    
     50 Si    c    0.877008 *  0.850903 *  0.304879 *   4.00000    1.000000    
     51 Si    c    0.150763 *  0.026373 *  0.634747 *   4.00000    1.000000    
     52 Si    c    0.029576 *  0.878106 *  0.469263 *   4.00000    1.000000    
     53 Si    c    0.123762 *  0.146515 *  0.801130 *   4.00000    1.000000    
     54 Si    c    0.852526 *  0.973402 *  0.136601 *   4.00000    1.000000    
     55 Si    c    0.121993 *  0.972524 *  0.368451 *   4.00000    1.000000    
     56 Si    c    0.854513 *  0.879960 *  0.036232 *   4.00000    1.000000    
     57 Si    c    0.030687 *  0.149235 *  0.699985 *   4.00000    1.000000    
     58 Si    c    0.878879 *  0.022768 *  0.865164 *   4.00000    1.000000    
     59 Si    c    0.150877 *  0.121234 *  0.533957 *   4.00000    1.000000    
     60 Ge    c    0.975167 *  0.846889 *  0.202340 *   4.00000    1.000000    
     61 O3    c    0.943350 *  0.997060 *  0.004395 *   1.33043    1.000000    
     62 O2    c    0.995384 *  0.930004 *  0.338924 *   0.87073    1.000000    
     63 O2    c    0.073373 *  0.069000 *  0.668140 *   0.87073    1.000000    
     64 O2    c    0.069674 *  0.998393 *  0.502280 *   0.87073    1.000000    
     65 O2    c    0.999841 *  0.063294 *  0.832088 *   0.87073    1.000000    
     66 O3    c    0.935384 *  0.939093 *  0.169325 *   1.33043    1.000000    
     67 O2    c    0.338634 *  0.579353 *  0.335535 *   0.87073    1.000000    
     68 O2    c    0.420201 *  0.756675 *  0.667471 *   0.87073    1.000000    
     69 O2    c    0.240670 *  0.661214 *  0.001656 *   0.87073    1.000000    
     70 O2    c    0.662832 *  0.420256 *  0.828407 *   0.87073    1.000000    
     71 O2    c    0.584316 *  0.236383 *  0.168082 *   0.87073    1.000000    
     72 O2    c    0.761856 *  0.340437 *  0.500411 *   0.87073    1.000000    
     73 O3    c    0.583842 *  0.344425 *  0.001482 *   1.33043    1.000000    
     74 O2    c    0.760269 *  0.416031 *  0.665668 *   0.87073    1.000000    
     75 O2    c    0.656758 *  0.237470 *  0.335517 *   0.87073    1.000000    
     76 O2    c    0.421651 *  0.658846 *  0.501821 *   0.87073    1.000000    
     77 O2    c    0.243967 *  0.576659 *  0.167988 *   0.87073    1.000000    
     78 O2    c    0.344195 *  0.757463 *  0.833900 *   0.87073    1.000000    
     79 O3    c    0.130543 *  0.221042 *  0.977741 *   1.33043    1.000000    
     80 O2    c    0.783327 *  0.911174 *  0.310646 *   0.87073    1.000000    
     81 O2    c    0.086769 *  0.872204 *  0.639853 *   0.87073    1.000000    
     82 O2    c    0.875372 *  0.787010 *  0.473566 *   0.87073    1.000000    
     83 O2    c    0.215250 *  0.083379 *  0.805502 *   0.87073    1.000000    
     84 O2    c    0.915504 *  0.127173 *  0.139175 *   0.87073    1.000000    
     85 O2    c    0.213100 *  0.126415 *  0.362784 *   0.87073    1.000000    
     86 O2    c    0.907215 *  0.780251 *  0.031429 *   0.87073    1.000000    
     87 O2    c    0.876302 *  0.083608 *  0.694856 *   0.87073    1.000000    
     88 O2    c    0.784804 *  0.868970 *  0.859582 *   0.87073    1.000000    
     89 O2    c    0.088555 *  0.213090 *  0.528189 *   0.87073    1.000000    
     90 O3    c    0.137286 *  0.912028 *  0.192618 *   1.33043    1.000000    
     91 O3    c    0.937493 *  0.870077 *  0.256094 *   1.33043    1.000000    
     92 O2    c    0.137540 *  0.069214 *  0.584717 *   0.87073    1.000000    
     93 O3    c    0.933203 *  0.058398 *  0.914958 *   1.33043    1.000000    
     94 O2    c    0.074604 *  0.141767 *  0.750525 *   0.87073    1.000000    
     95 O2    c    0.862989 *  0.927342 *  0.087000 *   0.87073    1.000000    
     96 O2    c    0.075542 *  0.934116 *  0.419600 *   0.87073    1.000000    
     97 O3    c    0.894729 *  0.207527 *  0.978996 *   1.33043    1.000000    
     98 O2    c    0.794600 *  0.697981 *  0.315360 *   0.87073    1.000000    
     99 O2    c    0.302245 *  0.093127 *  0.646365 *   0.87073    1.000000    
    100 O2    c    0.098578 *  0.795549 *  0.481402 *   0.87073    1.000000    
    101 O2    c    0.205559 *  0.295618 *  0.816325 *   0.87073    1.000000    
    102 O2    c    0.701809 *  0.900989 *  0.150051 *   0.87073    1.000000    
    103 O2    c    0.201098 *  0.901910 *  0.353769 *   0.87073    1.000000    
    104 O2    c    0.705713 *  0.817997 *  0.020591 *   0.87073    1.000000    
    105 O2    c    0.097534 *  0.299769 *  0.687235 *   0.87073    1.000000    
    106 O2    c    0.798195 *  0.094410 *  0.853042 *   0.87073    1.000000    
    107 O2    c    0.302078 *  0.202858 *  0.521755 *   0.87073    1.000000    
    108 O3    c    0.900039 *  0.684871 *  0.191077 *   1.33043    1.000000    
    109 O2    c    0.323732 *  0.643265 *  0.252003 *   0.87073    1.000000    
    110 O2    c    0.354710 *  0.675583 *  0.584584 *   0.87073    1.000000    
    111 O2    c    0.327489 *  0.672776 *  0.918168 *   0.87073    1.000000    
    112 O2    c    0.679063 *  0.348819 *  0.748154 *   0.87073    1.000000    
    113 O2    c    0.647351 *  0.320070 *  0.084944 *   0.87073    1.000000    
    114 O2    c    0.676624 *  0.322317 *  0.418145 *   0.87073    1.000000    
    115 O3    c    0.371485 *  0.320525 *  0.975833 *   1.33043    1.000000    
    116 O2    c    0.666992 *  0.042190 *  0.307196 *   0.87073    1.000000    
    117 O2    c    0.955670 *  0.624122 *  0.638096 *   0.87073    1.000000    
    118 O2    c    0.626590 *  0.669791 *  0.472502 *   0.87073    1.000000    
    119 O2    c    0.333033 *  0.952874 *  0.804512 *   0.87073    1.000000    
    120 O2    c    0.049653 *  0.372403 *  0.137795 *   0.87073    1.000000    
    121 O2    c    0.328941 *  0.374632 *  0.364919 *   0.87073    1.000000    
    122 O2    c    0.045647 *  0.670705 *  0.032449 *   0.87073    1.000000    
    123 O2    c    0.627009 *  0.950368 *  0.696606 *   0.87073    1.000000    
    124 O2    c    0.674972 *  0.621410 *  0.864470 *   0.87073    1.000000    
    125 O2    c    0.957042 *  0.329860 *  0.529773 *   0.87073    1.000000    
    126 O2    c    0.380648 *  0.043874 *  0.197502 *   0.87073    1.000000    
    127 O2    c    0.772142 *  0.303953 *  0.012793 *   0.87073    1.000000    
    128 O2    c    0.694986 *  0.466634 *  0.345755 *   0.87073    1.000000    
    129 O2    c    0.532687 *  0.223853 *  0.676661 *   0.87073    1.000000    
    130 O2    c    0.230284 *  0.696040 *  0.512091 *   0.87073    1.000000    
    131 O2    c    0.306892 *  0.526322 *  0.848502 *   0.87073    1.000000    
    132 O2    c    0.472208 *  0.767875 *  0.180355 *   0.87073    1.000000    
    133 O2    c    0.301201 *  0.770136 *  0.323905 *   0.87073    1.000000    
    134 O2    c    0.473345 *  0.701473 *  0.989218 *   0.87073    1.000000    
    135 O2    c    0.228699 *  0.530344 *  0.656880 *   0.87073    1.000000    
    136 O2    c    0.696495 *  0.224691 *  0.821989 *   0.87073    1.000000    
    137 O2    c    0.533235 *  0.303284 *  0.490996 *   0.87073    1.000000    
    138 O2    c    0.774570 *  0.460836 *  0.157579 *   0.87073    1.000000    
    139 O2    c    0.787298 *  0.532425 *  0.031603 *   0.87073    1.000000    
    140 O2    c    0.464010 *  0.250672 *  0.363318 *   0.87073    1.000000    
    141 O2    c    0.748986 *  0.208205 *  0.693420 *   0.87073    1.000000    
    142 O2    c    0.215605 *  0.464649 *  0.529178 *   0.87073    1.000000    
    143 O2    c    0.533051 *  0.734404 *  0.865289 *   0.87073    1.000000    
    144 O2    c    0.256371 *  0.783132 *  0.195384 *   0.87073    1.000000    
    145 O2    c    0.532597 *  0.783527 *  0.308400 *   0.87073    1.000000    
    146 O2    c    0.264639 *  0.470757 *  0.973702 *   0.87073    1.000000    
    147 O2    c    0.214795 *  0.748015 *  0.639807 *   0.87073    1.000000    
    148 O2    c    0.466672 *  0.212319 *  0.803971 *   0.87073    1.000000    
    149 O2    c    0.750527 *  0.534869 *  0.473547 *   0.87073    1.000000    
    150 O2    c    0.788342 *  0.246578 *  0.137552 *   0.87073    1.000000    
    151 O2    c    0.239049 *  0.322421 *  0.902015 *   0.87073    1.000000    
    152 O2    c    0.677872 *  0.905839 *  0.235212 *   0.87073    1.000000    
    153 O2    c    0.090901 *  0.766322 *  0.565762 *   0.87073    1.000000    
    154 O2    c    0.766915 *  0.676279 *  0.399714 *   0.87073    1.000000    
    155 O2    c    0.323966 *  0.085549 *  0.731071 *   0.87073    1.000000    
    156 O2    c    0.917860 *  0.233641 *  0.063816 *   0.87073    1.000000    
    157 O2    c    0.322997 *  0.232507 *  0.437242 *   0.87073    1.000000    
    158 O2    c    0.912696 *  0.674619 *  0.105953 *   0.87073    1.000000    
    159 O2    c    0.769392 *  0.087854 *  0.768414 *   0.87073    1.000000    
    160 O2    c    0.681256 *  0.764365 *  0.936439 *   0.87073    1.000000    
    161 O2    c    0.091179 *  0.321841 *  0.602539 *   0.87073    1.000000    
    162 O2    c    0.230514 *  0.905445 *  0.268660 *   0.87073    1.000000    
    163 O3    c    0.609003 *  0.577649 *  0.999019 *   1.33043    1.000000    
    164 O2    c    0.437982 *  0.029695 *  0.324717 *   0.87073    1.000000    
    165 O2    c    0.970204 *  0.409934 *  0.657681 *   0.87073    1.000000    
    166 O2    c    0.412667 *  0.441280 *  0.492532 *   0.87073    1.000000    
    167 O2    c    0.561234 *  0.965217 *  0.824078 *   0.87073    1.000000    
    168 O2    c    0.034501 *  0.584357 *  0.159785 *   0.87073    1.000000    
    169 O2    c    0.556827 *  0.587001 *  0.344697 *   0.87073    1.000000    
    170 O2    c    0.032967 *  0.444662 *  0.009726 *   0.87073    1.000000    
    171 O2    c    0.413802 *  0.966296 *  0.676266 *   0.87073    1.000000    
    172 O2    c    0.445425 *  0.409212 *  0.846891 *   0.87073    1.000000    
    173 O2    c    0.972110 *  0.558114 *  0.509959 *   0.87073    1.000000    
    174 O2    c    0.593319 *  0.028089 *  0.179241 *   0.87073    1.000000    
    175 O2    c    0.586181 *  0.166679 *  0.252052 *   0.87073    1.000000    
    176 O2    c    0.834800 *  0.416749 *  0.583297 *   0.87073    1.000000    
    177 O3    c    0.603558 *  0.410419 *  0.913936 *   1.33043    1.000000    
    178 O2    c    0.418148 *  0.829253 *  0.750526 *   0.87073    1.000000    
    179 O2    c    0.172147 *  0.583641 *  0.084728 *   0.87073    1.000000    
    180 O2    c    0.417094 *  0.583325 *  0.418648 *   0.87073    1.000000    
    181 F     c    0.453023 *  0.903741 *  0.252429 *   0.56000    1.000000    
    182 F     c    0.095656 *  0.547107 *  0.584660 *   0.56000    1.000000    
    183 F     c    0.478315 *  0.524370 *  0.927632 *   0.56000    1.000000    
    184 F     c    0.548242 *  0.089581 *  0.750458 *   0.56000    1.000000    
    185 F     c    0.915864 *  0.452563 *  0.085190 *   0.56000    1.000000    
    186 F     c    0.548021 *  0.452177 *  0.418958 *   0.56000    1.000000    
    187 O3    s    0.936036 *  0.995150 *  0.004722 *  -3.33043    1.000000    
    188 O2    s    0.996750 *  0.926136 *  0.338543 *  -2.87073    1.000000    
    189 O2    s    0.077225 *  0.073235 *  0.667986 *  -2.87073    1.000000    
    190 O2    s    0.074298 *  0.998778 *  0.502159 *  -2.87073    1.000000    
    191 O2    s    0.000576 *  0.068207 *  0.832209 *  -2.87073    1.000000    
    192 O3    s    0.929787 *  0.934704 *  0.168646 *  -3.33043    1.000000    
    193 O2    s    0.350543 *  0.586811 *  0.335471 *  -2.87073    1.000000    
    194 O2    s    0.412867 *  0.761229 *  0.667449 *  -2.87073    1.000000    
    195 O2    s    0.237457 *  0.649743 *  0.001545 *  -2.87073    1.000000    
    196 O2    s    0.651429 *  0.411340 *  0.829062 *  -2.87073    1.000000    
    197 O2    s    0.591689 *  0.231994 *  0.168083 *  -2.87073    1.000000    
    198 O2    s    0.766108 *  0.352292 *  0.500456 *  -2.87073    1.000000    
    199 O3    s    0.593257 *  0.353979 *  0.002538 *  -3.33043    1.000000    
    200 O2    s    0.764666 *  0.408520 *  0.665789 *  -2.87073    1.000000    
    201 O2    s    0.645131 *  0.233499 *  0.335548 *  -2.87073    1.000000    
    202 O2    s    0.413903 *  0.647040 *  0.501851 *  -2.87073    1.000000    
    203 O2    s    0.239871 *  0.584324 *  0.168115 *  -2.87073    1.000000    
    204 O2    s    0.355422 *  0.761052 *  0.834169 *  -2.87073    1.000000    
    205 O3    s    0.130013 *  0.224692 *  0.974803 *  -3.33043    1.000000    
    206 O2    s    0.780137 *  0.904687 *  0.307844 *  -2.87073    1.000000    
    207 O2    s    0.093689 *  0.875598 *  0.637296 *  -2.87073    1.000000    
    208 O2    s    0.878694 *  0.783608 *  0.471126 *  -2.87073    1.000000    
    209 O2    s    0.218606 *  0.090176 *  0.802988 *  -2.87073    1.000000    
    210 O2    s    0.908841 *  0.123868 *  0.136686 *  -2.87073    1.000000    
    211 O2    s    0.216512 *  0.123155 *  0.365437 *  -2.87073    1.000000    
    212 O2    s    0.901964 *  0.777861 *  0.034038 *  -2.87073    1.000000    
    213 O2    s    0.879496 *  0.090520 *  0.697368 *  -2.87073    1.000000    
    214 O2    s    0.782100 *  0.871892 *  0.862521 *  -2.87073    1.000000    
    215 O2    s    0.095222 *  0.216444 *  0.530852 *  -2.87073    1.000000    
    216 O3    s    0.136092 *  0.906464 *  0.195607 *  -3.33043    1.000000    
    217 O3    s    0.934152 *  0.865922 *  0.256751 *  -3.33043    1.000000    
    218 O2    s    0.140534 *  0.070181 *  0.584697 *  -2.87073    1.000000    
    219 O3    s    0.930404 *  0.059830 *  0.914134 *  -3.33043    1.000000    
    220 O2    s    0.075229 *  0.143120 *  0.750580 *  -2.87073    1.000000    
    221 O2    s    0.860797 *  0.927109 *  0.086783 *  -2.87073    1.000000    
    222 O2    s    0.075523 *  0.932035 *  0.419507 *  -2.87073    1.000000    
    223 O3    s    0.902147 *  0.209433 *  0.981841 *  -3.33043    1.000000    
    224 O2    s    0.793077 *  0.703923 *  0.318167 *  -2.87073    1.000000    
    225 O2    s    0.296099 *  0.085807 *  0.649084 *  -2.87073    1.000000    
    226 O2    s    0.090999 *  0.794125 *  0.484058 *  -2.87073    1.000000    
    227 O2    s    0.207164 *  0.289699 *  0.818686 *  -2.87073    1.000000    
    228 O2    s    0.707622 *  0.908677 *  0.152619 *  -2.87073    1.000000    
    229 O2    s    0.202752 *  0.909595 *  0.351438 *  -2.87073    1.000000    
    230 O2    s    0.711480 *  0.813063 *  0.018602 *  -2.87073    1.000000    
    231 O2    s    0.090180 *  0.293522 *  0.684660 *  -2.87073    1.000000    
    232 O2    s    0.796564 *  0.086714 *  0.850413 *  -2.87073    1.000000    
    233 O2    s    0.295799 *  0.204232 *  0.519172 *  -2.87073    1.000000    
    234 O3    s    0.906892 *  0.689737 *  0.188256 *  -3.33043    1.000000    
    235 O2    s    0.329516 *  0.654815 *  0.251957 *  -2.87073    1.000000    
    236 O2    s    0.343041 *  0.669757 *  0.584583 *  -2.87073    1.000000    
    237 O2    s    0.332855 *  0.667921 *  0.918075 *  -2.87073    1.000000    
    238 O2    s    0.672984 *  0.337106 *  0.748138 *  -2.87073    1.000000    
    239 O2    s    0.658582 *  0.325474 *  0.085136 *  -2.87073    1.000000    
    240 O2    s    0.670723 *  0.328222 *  0.418154 *  -2.87073    1.000000    
    241 O3    s    0.370907 *  0.330299 *  0.973084 *  -3.33043    1.000000    
    242 O2    s    0.657138 *  0.035566 *  0.304883 *  -2.87073    1.000000    
    243 O2    s    0.962437 *  0.620844 *  0.635798 *  -2.87073    1.000000    
    244 O2    s    0.623358 *  0.659847 *  0.470241 *  -2.87073    1.000000    
    245 O2    s    0.342900 *  0.959265 *  0.802181 *  -2.87073    1.000000    
    246 O2    s    0.043022 *  0.376131 *  0.135518 *  -2.87073    1.000000    
    247 O2    s    0.338937 *  0.377780 *  0.367108 *  -2.87073    1.000000    
    248 O2    s    0.039286 *  0.660251 *  0.034585 *  -2.87073    1.000000    
    249 O2    s    0.623768 *  0.957245 *  0.698748 *  -2.87073    1.000000    
    250 O2    s    0.665864 *  0.618999 *  0.866533 *  -2.87073    1.000000    
    251 O2    s    0.963728 *  0.339788 *  0.532004 *  -2.87073    1.000000    
    252 O2    s    0.384147 *  0.037061 *  0.199700 *  -2.87073    1.000000    
    253 O2    s    0.779390 *  0.311647 *  0.015677 *  -2.87073    1.000000    
    254 O2    s    0.687381 *  0.466018 *  0.348880 *  -2.87073    1.000000    
    255 O2    s    0.533446 *  0.216902 *  0.679731 *  -2.87073    1.000000    
    256 O2    s    0.223218 *  0.688295 *  0.515183 *  -2.87073    1.000000    
    257 O2    s    0.314224 *  0.527613 *  0.851129 *  -2.87073    1.000000    
    258 O2    s    0.471242 *  0.774779 *  0.183346 *  -2.87073    1.000000    
    259 O2    s    0.308863 *  0.777036 *  0.320802 *  -2.87073    1.000000    
    260 O2    s    0.471974 *  0.693846 *  0.986794 *  -2.87073    1.000000    
    261 O2    s    0.221728 *  0.530999 *  0.653725 *  -2.87073    1.000000    
    262 O2    s    0.689256 *  0.217627 *  0.818782 *  -2.87073    1.000000    
    263 O2    s    0.533696 *  0.310892 *  0.487850 *  -2.87073    1.000000    
    264 O2    s    0.781488 *  0.460460 *  0.154504 *  -2.87073    1.000000    
    265 O2    s    0.792628 *  0.530606 *  0.034051 *  -2.87073    1.000000    
    266 O2    s    0.466730 *  0.258508 *  0.365910 *  -2.87073    1.000000    
    267 O2    s    0.741418 *  0.203389 *  0.696100 *  -2.87073    1.000000    
    268 O2    s    0.210407 *  0.467285 *  0.531743 *  -2.87073    1.000000    
    269 O2    s    0.530550 *  0.728540 *  0.867364 *  -2.87073    1.000000    
    270 O2    s    0.264251 *  0.787970 *  0.198025 *  -2.87073    1.000000    
    271 O2    s    0.529942 *  0.788806 *  0.305731 *  -2.87073    1.000000    
    272 O2    s    0.270964 *  0.474019 *  0.971612 *  -2.87073    1.000000    
    273 O2    s    0.209585 *  0.740054 *  0.637180 *  -2.87073    1.000000    
    274 O2    s    0.469190 *  0.206696 *  0.801407 *  -2.87073    1.000000    
    275 O2    s    0.742561 *  0.532258 *  0.470925 *  -2.87073    1.000000    
    276 O2    s    0.793589 *  0.255071 *  0.135155 *  -2.87073    1.000000    
    277 O2    s    0.247773 *  0.331137 *  0.902297 *  -2.87073    1.000000    
    278 O2    s    0.668261 *  0.905829 *  0.235996 *  -2.87073    1.000000    
    279 O2    s    0.091208 *  0.756920 *  0.566710 *  -2.87073    1.000000    
    280 O2    s    0.757632 *  0.666723 *  0.400685 *  -2.87073    1.000000    
    281 O2    s    0.333682 *  0.085991 *  0.731996 *  -2.87073    1.000000    
    282 O2    s    0.916723 *  0.242816 *  0.064839 *  -2.87073    1.000000    
    283 O2    s    0.332620 *  0.241864 *  0.436351 *  -2.87073    1.000000    
    284 O2    s    0.912040 *  0.664795 *  0.105019 *  -2.87073    1.000000    
    285 O2    s    0.759879 *  0.087839 *  0.767519 *  -2.87073    1.000000    
    286 O2    s    0.672786 *  0.756476 *  0.935381 *  -2.87073    1.000000    
    287 O2    s    0.091444 *  0.331538 *  0.601666 *  -2.87073    1.000000    
    288 O2    s    0.240477 *  0.905677 *  0.268070 *  -2.87073    1.000000    
    289 O3    s    0.604180 *  0.581719 *  0.995286 *  -3.33043    1.000000    
    290 O2    s    0.438093 *  0.024648 *  0.321489 *  -2.87073    1.000000    
    291 O2    s    0.975254 *  0.414706 *  0.654270 *  -2.87073    1.000000    
    292 O2    s    0.417320 *  0.440973 *  0.489145 *  -2.87073    1.000000    
    293 O2    s    0.561019 *  0.970152 *  0.820699 *  -2.87073    1.000000    
    294 O2    s    0.029470 *  0.579627 *  0.156397 *  -2.87073    1.000000    
    295 O2    s    0.557118 *  0.582457 *  0.348059 *  -2.87073    1.000000    
    296 O2    s    0.028010 *  0.444370 *  0.013185 *  -2.87073    1.000000    
    297 O2    s    0.418332 *  0.971165 *  0.679626 *  -2.87073    1.000000    
    298 O2    s    0.444397 *  0.412612 *  0.849638 *  -2.87073    1.000000    
    299 O2    s    0.976834 *  0.558226 *  0.513361 *  -2.87073    1.000000    
    300 O2    s    0.588403 *  0.023129 *  0.182547 *  -2.87073    1.000000    
    301 O2    s    0.580460 *  0.155518 *  0.252090 *  -2.87073    1.000000    
    302 O2    s    0.845791 *  0.422144 *  0.583340 *  -2.87073    1.000000    
    303 O3    s    0.597981 *  0.417510 *  0.912330 *  -3.33043    1.000000    
    304 O2    s    0.423715 *  0.840305 *  0.750604 *  -2.87073    1.000000    
    305 O2    s    0.160818 *  0.578035 *  0.084737 *  -2.87073    1.000000    
    306 O2    s    0.422530 *  0.577795 *  0.418646 *  -2.87073    1.000000    
    307 F     s    0.452788 *  0.903453 *  0.252476 *  -1.56000    1.000000    
    308 F     s    0.095997 *  0.547343 *  0.584732 *  -1.56000    1.000000    
    309 F     s    0.482115 *  0.519027 *  0.929899 *  -1.56000    1.000000    
    310 F     s    0.548338 *  0.089790 *  0.750563 *  -1.56000    1.000000    
    311 F     s    0.916467 *  0.452548 *  0.085232 *  -1.56000    1.000000    
    312 F     s    0.548296 *  0.451965 *  0.419021 *  -1.56000    1.000000    
--------------------------------------------------------------------------------



********************************************************************************
*  General input information                                                   *
********************************************************************************

  Species output for all configurations : 

--------------------------------------------------------------------------------
  Species    Type    Atomic    Atomic    Charge       Radii (Angs)     Library
                     Number     Mass       (e)     Cova   Ionic  VDW   Symbol
--------------------------------------------------------------------------------
    Si       Core       14      28.09   4.000000   1.200  0.000  2.100          
    O1       Core        8      16.00   1.733957   0.730  0.000  1.360          
    O1       Shell       8       0.00  -3.733957   0.730  0.000  1.360          
    O2       Core        8      16.00   0.870733   0.730  0.000  1.360          
    O2       Shell       8       0.00  -2.870733   0.730  0.000  1.360          
    O3       Core        8      16.00   1.330431   0.730  0.000  1.360          
    O3       Shell       8       0.00  -3.330431   0.730  0.000  1.360          
    F        Core        9      19.00   0.560000   0.710  0.000  1.300          
    F        Shell       9       0.00  -1.560000   0.710  0.000  1.300          
    Ge       Core       32      72.61   4.000000   1.170  0.000  1.750          
--------------------------------------------------------------------------------


  Lattice summation method               =    Ewald          (3-D)
                                         =    Parry          (2-D)
                                         =    Saunders et al (1-D)
  Accuracy factor for lattice sums       =   12.000


  Time limit = Infinity

  Maximum range for interatomic potentials =        16.000000 Angstroms

  Taper potentials to zero over   1.0000 Angstroms using polynomial

  General interatomic potentials :

--------------------------------------------------------------------------------
Atom  Types   Potential         A         B         C         D     Cutoffs(Ang)
  1     2                                                            Min    Max 
--------------------------------------------------------------------------------
Si   c O1   s Buckingham    0.132E+04 0.318      10.1      0.00     0.000 16.000
Si   c O2   s Buckingham    0.132E+04 0.318      10.1      0.00     0.000 16.000
Si   c O3   s Buckingham    0.132E+04 0.318      10.1      0.00     0.000 16.000
Ge   c O1   s Buckingham    0.150E+04 0.326      16.8      0.00     0.000 16.000
Ge   c O2   s Buckingham    0.150E+04 0.326      16.8      0.00     0.000 16.000
Ge   c O3   s Buckingham    0.150E+04 0.326      16.8      0.00     0.000 16.000
O1   s O1   s Buckingham    0.228E+05 0.149      10.9      0.00     0.000 16.000
O1   s O2   s Buckingham    0.228E+05 0.149      10.9      0.00     0.000 16.000
O1   s O3   s Buckingham    0.228E+05 0.149      10.9      0.00     0.000 16.000
O2   s O2   s Buckingham    0.228E+05 0.149      10.9      0.00     0.000 16.000
O2   s O3   s Buckingham    0.228E+05 0.149      10.9      0.00     0.000 16.000
O3   s O3   s Buckingham    0.228E+05 0.149      10.9      0.00     0.000 16.000
Si   c F    s Buckingham     977.     0.282      0.00      0.00     0.000 16.000
Ge   c F    s Buckingham     681.     0.320      0.00      0.00     0.000 16.000
F    s F    s Buckingham     540.     0.262      0.00      0.00     0.000 16.000
O1   s F    s Buckingham    0.168E+04 0.268      0.00      0.00     0.000 16.000
O2   s F    s Buckingham    0.168E+04 0.268      0.00      0.00     0.000 16.000
O3   s F    s Buckingham    0.168E+04 0.268      0.00      0.00     0.000 16.000
O2   c O2   s Spring (c-s)   76.0      0.00      0.00      0.00     0.000  0.800
O3   c O3   s Spring (c-s)   128.      0.00      0.00      0.00     0.000  0.800
O1   c O1   s Spring (c-s)   180.      0.00      0.00      0.00     0.000  0.800
F    c F    s Spring (c-s)   33.5      0.00      0.00      0.00     0.000  0.800
--------------------------------------------------------------------------------

  General Three-body potentials :

  Harmonic form:

--------------------------------------------------------------------------------
Atom    Atom    Atom           Force Constants            Theta     Cutoffs  
  1       2       3     (eVrad**-2/eVrad**-3/eVrad**-4)   (deg)  1-2  1-3  2-3
--------------------------------------------------------------------------------
Si    c O1    s O1    s  1.261        0.0000    0.0000   109.470 0.00 0.00 0.00
                                                                 1.90 1.90 3.50
Si    c O1    s O2    s  1.261        0.0000    0.0000   109.470 0.00 0.00 0.00
                                                                 1.90 1.90 3.50
Si    c O2    s O2    s  1.261        0.0000    0.0000   109.470 0.00 0.00 0.00
                                                                 1.90 1.90 3.50
--------------------------------------------------------------------------------

********************************************************************************
*  Output for configuration   1                                                *
********************************************************************************


  Components of energy : 

--------------------------------------------------------------------------------
  Interatomic potentials     =        2060.91140844 eV
  Three-body potentials      =           0.44820631 eV
  Monopole - monopole (real) =       -6612.82528260 eV
  Monopole - monopole (recip)=       -3167.97223741 eV
  Monopole - monopole (total)=       -9780.79752001 eV
  Neutralising energy        =          -6.45314635 eV
--------------------------------------------------------------------------------
  Total lattice energy       =       -7725.89105160 eV
--------------------------------------------------------------------------------
  Total lattice energy       =         -745430.3854 kJ/(mole unit cells)
--------------------------------------------------------------------------------


  Number of variables =      939

  Maximum number of calculations  =          1000
  Maximum Hessian update interval =            10
  Maximum step size               =   1.000000000
  Maximum parameter tolerance     =   0.000010000
  Maximum function  tolerance     =   0.000010000
  Maximum gradient  tolerance     =   0.001000000
  Maximum gradient  component     =   0.010000000

  Symmetry not applied to optimisation

  Cell parameters to be optimised using strains

  Newton-Raphson optimiser to be used

  BFGS hessian update to be used

  Dumpfile to be written after every cycle

  Start of bulk optimisation :

  Cycle:      0 Energy:     -7725.891052  Gnorm:      0.000759  CPU:    1.596
  ** Hessian calculated **
  Cycle:      1 Energy:     -7725.932997  Gnorm:      0.005195  CPU:    5.143
  Cycle:      2 Energy:     -7725.935219  Gnorm:      0.002034  CPU:    8.855
  Cycle:      3 Energy:     -7725.935475  Gnorm:      0.000495  CPU:   11.763
  Cycle:      4 Energy:     -7725.935507  Gnorm:      0.000156  CPU:   14.281


  **** Optimisation achieved ****


  Final energy =   -7725.93550848 eV
  Final Gnorm  =       0.00001924

  Components of energy : 

--------------------------------------------------------------------------------
  Interatomic potentials     =        2061.44724671 eV
  Three-body potentials      =           0.44843497 eV
  Monopole - monopole (real) =       -6613.06978548 eV
  Monopole - monopole (recip)=       -3168.30757419 eV
  Monopole - monopole (total)=       -9781.37735967 eV
  Neutralising energy        =          -6.45383049 eV
--------------------------------------------------------------------------------
  Total lattice energy       =       -7725.93550848 eV
--------------------------------------------------------------------------------
  Total lattice energy       =         -745434.6748 kJ/(mole unit cells)
--------------------------------------------------------------------------------

  Final fractional coordinates of atoms :

--------------------------------------------------------------------------------
   No.  Atomic        x           y          z          Radius
        Label       (Frac)      (Frac)     (Frac)       (Angs) 
--------------------------------------------------------------------------------
     1  Si    c     0.699600    0.375700    0.033890    0.000000
     2  Si    c     0.621930    0.312689    0.367800    0.000000
     3  Si    c     0.679222    0.278875    0.697812    0.000000
     4  Si    c     0.299546    0.606086    0.533836    0.000000
     5  Si    c     0.383531    0.662723    0.866597    0.000000
     6  Si    c     0.331129    0.692424    0.200024    0.000000
     7  Si    c     0.380380    0.692189    0.301474    0.000000
     8  Si    c     0.331724    0.619073    0.969286    0.000000
     9  Si    c     0.298550    0.659486    0.634514    0.000000
    10  Si    c     0.625091    0.281075    0.798271    0.000000
    11  Si    c     0.677645    0.367357    0.468220    0.000000
    12  Si    c     0.709067    0.316610    0.134316    0.000000
    13  Ge    c     0.536322    0.428029    0.964916    0.000000
    14  Si    c     0.584280    0.102790    0.302844    0.000000
    15  Si    c     0.889747    0.454628    0.634104    0.000000
    16  Si    c     0.472387    0.570271    0.468676    0.000000
    17  Si    c     0.423040    0.872236    0.800369    0.000000
    18  Si    c     0.121966    0.523633    0.134063    0.000000
    19  Si    c     0.417951    0.519763    0.366985    0.000000
    20  Si    c     0.117929    0.579213    0.033177    0.000000
    21  Si    c     0.473350    0.868810    0.699002    0.000000
    22  Si    c     0.595835    0.453038    0.865656    0.000000
    23  Si    c     0.888594    0.402942    0.532533    0.000000
    24  Si    c     0.540944    0.107957    0.200882    0.000000
    25  Si    c     0.307728    0.380685    0.854085    0.000000
    26  Si    c     0.609083    0.895997    0.187958    0.000000
    27  Si    c     0.097818    0.682861    0.519379    0.000000
    28  Si    c     0.698552    0.590400    0.353042    0.000000
    29  Si    c     0.401189    0.077644    0.684330    0.000000
    30  Si    c     0.905373    0.303180    0.017367    0.000000
    31  Si    c     0.399823    0.289903    0.483241    0.000000
    32  Si    c     0.912447    0.592680    0.150776    0.000000
    33  Si    c     0.702149    0.080067    0.814370    0.000000
    34  Si    c     0.615894    0.701786    0.985344    0.000000
    35  Si    c     0.097682    0.382220    0.648803    0.000000
    36  Si    c     0.302973    0.894025    0.315084    0.000000
    37  Si    c     0.257330    0.330832    0.956806    0.000000
    38  Si    c     0.661098    0.900527    0.288876    0.000000
    39  Si    c     0.090088    0.732713    0.619953    0.000000
    40  Si    c     0.751045    0.648427    0.453627    0.000000
    41  Si    c     0.344370    0.072578    0.784950    0.000000
    42  Si    c     0.919601    0.248017    0.116769    0.000000
    43  Si    c     0.341181    0.241136    0.382555    0.000000
    44  Si    c     0.916030    0.654186    0.050627    0.000000
    45  Si    c     0.751644    0.069991    0.713809    0.000000
    46  Si    c     0.669125    0.733616    0.881933    0.000000
    47  Si    c     0.090214    0.325547    0.548162    0.000000
    48  Si    c     0.263279    0.904716    0.213840    0.000000
    49  Ge    c     0.968655    0.116221    0.968973    0.000000
    50  Si    c     0.879971    0.840617    0.304867    0.000000
    51  Si    c     0.153060    0.012844    0.634732    0.000000
    52  Si    c     0.031954    0.865269    0.469148    0.000000
    53  Si    c     0.126869    0.135372    0.801390    0.000000
    54  Si    c     0.856894    0.968774    0.136710    0.000000
    55  Si    c     0.124645    0.961403    0.368456    0.000000
    56  Si    c     0.858946    0.876393    0.036439    0.000000
    57  Si    c     0.032761    0.135443    0.700142    0.000000
    58  Si    c     0.881982    0.012500    0.865687    0.000000
    59  Si    c     0.152796    0.108144    0.533985    0.000000
    60  Ge    c     0.980565    0.843439    0.202081    0.000000
    61  O3    c     0.946799    0.998917    0.006894    0.000000
    62  O2    c     0.996377    0.918211    0.339847    0.000000
    63  O2    c     0.076622    0.055373    0.668689    0.000000
    64  O2    c     0.072065    0.984749    0.502553    0.000000
    65  O2    c     0.005837    0.055041    0.833912    0.000000
    66  O3    c     0.940203    0.938971    0.171092    0.000000
    67  O2    c     0.341480    0.569147    0.334496    0.000000
    68  O2    c     0.422435    0.742815    0.667038    0.000000
    69  O2    c     0.243940    0.656275    0.000382    0.000000
    70  O2    c     0.665548    0.408160    0.828476    0.000000
    71  O2    c     0.589634    0.232570    0.168359    0.000000
    72  O2    c     0.762902    0.327749    0.500399    0.000000
    73  O3    c     0.582430    0.341116    0.002194    0.000000
    74  O2    c     0.762564    0.402679    0.665687    0.000000
    75  O2    c     0.659765    0.227086    0.335621    0.000000
    76  O2    c     0.422705    0.645745    0.501354    0.000000
    77  O2    c     0.247951    0.571139    0.166567    0.000000
    78  O2    c     0.347158    0.746456    0.832998    0.000000
    79  O3    c     0.129555    0.217002    0.977256    0.000000
    80  O2    c     0.786212    0.900966    0.310173    0.000000
    81  O2    c     0.088897    0.858655    0.639743    0.000000
    82  O2    c     0.877554    0.775166    0.473077    0.000000
    83  O2    c     0.217890    0.071610    0.805261    0.000000
    84  O2    c     0.919075    0.122533    0.137037    0.000000
    85  O2    c     0.215163    0.115296    0.362544    0.000000
    86  O2    c     0.913177    0.778226    0.030114    0.000000
    87  O2    c     0.878483    0.069841    0.694486    0.000000
    88  O2    c     0.789411    0.858778    0.859145    0.000000
    89  O2    c     0.089511    0.199120    0.528107    0.000000
    90  O3    c     0.142599    0.907877    0.192050    0.000000
    91  O3    c     0.943970    0.861739    0.256656    0.000000
    92  O2    c     0.139651    0.056528    0.584841    0.000000
    93  O3    c     0.930410    0.046335    0.916288    0.000000
    94  O2    c     0.074160    0.127644    0.751105    0.000000
    95  O2    c     0.866070    0.915314    0.088306    0.000000
    96  O2    c     0.080460    0.922851    0.419822    0.000000
    97  O3    c     0.893609    0.204238    0.977759    0.000000
    98  O2    c     0.796672    0.687475    0.314913    0.000000
    99  O2    c     0.304721    0.079280    0.645957    0.000000
   100  O2    c     0.099572    0.781389    0.481258    0.000000
   101  O2    c     0.210082    0.285136    0.815639    0.000000
   102  O2    c     0.706112    0.896635    0.149744    0.000000
   103  O2    c     0.203693    0.891206    0.353157    0.000000
   104  O2    c     0.710658    0.814791    0.019916    0.000000
   105  O2    c     0.099876    0.285853    0.687249    0.000000
   106  O2    c     0.801457    0.083715    0.852766    0.000000
   107  O2    c     0.303826    0.190636    0.521551    0.000000
   108  O3    c     0.905100    0.682008    0.190042    0.000000
   109  O2    c     0.327491    0.635383    0.250795    0.000000
   110  O2    c     0.355956    0.660886    0.584326    0.000000
   111  O2    c     0.331428    0.664819    0.917100    0.000000
   112  O2    c     0.681176    0.335706    0.747997    0.000000
   113  O2    c     0.650025    0.319653    0.085184    0.000000
   114  O2    c     0.678683    0.311370    0.418016    0.000000
   115  O3    c     0.371581    0.313419    0.975182    0.000000
   116  O2    c     0.670338    0.032602    0.306970    0.000000
   117  O2    c     0.957829    0.610428    0.638223    0.000000
   118  O2    c     0.628348    0.657997    0.472080    0.000000
   119  O2    c     0.335643    0.941047    0.804044    0.000000
   120  O2    c     0.052598    0.367523    0.136148    0.000000
   121  O2    c     0.330909    0.363683    0.364329    0.000000
   122  O2    c     0.049410    0.667024    0.031200    0.000000
   123  O2    c     0.629479    0.936829    0.696139    0.000000
   124  O2    c     0.678607    0.611097    0.864120    0.000000
   125  O2    c     0.957907    0.315757    0.529733    0.000000
   126  O2    c     0.385724    0.038274    0.197119    0.000000
   127  O2    c     0.772520    0.303873    0.012334    0.000000
   128  O2    c     0.697202    0.455771    0.345436    0.000000
   129  O2    c     0.535089    0.210412    0.676407    0.000000
   130  O2    c     0.231254    0.681908    0.512000    0.000000
   131  O2    c     0.311351    0.516912    0.847479    0.000000
   132  O2    c     0.476168    0.762269    0.179393    0.000000
   133  O2    c     0.304152    0.760400    0.322892    0.000000
   134  O2    c     0.477754    0.698018    0.988326    0.000000
   135  O2    c     0.230628    0.516279    0.656814    0.000000
   136  O2    c     0.698914    0.212401    0.821702    0.000000
   137  O2    c     0.534859    0.291607    0.490784    0.000000
   138  O2    c     0.780125    0.458015    0.157334    0.000000
   139  O2    c     0.789413    0.531692    0.031449    0.000000
   140  O2    c     0.466254    0.240002    0.363010    0.000000
   141  O2    c     0.751038    0.194605    0.693232    0.000000
   142  O2    c     0.216519    0.450538    0.528908    0.000000
   143  O2    c     0.537269    0.724570    0.864549    0.000000
   144  O2    c     0.260781    0.777410    0.194639    0.000000
   145  O2    c     0.535603    0.773714    0.307654    0.000000
   146  O2    c     0.269337    0.465935    0.973471    0.000000
   147  O2    c     0.216719    0.733949    0.639667    0.000000
   148  O2    c     0.469171    0.200285    0.803647    0.000000
   149  O2    c     0.752331    0.523186    0.473434    0.000000
   150  O2    c     0.791647    0.242984    0.136407    0.000000
   151  O2    c     0.240609    0.315106    0.901521    0.000000
   152  O2    c     0.681529    0.897820    0.234731    0.000000
   153  O2    c     0.092196    0.752185    0.565731    0.000000
   154  O2    c     0.768954    0.664768    0.399365    0.000000
   155  O2    c     0.326367    0.072901    0.730673    0.000000
   156  O2    c     0.917965    0.229812    0.062200    0.000000
   157  O2    c     0.324802    0.221328    0.436868    0.000000
   158  O2    c     0.918660    0.672532    0.105211    0.000000
   159  O2    c     0.771819    0.074834    0.768100    0.000000
   160  O2    c     0.685387    0.755823    0.935932    0.000000
   161  O2    c     0.092798    0.307820    0.602464    0.000000
   162  O2    c     0.235019    0.898328    0.268047    0.000000
   163  O3    c     0.609669    0.571917    0.999022    0.000000
   164  O2    c     0.441264    0.019765    0.324494    0.000000
   165  O2    c     0.972066    0.395828    0.657774    0.000000
   166  O2    c     0.414190    0.429341    0.492128    0.000000
   167  O2    c     0.564115    0.953189    0.823723    0.000000
   168  O2    c     0.039764    0.580777    0.158759    0.000000
   169  O2    c     0.558963    0.575959    0.344154    0.000000
   170  O2    c     0.033979    0.440638    0.008286    0.000000
   171  O2    c     0.416286    0.952923    0.675766    0.000000
   172  O2    c     0.448525    0.398322    0.846971    0.000000
   173  O2    c     0.973336    0.544176    0.509919    0.000000
   174  O2    c     0.598619    0.023233    0.179071    0.000000
   175  O2    c     0.590227    0.159254    0.252128    0.000000
   176  O2    c     0.836345    0.402990    0.583368    0.000000
   177  O3    c     0.605730    0.402200    0.914254    0.000000
   178  O2    c     0.420779    0.816551    0.749982    0.000000
   179  O2    c     0.175695    0.578716    0.083294    0.000000
   180  O2    c     0.418861    0.571891    0.418022    0.000000
   181  F     c     0.457818    0.896233    0.251788    0.000000
   182  F     c     0.096622    0.532464    0.584741    0.000000
   183  F     c     0.480930    0.517708    0.926839    0.000000
   184  F     c     0.549998    0.075759    0.750176    0.000000
   185  F     c     0.919819    0.450757    0.084248    0.000000
   186  F     c     0.549902    0.441223    0.418651    0.000000
   187  O3    s     0.939019    0.995653    0.006824    0.000000
   188  O2    s     0.998190    0.914613    0.339270    0.000000
   189  O2    s     0.080212    0.059612    0.668435    0.000000
   190  O2    s     0.076660    0.985314    0.502367    0.000000
   191  O2    s     0.005894    0.059398    0.833726    0.000000
   192  O3    s     0.934722    0.933847    0.170077    0.000000
   193  O2    s     0.353252    0.576534    0.334475    0.000000
   194  O2    s     0.415089    0.747382    0.667028    0.000000
   195  O2    s     0.240804    0.644841    0.000320    0.000000
   196  O2    s     0.654205    0.399477    0.829104    0.000000
   197  O2    s     0.596794    0.228165    0.168261    0.000000
   198  O2    s     0.767264    0.339603    0.500446    0.000000
   199  O3    s     0.592402    0.351028    0.003158    0.000000
   200  O2    s     0.766932    0.395095    0.665803    0.000000
   201  O2    s     0.648057    0.223180    0.335598    0.000000
   202  O2    s     0.415012    0.633915    0.501393    0.000000
   203  O2    s     0.243854    0.578776    0.166745    0.000000
   204  O2    s     0.358636    0.750200    0.833294    0.000000
   205  O3    s     0.129377    0.220592    0.974334    0.000000
   206  O2    s     0.783047    0.894542    0.307417    0.000000
   207  O2    s     0.095807    0.862022    0.637205    0.000000
   208  O2    s     0.880876    0.771672    0.470690    0.000000
   209  O2    s     0.221275    0.078473    0.802783    0.000000
   210  O2    s     0.912353    0.119207    0.134848    0.000000
   211  O2    s     0.218644    0.112090    0.365204    0.000000
   212  O2    s     0.907669    0.775725    0.032915    0.000000
   213  O2    s     0.881670    0.076771    0.697054    0.000000
   214  O2    s     0.786520    0.861747    0.862167    0.000000
   215  O2    s     0.096297    0.202570    0.530781    0.000000
   216  O3    s     0.141353    0.902246    0.195039    0.000000
   217  O3    s     0.940112    0.857805    0.257209    0.000000
   218  O2    s     0.142639    0.057343    0.584808    0.000000
   219  O3    s     0.928412    0.048655    0.915295    0.000000
   220  O2    s     0.075493    0.129379    0.751090    0.000000
   221  O2    s     0.864193    0.916953    0.087859    0.000000
   222  O2    s     0.079871    0.920594    0.419676    0.000000
   223  O3    s     0.900977    0.205952    0.980651    0.000000
   224  O2    s     0.795237    0.693367    0.317761    0.000000
   225  O2    s     0.298558    0.072036    0.648731    0.000000
   226  O2    s     0.092144    0.780103    0.483931    0.000000
   227  O2    s     0.211400    0.279231    0.818107    0.000000
   228  O2    s     0.711922    0.904189    0.152369    0.000000
   229  O2    s     0.205428    0.898984    0.350889    0.000000
   230  O2    s     0.716170    0.809629    0.018057    0.000000
   231  O2    s     0.092456    0.279587    0.684698    0.000000
   232  O2    s     0.799752    0.075907    0.850202    0.000000
   233  O2    s     0.297535    0.191937    0.518996    0.000000
   234  O3    s     0.912053    0.686847    0.187286    0.000000
   235  O2    s     0.333197    0.646842    0.250816    0.000000
   236  O2    s     0.344314    0.655154    0.584332    0.000000
   237  O2    s     0.336867    0.660034    0.917075    0.000000
   238  O2    s     0.675126    0.324071    0.748019    0.000000
   239  O2    s     0.661085    0.324818    0.085340    0.000000
   240  O2    s     0.672772    0.317271    0.418047    0.000000
   241  O3    s     0.370878    0.323304    0.972452    0.000000
   242  O2    s     0.660462    0.025987    0.304634    0.000000
   243  O2    s     0.964593    0.607165    0.635899    0.000000
   244  O2    s     0.625136    0.648024    0.469807    0.000000
   245  O2    s     0.345574    0.947566    0.801680    0.000000
   246  O2    s     0.046035    0.371304    0.133917    0.000000
   247  O2    s     0.340878    0.366864    0.366512    0.000000
   248  O2    s     0.043012    0.656638    0.033385    0.000000
   249  O2    s     0.626226    0.943717    0.698281    0.000000
   250  O2    s     0.669565    0.608757    0.866173    0.000000
   251  O2    s     0.964633    0.325737    0.531960    0.000000
   252  O2    s     0.389188    0.031527    0.199301    0.000000
   253  O2    s     0.779989    0.311084    0.015124    0.000000
   254  O2    s     0.689613    0.455227    0.348562    0.000000
   255  O2    s     0.535838    0.203456    0.679487    0.000000
   256  O2    s     0.224191    0.674171    0.515072    0.000000
   257  O2    s     0.318530    0.518074    0.850179    0.000000
   258  O2    s     0.475156    0.769061    0.182449    0.000000
   259  O2    s     0.311867    0.767297    0.319842    0.000000
   260  O2    s     0.476276    0.690151    0.986003    0.000000
   261  O2    s     0.223649    0.516924    0.653653    0.000000
   262  O2    s     0.691684    0.205438    0.818504    0.000000
   263  O2    s     0.535329    0.299192    0.487653    0.000000
   264  O2    s     0.786781    0.457525    0.154192    0.000000
   265  O2    s     0.794641    0.529478    0.033841    0.000000
   266  O2    s     0.468924    0.247823    0.365611    0.000000
   267  O2    s     0.743507    0.189800    0.695906    0.000000
   268  O2    s     0.211374    0.453206    0.531488    0.000000
   269  O2    s     0.534782    0.718736    0.866643    0.000000
   270  O2    s     0.268629    0.782207    0.197265    0.000000
   271  O2    s     0.532930    0.778995    0.305004    0.000000
   272  O2    s     0.275163    0.469053    0.971312    0.000000
   273  O2    s     0.211490    0.726009    0.637047    0.000000
   274  O2    s     0.471763    0.194735    0.801105    0.000000
   275  O2    s     0.744378    0.520535    0.470801    0.000000
   276  O2    s     0.796889    0.251424    0.134063    0.000000
   277  O2    s     0.249374    0.323629    0.901782    0.000000
   278  O2    s     0.671878    0.897881    0.235559    0.000000
   279  O2    s     0.092553    0.742839    0.566672    0.000000
   280  O2    s     0.759664    0.655238    0.400322    0.000000
   281  O2    s     0.336078    0.073344    0.731623    0.000000
   282  O2    s     0.916975    0.238966    0.063330    0.000000
   283  O2    s     0.334433    0.230656    0.436006    0.000000
   284  O2    s     0.917852    0.662621    0.104224    0.000000
   285  O2    s     0.762328    0.074864    0.767202    0.000000
   286  O2    s     0.676916    0.748185    0.934906    0.000000
   287  O2    s     0.093037    0.317528    0.601607    0.000000
   288  O2    s     0.244898    0.898473    0.267452    0.000000
   289  O3    s     0.605264    0.576488    0.995260    0.000000
   290  O2    s     0.441335    0.014776    0.321227    0.000000
   291  O2    s     0.977176    0.400644    0.654353    0.000000
   292  O2    s     0.418850    0.428952    0.488740    0.000000
   293  O2    s     0.564020    0.958286    0.820312    0.000000
   294  O2    s     0.034583    0.575995    0.155357    0.000000
   295  O2    s     0.559208    0.571445    0.347505    0.000000
   296  O2    s     0.029116    0.440549    0.011775    0.000000
   297  O2    s     0.420817    0.957767    0.679136    0.000000
   298  O2    s     0.447556    0.401905    0.849620    0.000000
   299  O2    s     0.978056    0.544319    0.513322    0.000000
   300  O2    s     0.593491    0.018232    0.182361    0.000000
   301  O2    s     0.584528    0.148124    0.252081    0.000000
   302  O2    s     0.847388    0.408402    0.583389    0.000000
   303  O3    s     0.600201    0.409268    0.912442    0.000000
   304  O2    s     0.426417    0.827735    0.750009    0.000000
   305  O2    s     0.164346    0.573167    0.083327    0.000000
   306  O2    s     0.424296    0.566351    0.417994    0.000000
   307  F     s     0.457697    0.895975    0.251822    0.000000
   308  F     s     0.096901    0.532637    0.584831    0.000000
   309  F     s     0.484897    0.511857    0.929342    0.000000
   310  F     s     0.550010    0.075847    0.750289    0.000000
   311  F     s     0.920525    0.450893    0.084286    0.000000
   312  F     s     0.550170    0.441055    0.418719    0.000000
--------------------------------------------------------------------------------

  Final Cartesian lattice vectors (Angstroms) :

       11.970138    0.001208   -0.000033
       -5.949428   10.391168   -0.002209
       -0.067561    0.047732   29.482507


  Final cell parameters and derivatives :

--------------------------------------------------------------------------------
       a           11.970138 Angstrom     dE/de1(xx)     0.001266 eV/strain
       b           11.973807 Angstrom     dE/de2(yy)     0.001753 eV/strain
       c           29.482623 Angstrom     dE/de3(zz)     0.003152 eV/strain
       alpha       89.864834 Degrees      dE/de4(yz)    -0.000479 eV/strain
       beta        90.131447 Degrees      dE/de5(xz)     0.000013 eV/strain
       gamma      119.787364 Degrees      dE/de6(xy)    -0.000329 eV/strain
--------------------------------------------------------------------------------

  Primitive cell volume =          3667.356860 Angs**3

  Density of cell =      1.744606 g/cm**3

  Non-primitive cell volume =          3667.356860 Angs**3


  Final internal derivatives :

--------------------------------------------------------------------------------
   No.  Atomic          a             b             c           Radius
        Label          (eV)          (eV)          (eV)        (eV/Angs)
--------------------------------------------------------------------------------
      1 Si    c       0.000000      0.000000      0.000000      0.000000
      2 Si    c      -0.000019      0.000045      0.000216      0.000000
      3 Si    c       0.000046     -0.000091     -0.000182      0.000000
      4 Si    c      -0.000048     -0.000028      0.000196      0.000000
      5 Si    c       0.000063      0.000029     -0.001675      0.000000
      6 Si    c      -0.000154      0.000426     -0.000490      0.000000
      7 Si    c       0.000016      0.000083      0.001072      0.000000
      8 Si    c       0.000140     -0.000176      0.001021      0.000000
      9 Si    c      -0.000031     -0.000023     -0.000176      0.000000
     10 Si    c      -0.000061      0.000167      0.000676      0.000000
     11 Si    c      -0.000118      0.000118     -0.000331      0.000000
     12 Si    c       0.000801     -0.000049      0.000322      0.000000
     13 Ge    c       0.001045     -0.001508      0.004418      0.000000
     14 Si    c       0.000109     -0.000220      0.000885      0.000000
     15 Si    c      -0.000024      0.000036      0.000005      0.000000
     16 Si    c       0.000023     -0.000006     -0.000158      0.000000
     17 Si    c      -0.000104      0.000059      0.000393      0.000000
     18 Si    c      -0.000278     -0.000065     -0.000445      0.000000
     19 Si    c       0.000013      0.000016      0.000086      0.000000
     20 Si    c       0.000289     -0.000232     -0.000292      0.000000
     21 Si    c      -0.000015      0.000132      0.000006      0.000000
     22 Si    c       0.000122      0.000189     -0.003426      0.000000
     23 Si    c       0.000178      0.000009      0.000367      0.000000
     24 Si    c       0.000106     -0.000472     -0.001577      0.000000
     25 Si    c       0.000395     -0.000084     -0.000115      0.000000
     26 Si    c      -0.000089      0.000262     -0.000424      0.000000
     27 Si    c      -0.000046      0.000045     -0.000130      0.000000
     28 Si    c      -0.000012     -0.000005     -0.000023      0.000000
     29 Si    c       0.000029      0.000002     -0.000049      0.000000
     30 Si    c      -0.000074      0.000577     -0.001034      0.000000
     31 Si    c      -0.000011      0.000010     -0.000033      0.000000
     32 Si    c       0.000405     -0.000054      0.000381      0.000000
     33 Si    c      -0.000038     -0.000027      0.000176      0.000000
     34 Si    c      -0.000093      0.000257      0.001744      0.000000
     35 Si    c       0.000021      0.000008     -0.000040      0.000000
     36 Si    c       0.000183     -0.000232      0.001059      0.000000
     37 Si    c      -0.000714     -0.000090      0.002916      0.000000
     38 Si    c      -0.000122      0.000099      0.000519      0.000000
     39 Si    c      -0.000003      0.000002     -0.000034      0.000000
     40 Si    c       0.000008      0.000021      0.000035      0.000000
     41 Si    c       0.000113     -0.000085      0.000118      0.000000
     42 Si    c       0.000223     -0.000152      0.002076      0.000000
     43 Si    c       0.000059      0.000040      0.000165      0.000000
     44 Si    c       0.000382     -0.000302     -0.000996      0.000000
     45 Si    c      -0.000065      0.000064     -0.000111      0.000000
     46 Si    c       0.000061     -0.000158     -0.001020      0.000000
     47 Si    c      -0.000012      0.000031     -0.000003      0.000000
     48 Si    c       0.000407     -0.000257     -0.000839      0.000000
     49 Ge    c       0.000490      0.000916     -0.002671      0.000000
     50 Si    c      -0.000067      0.000050      0.000705      0.000000
     51 Si    c      -0.000130      0.000101      0.000257      0.000000
     52 Si    c      -0.000094      0.000111      0.000646      0.000000
     53 Si    c      -0.000358     -0.000135      0.000156      0.000000
     54 Si    c      -0.000594     -0.001910      0.000863      0.000000
     55 Si    c       0.000041     -0.000271     -0.000313      0.000000
     56 Si    c      -0.000723     -0.001666      0.001393      0.000000
     57 Si    c      -0.000031     -0.000034      0.000431      0.000000
     58 Si    c       0.000535     -0.000044      0.000619      0.000000
     59 Si    c      -0.000097     -0.000014      0.000212      0.000000
     60 Ge    c       0.000807     -0.001000     -0.002790      0.000000
     61 O3    c       0.001679      0.001319     -0.004282      0.000000
     62 O2    c      -0.000022     -0.000128     -0.000042      0.000000
     63 O2    c       0.000239     -0.000169     -0.000386      0.000000
     64 O2    c       0.000013     -0.000212     -0.000450      0.000000
     65 O2    c       0.000289      0.000254     -0.000265      0.000000
     66 O3    c      -0.000035      0.001450     -0.000243      0.000000
     67 O2    c      -0.000075      0.000023     -0.000243      0.000000
     68 O2    c       0.000052     -0.000018      0.000012      0.000000
     69 O2    c      -0.000255      0.000155      0.000332      0.000000
     70 O2    c       0.000429     -0.000463     -0.000972      0.000000
     71 O2    c      -0.000613     -0.000051      0.001541      0.000000
     72 O2    c      -0.000042     -0.000128     -0.000107      0.000000
     73 O3    c      -0.000975      0.001441     -0.001213      0.000000
     74 O2    c       0.000004      0.000021     -0.000047      0.000000
     75 O2    c       0.000120     -0.000243     -0.000633      0.000000
     76 O2    c       0.000027      0.000040     -0.000088      0.000000
     77 O2    c       0.000021     -0.000183     -0.000376      0.000000
     78 O2    c       0.000002      0.000043      0.000035      0.000000
     79 O3    c      -0.000131      0.001355     -0.002077      0.000000
     80 O2    c       0.000250     -0.000229      0.000074      0.000000
     81 O2    c      -0.000022      0.000082      0.000035      0.000000
     82 O2    c      -0.000116     -0.000021      0.000007      0.000000
     83 O2    c      -0.000049      0.000078      0.000006      0.000000
     84 O2    c      -0.000382      0.002616     -0.000910      0.000000
     85 O2    c      -0.000021      0.000099     -0.000121      0.000000
     86 O2    c       0.000245     -0.000287      0.000570      0.000000
     87 O2    c       0.000154     -0.000000      0.000028      0.000000
     88 O2    c      -0.000073     -0.000090     -0.000053      0.000000
     89 O2    c      -0.000015     -0.000002     -0.000057      0.000000
     90 O3    c      -0.000784      0.000417     -0.000588      0.000000
     91 O3    c      -0.000423     -0.000035      0.006760      0.000000
     92 O2    c      -0.000023      0.000067     -0.000241      0.000000
     93 O3    c      -0.000749     -0.001124     -0.001243      0.000000
     94 O2    c      -0.000143      0.000067     -0.000655      0.000000
     95 O2    c       0.000124      0.000981      0.001897      0.000000
     96 O2    c       0.000172      0.000086     -0.000688      0.000000
     97 O3    c      -0.001605      0.001691      0.000457      0.000000
     98 O2    c       0.000017     -0.000115     -0.000019      0.000000
     99 O2    c       0.000016      0.000007      0.000056      0.000000
    100 O2    c       0.000131     -0.000178      0.000047      0.000000
    101 O2    c      -0.000137     -0.000072     -0.000635      0.000000
    102 O2    c       0.000126      0.000290     -0.000087      0.000000
    103 O2    c      -0.000163      0.000135      0.000020      0.000000
    104 O2    c      -0.000094     -0.000038     -0.000135      0.000000
    105 O2    c       0.000018     -0.000000     -0.000044      0.000000
    106 O2    c       0.000137     -0.000169     -0.000198      0.000000
    107 O2    c       0.000129      0.000022     -0.000088      0.000000
    108 O3    c      -0.000019     -0.000046      0.000364      0.000000
    109 O2    c      -0.000001     -0.000292     -0.000230      0.000000
    110 O2    c       0.000007      0.000012     -0.000013      0.000000
    111 O2    c      -0.000352      0.000218      0.001172      0.000000
    112 O2    c       0.000025      0.000134     -0.000459      0.000000
    113 O2    c      -0.000668      0.000437     -0.001214      0.000000
    114 O2    c       0.000005     -0.000010      0.000005      0.000000
    115 O3    c      -0.000159      0.000433     -0.000579      0.000000
    116 O2    c      -0.000007     -0.000020     -0.000051      0.000000
    117 O2    c      -0.000022     -0.000014      0.000021      0.000000
    118 O2    c      -0.000026      0.000014      0.000017      0.000000
    119 O2    c       0.000054     -0.000011      0.000017      0.000000
    120 O2    c      -0.000072      0.000113     -0.000101      0.000000
    121 O2    c      -0.000009     -0.000010     -0.000080      0.000000
    122 O2    c       0.000058      0.000046     -0.000178      0.000000
    123 O2    c      -0.000012      0.000020     -0.000012      0.000000
    124 O2    c      -0.000021      0.000011      0.000050      0.000000
    125 O2    c       0.000045     -0.000040     -0.000001      0.000000
    126 O2    c       0.000020     -0.000004     -0.000148      0.000000
    127 O2    c      -0.000559      0.000281     -0.000068      0.000000
    128 O2    c       0.000029     -0.000021     -0.000133      0.000000
    129 O2    c      -0.000025      0.000009     -0.000020      0.000000
    130 O2    c       0.000005      0.000015     -0.000014      0.000000
    131 O2    c       0.000071     -0.000047      0.000044      0.000000
    132 O2    c      -0.000181     -0.000116     -0.000174      0.000000
    133 O2    c       0.000039     -0.000093     -0.000139      0.000000
    134 O2    c       0.000032     -0.000087      0.000076      0.000000
    135 O2    c       0.000007      0.000004     -0.000001      0.000000
    136 O2    c       0.000090     -0.000083      0.000205      0.000000
    137 O2    c      -0.000016     -0.000009      0.000055      0.000000
    138 O2    c      -0.000136     -0.000563      0.000203      0.000000
    139 O2    c      -0.000414      0.000728      0.001575      0.000000
    140 O2    c      -0.000010     -0.000022     -0.000065      0.000000
    141 O2    c      -0.000023      0.000015      0.000003      0.000000
    142 O2    c       0.000023      0.000045     -0.000030      0.000000
    143 O2    c      -0.000163      0.000075     -0.000077      0.000000
    144 O2    c       0.000013     -0.000009      0.000048      0.000000
    145 O2    c      -0.000037     -0.000058     -0.000007      0.000000
    146 O2    c       0.000649     -0.001218     -0.001162      0.000000
    147 O2    c       0.000035      0.000006      0.000028      0.000000
    148 O2    c      -0.000133      0.000019      0.000237      0.000000
    149 O2    c       0.000052     -0.000018      0.000168      0.000000
    150 O2    c       0.000114     -0.000365      0.000056      0.000000
    151 O2    c      -0.000295      0.000107     -0.002504      0.000000
    152 O2    c       0.000279     -0.000219     -0.000219      0.000000
    153 O2    c      -0.000023      0.000048      0.000005      0.000000
    154 O2    c      -0.000003      0.000020     -0.000037      0.000000
    155 O2    c      -0.000055      0.000065     -0.000071      0.000000
    156 O2    c       0.000310     -0.000498     -0.002227      0.000000
    157 O2    c      -0.000027     -0.000019     -0.000032      0.000000
    158 O2    c       0.000041     -0.000038      0.000142      0.000000
    159 O2    c       0.000034      0.000001     -0.000107      0.000000
    160 O2    c       0.000127     -0.000073      0.000885      0.000000
    161 O2    c       0.000003      0.000004      0.000035      0.000000
    162 O2    c      -0.000365      0.000205     -0.000669      0.000000
    163 O3    c      -0.000989      0.000266     -0.001104      0.000000
    164 O2    c       0.000001      0.000008      0.000021      0.000000
    165 O2    c       0.000004      0.000006      0.000016      0.000000
    166 O2    c      -0.000013      0.000049      0.000033      0.000000
    167 O2    c       0.000002      0.000023      0.000126      0.000000
    168 O2    c      -0.000086      0.000102      0.000191      0.000000
    169 O2    c       0.000007      0.000011     -0.000051      0.000000
    170 O2    c      -0.000008     -0.000369     -0.000282      0.000000
    171 O2    c       0.000024     -0.000019     -0.000001      0.000000
    172 O2    c      -0.000227      0.000111      0.000110      0.000000
    173 O2    c      -0.000039      0.000004     -0.000043      0.000000
    174 O2    c      -0.000032      0.000191     -0.000239      0.000000
    175 O2    c       0.000064      0.000312      0.000866      0.000000
    176 O2    c      -0.000017      0.000006     -0.000017      0.000000
    177 O3    c       0.001287     -0.001485      0.002730      0.000000
    178 O2    c       0.000034     -0.000063     -0.000301      0.000000
    179 O2    c       0.000097     -0.000056      0.000421      0.000000
    180 O2    c       0.000006      0.000011      0.000039      0.000000
    181 F     c      -0.000029      0.000093     -0.000204      0.000000
    182 F     c      -0.000021      0.000038     -0.000024      0.000000
    183 F     c      -0.000407      0.000723     -0.001075      0.000000
    184 F     c      -0.000044      0.000145      0.000275      0.000000
    185 F     c       0.000062     -0.000083      0.000389      0.000000
    186 F     c       0.000031     -0.000032      0.000017      0.000000
    187 O3    s      -0.000225     -0.000930     -0.000131      0.000000
    188 O2    s      -0.000086      0.000168     -0.000178      0.000000
    189 O2    s      -0.000125      0.000050      0.000348      0.000000
    190 O2    s       0.000039      0.000059      0.000371      0.000000
    191 O2    s      -0.000212     -0.000094      0.000929      0.000000
    192 O3    s       0.000563     -0.000267      0.002341      0.000000
    193 O2    s       0.000027     -0.000143      0.000221      0.000000
    194 O2    s      -0.000020      0.000033      0.000017      0.000000
    195 O2    s       0.000048     -0.000083      0.000011      0.000000
    196 O2    s      -0.000113      0.000110      0.000054      0.000000
    197 O2    s       0.000133      0.000077      0.000076      0.000000
    198 O2    s       0.000012      0.000086      0.000033      0.000000
    199 O3    s       0.000363     -0.001803      0.001005      0.000000
    200 O2    s      -0.000008      0.000026      0.000016      0.000000
    201 O2    s       0.000021      0.000040      0.000277      0.000000
    202 O2    s       0.000018     -0.000030     -0.000013      0.000000
    203 O2    s       0.000124     -0.000118     -0.000147      0.000000
    204 O2    s      -0.000004      0.000069     -0.000020      0.000000
    205 O3    s       0.000016     -0.000213      0.001328      0.000000
    206 O2    s       0.000248     -0.000043     -0.000094      0.000000
    207 O2    s      -0.000036      0.000049     -0.000039      0.000000
    208 O2    s      -0.000102      0.000095     -0.000043      0.000000
    209 O2    s      -0.000206      0.000038     -0.000091      0.000000
    210 O2    s       0.000338     -0.000378      0.001441      0.000000
    211 O2    s      -0.000045     -0.000020     -0.000092      0.000000
    212 O2    s       0.000385     -0.000905     -0.000635      0.000000
    213 O2    s       0.000029      0.000003      0.000007      0.000000
    214 O2    s       0.000364      0.000045     -0.000480      0.000000
    215 O2    s      -0.000041      0.000050      0.000052      0.000000
    216 O3    s       0.000461     -0.000101      0.000362      0.000000
    217 O3    s       0.000198      0.000015     -0.002716      0.000000
    218 O2    s       0.000040     -0.000086      0.000230      0.000000
    219 O3    s       0.000502      0.000278     -0.000986      0.000000
    220 O2    s       0.000125     -0.000097      0.000504      0.000000
    221 O2    s      -0.000950     -0.000230      0.000555      0.000000
    222 O2    s      -0.000019     -0.000014     -0.000013      0.000000
    223 O3    s       0.000210     -0.000208     -0.000723      0.000000
    224 O2    s      -0.000042      0.000172     -0.000312      0.000000
    225 O2    s      -0.000048      0.000032     -0.000104      0.000000
    226 O2    s       0.000024     -0.000005      0.000174      0.000000
    227 O2    s       0.000196     -0.000060     -0.000473      0.000000
    228 O2    s       0.000043     -0.000778     -0.000618      0.000000
    229 O2    s      -0.000070      0.000069      0.000427      0.000000
    230 O2    s      -0.000341     -0.000053     -0.000792      0.000000
    231 O2    s      -0.000044     -0.000010      0.000197      0.000000
    232 O2    s       0.000118      0.000063     -0.000004      0.000000
    233 O2    s      -0.000009      0.000010      0.000013      0.000000
    234 O3    s      -0.000019     -0.000389     -0.000350      0.000000
    235 O2    s       0.000036     -0.000035      0.000243      0.000000
    236 O2    s       0.000029      0.000012      0.000000      0.000000
    237 O2    s       0.000135     -0.000220     -0.000979      0.000000
    238 O2    s      -0.000046     -0.000139      0.000634      0.000000
    239 O2    s      -0.000169      0.000198     -0.000085      0.000000
    240 O2    s       0.000018      0.000006     -0.000009      0.000000
    241 O3    s      -0.000564      0.000108      0.000103      0.000000
    242 O2    s       0.000028      0.000105      0.000238      0.000000
    243 O2    s      -0.000008      0.000013      0.000046      0.000000
    244 O2    s       0.000005      0.000007     -0.000036      0.000000
    245 O2    s      -0.000106      0.000011     -0.000110      0.000000
    246 O2    s       0.000136     -0.000286      0.000072      0.000000
    247 O2    s      -0.000040      0.000035      0.000065      0.000000
    248 O2    s      -0.000430      0.000031      0.000476      0.000000
    249 O2    s       0.000036     -0.000033     -0.000022      0.000000
    250 O2    s       0.000120     -0.000037     -0.000042      0.000000
    251 O2    s      -0.000008     -0.000010     -0.000015      0.000000
    252 O2    s      -0.000027      0.000089      0.000434      0.000000
    253 O2    s       0.000749     -0.000392      0.000150      0.000000
    254 O2    s      -0.000014      0.000055      0.000162      0.000000
    255 O2    s      -0.000015      0.000059     -0.000026      0.000000
    256 O2    s      -0.000031      0.000010     -0.000009      0.000000
    257 O2    s       0.000094     -0.000058      0.000104      0.000000
    258 O2    s       0.000077     -0.000112     -0.000194      0.000000
    259 O2    s      -0.000023     -0.000062      0.000397      0.000000
    260 O2    s      -0.000016     -0.000005     -0.000547      0.000000
    261 O2    s      -0.000011      0.000004      0.000072      0.000000
    262 O2    s      -0.000151      0.000167     -0.000532      0.000000
    263 O2    s      -0.000012      0.000028     -0.000099      0.000000
    264 O2    s      -0.000194      0.000691      0.000329      0.000000
    265 O2    s       0.000262      0.000178     -0.000401      0.000000
    266 O2    s      -0.000055      0.000063      0.000063      0.000000
    267 O2    s       0.000041      0.000042     -0.000011      0.000000
    268 O2    s      -0.000012     -0.000008     -0.000035      0.000000
    269 O2    s      -0.000030     -0.000047     -0.000046      0.000000
    270 O2    s      -0.000130      0.000027     -0.000205      0.000000
    271 O2    s       0.000083     -0.000021      0.000252      0.000000
    272 O2    s       0.000574     -0.000256      0.000173      0.000000
    273 O2    s      -0.000034      0.000016      0.000007      0.000000
    274 O2    s       0.000239      0.000009     -0.000549      0.000000
    275 O2    s      -0.000068     -0.000029     -0.000255      0.000000
    276 O2    s       0.000432      0.000015     -0.000649      0.000000
    277 O2    s       0.000249      0.000299      0.001906      0.000000
    278 O2    s      -0.000250      0.000249      0.000470      0.000000
    279 O2    s       0.000055     -0.000055     -0.000030      0.000000
    280 O2    s       0.000023     -0.000032      0.000071      0.000000
    281 O2    s       0.000024     -0.000056      0.000095      0.000000
    282 O2    s      -0.000541      0.000624      0.000880      0.000000
    283 O2    s       0.000030      0.000051      0.000028      0.000000
    284 O2    s      -0.000064     -0.000121     -0.000368      0.000000
    285 O2    s      -0.000016      0.000007      0.000168      0.000000
    286 O2    s       0.000088     -0.000255      0.000026      0.000000
    287 O2    s      -0.000028      0.000025     -0.000036      0.000000
    288 O2    s       0.000097      0.000034      0.000355      0.000000
    289 O3    s       0.000918      0.000426      0.001349      0.000000
    290 O2    s       0.000059      0.000109      0.000128      0.000000
    291 O2    s      -0.000018      0.000018     -0.000005      0.000000
    292 O2    s      -0.000025     -0.000009     -0.000011      0.000000
    293 O2    s       0.000038     -0.000038     -0.000221      0.000000
    294 O2    s       0.000004      0.000091      0.000173      0.000000
    295 O2    s       0.000008     -0.000007      0.000034      0.000000
    296 O2    s      -0.000025     -0.000020      0.000039      0.000000
    297 O2    s      -0.000060      0.000055      0.000011      0.000000
    298 O2    s      -0.000060     -0.000141      0.000558      0.000000
    299 O2    s       0.000052     -0.000016      0.000084      0.000000
    300 O2    s      -0.000046      0.000056      0.000308      0.000000
    301 O2    s      -0.000039     -0.000184      0.000051      0.000000
    302 O2    s       0.000025      0.000012      0.000080      0.000000
    303 O3    s      -0.000920      0.000914     -0.000151      0.000000
    304 O2    s      -0.000046      0.000111      0.000336      0.000000
    305 O2    s       0.000066      0.000069     -0.000415      0.000000
    306 O2    s      -0.000026     -0.000011      0.000042      0.000000
    307 F     s       0.000065     -0.000179      0.000404      0.000000
    308 F     s       0.000018     -0.000044      0.000011      0.000000
    309 F     s      -0.000795      0.000647     -0.001717      0.000000
    310 F     s       0.000048     -0.000202     -0.000325      0.000000
    311 F     s      -0.000196      0.000192     -0.000701      0.000000
    312 F     s      -0.000053      0.000062     -0.000013      0.000000
--------------------------------------------------------------------------------
  Maximum abs         0.001679      0.002616      0.006760      0.000000
--------------------------------------------------------------------------------


  Time to end of optimisation =      17.0254 seconds


  Peak dynamic memory used =      19.13 MB 


  Timing analysis for GULP :

--------------------------------------------------------------------------------
  Task / Subroutine                                          Time (Seconds)
--------------------------------------------------------------------------------
  Calculation of reciprocal space energy and derivatives          0.4607
  Calculation of real space energy and derivatives               14.4772
  Calculation of three-body energy and derivatives                1.7513
  Calculation of matrix inversion                                 0.2845
--------------------------------------------------------------------------------
  Total CPU time                                                 17.0254
--------------------------------------------------------------------------------


  Dump file written as out.res                                                 
  CIF file written as out.cif                                                 


  Job Finished at 14:16.31 27th November   2016                               

