********************************************************************************
*                       GENERAL UTILITY LATTICE PROGRAM                        *
*                                 Julian Gale                                  *
*                      Nanochemistry Research Institute                        *
*                           Department of Chemistry                            *
*                    Curtin University, Western Australia                      *
********************************************************************************
* Version = 4.2.0 * Last modified =  20th January 2014                         *
********************************************************************************
*  optimise     - perform optimisation run                                     *
*  conp         - constant pressure calculation                                *
*  qok          - running with non charge neutral cell is OK                   *
********************************************************************************

  Job Started  at 05:14.19 27th November   2016                               

  Number of CPUs =     1


  Total number of configurations input =   1

********************************************************************************
*  Input for Configuration =   1                                               *
********************************************************************************

  Formula = Si57Ge3O120F6                                               

  Number of irreducible atoms/shells =     312


  Total number atoms/shells =     312

  Dimensionality = 3               :  Bulk   


  Charge on solid   =  -6.000000 =>neutralising background added


  Cartesian lattice vectors (Angstroms) :

       11.956447    0.000000    0.000000
       -5.991526   10.414288    0.000000
       -0.371614   -0.119583   29.366363

  Cell parameters (Angstroms/Degrees):

  a =      11.9564    alpha =  89.8407
  b =      12.0148    beta  =  90.7250
  c =      29.3690    gamma = 119.9126

  Initial cell volume =        3656.637444 Angs**3

  Temperature of configuration =  0.000     K 

  Pressure of configuration =         0.000 GPa 

  Fractional coordinates of asymmetric unit :

--------------------------------------------------------------------------------
   No.  Atomic       x           y          z         Charge      Occupancy
        Label      (Frac)      (Frac)     (Frac)        (e)         (Frac)  
--------------------------------------------------------------------------------
      1 Si    c    0.699600    0.375700    0.033890     4.00000    1.000000    
      2 Si    c    0.620935 *  0.323850 *  0.366859 *   4.00000    1.000000    
      3 Si    c    0.684493 *  0.308326 *  0.696232 *   4.00000    1.000000    
      4 Si    c    0.299136 *  0.616057 *  0.532680 *   4.00000    1.000000    
      5 Si    c    0.373983 *  0.683349 *  0.863910 *   4.00000    1.000000    
      6 Si    c    0.324533 *  0.705822 *  0.200627 *   4.00000    1.000000    
      7 Si    c    0.379959 *  0.703235 *  0.301641 *   4.00000    1.000000    
      8 Si    c    0.314985 *  0.616142 *  0.965548 *   4.00000    1.000000    
      9 Si    c    0.302309 *  0.668422 *  0.633634 *   4.00000    1.000000    
     10 Si    c    0.627105 *  0.306097 *  0.798824 *   4.00000    1.000000    
     11 Si    c    0.677160 *  0.378599 *  0.467884 *   4.00000    1.000000    
     12 Si    c    0.700110 *  0.325266 *  0.135383 *   4.00000    1.000000    
     13 Si    c    0.526493 *  0.409881 *  0.966217 *   4.00000    1.000000    
     14 Si    c    0.583815 *  0.113583 *  0.302232 *   4.00000    1.000000    
     15 Si    c    0.900375 *  0.476073 *  0.633820 *   4.00000    1.000000    
     16 Si    c    0.471419 *  0.580367 *  0.467946 *   4.00000    1.000000    
     17 Si    c    0.412250 *  0.894652 *  0.798821 *   4.00000    1.000000    
     18 Si    c    0.112921 *  0.531833 *  0.135698 *   4.00000    1.000000    
     19 Si    c    0.417077 *  0.528244 *  0.365968 *   4.00000    1.000000    
     20 Si    c    0.111327 *  0.577019 *  0.033370 *   4.00000    1.000000    
     21 Si    c    0.467652 *  0.881815 *  0.696237 *   4.00000    1.000000    
     22 Si    c    0.587531 *  0.471966 *  0.863399 *   4.00000    1.000000    
     23 Si    c    0.890987 *  0.417965 *  0.532550 *   4.00000    1.000000    
     24 Si    c    0.529475 *  0.114450 *  0.200006 *   4.00000    1.000000    
     25 Ge    c    0.313645 *  0.413018 *  0.855457 *   4.00000    1.000000    
     26 Si    c    0.600635 *  0.906444 *  0.185914 *   4.00000    1.000000    
     27 Si    c    0.100222 *  0.696839 *  0.518606 *   4.00000    1.000000    
     28 Si    c    0.697010 *  0.600132 *  0.352140 *   4.00000    1.000000    
     29 Ge    c    0.413246 *  0.099179 *  0.690262 *   4.00000    1.000000    
     30 Si    c    0.900512 *  0.298057 *  0.020797 *   4.00000    1.000000    
     31 Si    c    0.398130 *  0.299857 *  0.482824 *   4.00000    1.000000    
     32 Si    c    0.902903 *  0.603813 *  0.148990 *   4.00000    1.000000    
     33 Si    c    0.699829 *  0.100226 *  0.813816 *   4.00000    1.000000    
     34 Si    c    0.596110 *  0.692660 *  0.983289 *   4.00000    1.000000    
     35 Si    c    0.100801 *  0.392852 *  0.648389 *   4.00000    1.000000    
     36 Si    c    0.303080 *  0.904433 *  0.316488 *   4.00000    1.000000    
     37 Si    c    0.243337 *  0.330972 *  0.951519 *   4.00000    1.000000    
     38 Si    c    0.660793 *  0.912432 *  0.286898 *   4.00000    1.000000    
     39 Si    c    0.101019 *  0.753474 *  0.619629 *   4.00000    1.000000    
     40 Si    c    0.750590 *  0.659332 *  0.453119 *   4.00000    1.000000    
     41 Si    c    0.335181 *  0.099682 *  0.786168 *   4.00000    1.000000    
     42 Si    c    0.910199 *  0.253351 *  0.122277 *   4.00000    1.000000    
     43 Si    c    0.340219 *  0.251169 *  0.381287 *   4.00000    1.000000    
     44 Si    c    0.910026 *  0.653599 *  0.047541 *   4.00000    1.000000    
     45 Si    c    0.750746 *  0.089586 *  0.712102 *   4.00000    1.000000    
     46 Si    c    0.660224 *  0.751732 *  0.881947 *   4.00000    1.000000    
     47 Si    c    0.089989 *  0.336720 *  0.547123 *   4.00000    1.000000    
     48 Si    c    0.252008 *  0.912738 *  0.215233 *   4.00000    1.000000    
     49 Si    c    0.968297 *  0.121610 *  0.968731 *   4.00000    1.000000    
     50 Si    c    0.877635 *  0.847570 *  0.302329 *   4.00000    1.000000    
     51 Si    c    0.161250 *  0.033404 *  0.636126 *   4.00000    1.000000    
     52 Si    c    0.031406 *  0.877168 *  0.468475 *   4.00000    1.000000    
     53 Si    c    0.122680 *  0.163397 *  0.803285 *   4.00000    1.000000    
     54 Si    c    0.850002 *  0.976307 *  0.137503 *   4.00000    1.000000    
     55 Si    c    0.123437 *  0.971341 *  0.367510 *   4.00000    1.000000    
     56 Ge    c    0.847935 *  0.874450 *  0.034826 *   4.00000    1.000000    
     57 Si    c    0.031264 *  0.146527 *  0.700129 *   4.00000    1.000000    
     58 Si    c    0.878523 *  0.032298 *  0.866567 *   4.00000    1.000000    
     59 Si    c    0.151959 *  0.119720 *  0.534198 *   4.00000    1.000000    
     60 Si    c    0.971230 *  0.850088 *  0.201346 *   4.00000    1.000000    
     61 O3    c    0.928538 *  0.996298 *  0.997353 *   1.33043    1.000000    
     62 O2    c    0.999394 *  0.927412 *  0.335262 *   0.87073    1.000000    
     63 O2    c    0.070194 *  0.064121 *  0.668145 *   0.87073    1.000000    
     64 O2    c    0.072876 *  0.997242 *  0.501521 *   0.87073    1.000000    
     65 O2    c    0.997208 *  0.073420 *  0.833781 *   0.87073    1.000000    
     66 O2    c    0.928226 *  0.932460 *  0.170513 *   0.87073    1.000000    
     67 O2    c    0.340936 *  0.579392 *  0.333551 *   0.87073    1.000000    
     68 O2    c    0.425699 *  0.750868 *  0.667413 *   0.87073    1.000000    
     69 O2    c    0.233673 *  0.653028 *  0.999917 *   0.87073    1.000000    
     70 O2    c    0.672309 *  0.428321 *  0.832797 *   0.87073    1.000000    
     71 O2    c    0.577765 *  0.240520 *  0.167845 *   0.87073    1.000000    
     72 O2    c    0.763271 *  0.340891 *  0.500462 *   0.87073    1.000000    
     73 O2    c    0.577123 *  0.336632 *  0.999730 *   0.87073    1.000000    
     74 O2    c    0.779801 *  0.434042 *  0.667518 *   0.87073    1.000000    
     75 O2    c    0.659925 *  0.239115 *  0.334515 *   0.87073    1.000000    
     76 O2    c    0.422029 *  0.655900 *  0.500131 *   0.87073    1.000000    
     77 O2    c    0.239266 *  0.581830 *  0.168132 *   0.87073    1.000000    
     78 O2    c    0.341657 *  0.777444 *  0.834303 *   0.87073    1.000000    
     79 O2    c    0.121541 *  0.213579 *  0.976961 *   0.87073    1.000000    
     80 O2    c    0.787752 *  0.912145 *  0.306780 *   0.87073    1.000000    
     81 O2    c    0.103219 *  0.878458 *  0.640411 *   0.87073    1.000000    
     82 O2    c    0.876965 *  0.785963 *  0.473015 *   0.87073    1.000000    
     83 O2    c    0.220352 *  0.107016 *  0.812257 *   0.87073    1.000000    
     84 O2    c    0.911023 *  0.129634 *  0.144072 *   0.87073    1.000000    
     85 O2    c    0.213338 *  0.124574 *  0.361231 *   0.87073    1.000000    
     86 O3    c    0.913904 *  0.778182 *  0.026289 *   1.33043    1.000000    
     87 O2    c    0.876386 *  0.088216 *  0.693454 *   0.87073    1.000000    
     88 O2    c    0.786488 *  0.877538 *  0.863258 *   0.87073    1.000000    
     89 O2    c    0.088684 *  0.210457 *  0.526868 *   0.87073    1.000000    
     90 O2    c    0.124889 *  0.912842 *  0.195139 *   0.87073    1.000000    
     91 O2    c    0.932422 *  0.859010 *  0.252217 *   0.87073    1.000000    
     92 O2    c    0.138746 *  0.069165 *  0.584926 *   0.87073    1.000000    
     93 O2    c    0.930093 *  0.076797 *  0.917106 *   0.87073    1.000000    
     94 O2    c    0.066681 *  0.135706 *  0.751809 *   0.87073    1.000000    
     95 O3    c    0.871207 *  0.942359 *  0.087305 *   1.33043    1.000000    
     96 O2    c    0.072582 *  0.932303 *  0.418128 *   0.87073    1.000000    
     97 O2    c    0.894129 *  0.197538 *  0.982826 *   0.87073    1.000000    
     98 O2    c    0.794524 *  0.696772 *  0.313839 *   0.87073    1.000000    
     99 O3    c    0.307909 *  0.106008 *  0.647789 *   1.33043    1.000000    
    100 O2    c    0.100398 *  0.794260 *  0.479977 *   0.87073    1.000000    
    101 O3    c    0.196642 *  0.310550 *  0.813886 *   1.33043    1.000000    
    102 O2    c    0.697119 *  0.905418 *  0.147349 *   0.87073    1.000000    
    103 O2    c    0.205877 *  0.902622 *  0.354891 *   0.87073    1.000000    
    104 O3    c    0.683604 *  0.782619 *  0.023931 *   1.33043    1.000000    
    105 O2    c    0.101978 *  0.297094 *  0.687040 *   0.87073    1.000000    
    106 O2    c    0.792040 *  0.097150 *  0.853670 *   0.87073    1.000000    
    107 O2    c    0.303257 *  0.202422 *  0.521183 *   0.87073    1.000000    
    108 O2    c    0.901007 *  0.700247 *  0.187071 *   0.87073    1.000000    
    109 O2    c    0.324005 *  0.647634 *  0.250767 *   0.87073    1.000000    
    110 O2    c    0.358761 *  0.671177 *  0.583175 *   0.87073    1.000000    
    111 O2    c    0.314769 *  0.672140 *  0.915204 *   0.87073    1.000000    
    112 O2    c    0.679055 *  0.357029 *  0.748127 *   0.87073    1.000000    
    113 O2    c    0.642299 *  0.321891 *  0.084324 *   0.87073    1.000000    
    114 O2    c    0.678208 *  0.323028 *  0.417335 *   0.87073    1.000000    
    115 O2    c    0.370741 *  0.324007 *  0.968089 *   0.87073    1.000000    
    116 O2    c    0.671261 *  0.044646 *  0.305142 *   0.87073    1.000000    
    117 O2    c    0.968038 *  0.630847 *  0.636769 *   0.87073    1.000000    
    118 O2    c    0.627716 *  0.668606 *  0.470978 *   0.87073    1.000000    
    119 O2    c    0.326761 *  0.964242 *  0.801327 *   0.87073    1.000000    
    120 O2    c    0.043496 *  0.376510 *  0.139586 *   0.87073    1.000000    
    121 O2    c    0.329262 *  0.372577 *  0.362257 *   0.87073    1.000000    
    122 O2    c    0.041736 *  0.662816 *  0.029534 *   0.87073    1.000000    
    123 O2    c    0.625422 *  0.957456 *  0.695683 *   0.87073    1.000000    
    124 O2    c    0.668042 *  0.628875 *  0.863666 *   0.87073    1.000000    
    125 O2    c    0.958024 *  0.329195 *  0.528533 *   0.87073    1.000000    
    126 O2    c    0.372912 *  0.044931 *  0.196547 *   0.87073    1.000000    
    127 O2    c    0.767482 *  0.300186 *  0.012345 *   0.87073    1.000000    
    128 O2    c    0.695814 *  0.466068 *  0.344067 *   0.87073    1.000000    
    129 O3    c    0.547136 *  0.246889 *  0.672298 *   1.33043    1.000000    
    130 O2    c    0.231469 *  0.692174 *  0.510306 *   0.87073    1.000000    
    131 O3    c    0.301746 *  0.549082 *  0.838584 *   1.33043    1.000000    
    132 O2    c    0.466568 *  0.773161 *  0.177544 *   0.87073    1.000000    
    133 O2    c    0.304956 *  0.771612 *  0.323470 *   0.87073    1.000000    
    134 O2    c    0.460634 *  0.690147 *  0.985814 *   0.87073    1.000000    
    135 O2    c    0.235809 *  0.525663 *  0.655491 *   0.87073    1.000000    
    136 O2    c    0.700888 *  0.233899 *  0.819012 *   0.87073    1.000000    
    137 O2    c    0.534023 *  0.302364 *  0.489689 *   0.87073    1.000000    
    138 O2    c    0.769385 *  0.469727 *  0.156448 *   0.87073    1.000000    
    139 O2    c    0.779821 *  0.530618 *  0.028234 *   0.87073    1.000000    
    140 O2    c    0.464573 *  0.249071 *  0.361461 *   0.87073    1.000000    
    141 O2    c    0.746786 *  0.213950 *  0.694087 *   0.87073    1.000000    
    142 O2    c    0.216734 *  0.460716 *  0.527571 *   0.87073    1.000000    
    143 O2    c    0.531795 *  0.751030 *  0.864401 *   0.87073    1.000000    
    144 O2    c    0.248881 *  0.786253 *  0.195126 *   0.87073    1.000000    
    145 O2    c    0.536062 *  0.786917 *  0.306392 *   0.87073    1.000000    
    146 O2    c    0.249728 *  0.462411 *  0.968996 *   0.87073    1.000000    
    147 O2    c    0.222883 *  0.744394 *  0.639081 *   0.87073    1.000000    
    148 O2    c    0.472628 *  0.219516 *  0.803629 *   0.87073    1.000000    
    149 O2    c    0.750459 *  0.533948 *  0.472776 *   0.87073    1.000000    
    150 O2    c    0.784664 *  0.254397 *  0.140941 *   0.87073    1.000000    
    151 O3    c    0.213819 *  0.305225 *  0.898850 *   1.33043    1.000000    
    152 O2    c    0.676999 *  0.910718 *  0.232341 *   0.87073    1.000000    
    153 O2    c    0.101599 *  0.770003 *  0.564899 *   0.87073    1.000000    
    154 O2    c    0.768684 *  0.675378 *  0.398581 *   0.87073    1.000000    
    155 O3    c    0.309012 *  0.101283 *  0.733337 *   1.33043    1.000000    
    156 O2    c    0.904939 *  0.229634 *  0.067880 *   0.87073    1.000000    
    157 O2    c    0.323888 *  0.231995 *  0.435666 *   0.87073    1.000000    
    158 O2    c    0.905974 *  0.676103 *  0.101886 *   0.87073    1.000000    
    159 O2    c    0.763333 *  0.092487 *  0.766974 *   0.87073    1.000000    
    160 O2    c    0.671948 *  0.760435 *  0.936946 *   0.87073    1.000000    
    161 O2    c    0.092543 *  0.318321 *  0.601563 *   0.87073    1.000000    
    162 O2    c    0.233180 *  0.909787 *  0.269614 *   0.87073    1.000000    
    163 O2    c    0.574753 *  0.550333 *  0.987823 *   0.87073    1.000000    
    164 O2    c    0.443252 *  0.028604 *  0.324999 *   0.87073    1.000000    
    165 O2    c    0.978888 *  0.412500 *  0.657302 *   0.87073    1.000000    
    166 O2    c    0.415023 *  0.440033 *  0.491033 *   0.87073    1.000000    
    167 O2    c    0.556185 *  0.982519 *  0.819509 *   0.87073    1.000000    
    168 O2    c    0.028881 *  0.590055 *  0.157623 *   0.87073    1.000000    
    169 O2    c    0.557590 *  0.586772 *  0.342525 *   0.87073    1.000000    
    170 O2    c    0.028003 *  0.434588 *  0.011280 *   0.87073    1.000000    
    171 O3    c    0.407211 *  0.956454 *  0.670600 *   1.33043    1.000000    
    172 O3    c    0.453015 *  0.411548 *  0.836687 *   1.33043    1.000000    
    173 O2    c    0.972944 *  0.558966 *  0.509634 *   0.87073    1.000000    
    174 O2    c    0.587266 *  0.031877 *  0.176454 *   0.87073    1.000000    
    175 O2    c    0.582868 *  0.166312 *  0.251135 *   0.87073    1.000000    
    176 O2    c    0.840212 *  0.418777 *  0.583581 *   0.87073    1.000000    
    177 O2    c    0.580724 *  0.417253 *  0.915252 *   0.87073    1.000000    
    178 O2    c    0.414247 *  0.840283 *  0.748563 *   0.87073    1.000000    
    179 O2    c    0.166492 *  0.581091 *  0.084545 *   0.87073    1.000000    
    180 O2    c    0.417034 *  0.580493 *  0.416865 *   0.87073    1.000000    
    181 F     c    0.452715 *  0.905402 *  0.249355 *   0.56000    1.000000    
    182 F     c    0.099166 *  0.543708 *  0.582729 *   0.56000    1.000000    
    183 F     c    0.422545 *  0.518287 *  0.904957 *   0.56000    1.000000    
    184 F     c    0.519338 *  0.097063 *  0.738408 *   0.56000    1.000000    
    185 F     c    0.903469 *  0.453312 *  0.083358 *   0.56000    1.000000    
    186 F     c    0.548306 *  0.451737 *  0.415683 *   0.56000    1.000000    
    187 O3    s    0.925663 *  0.999106 *  0.997590 *  -3.33043    1.000000    
    188 O2    s    0.999514 *  0.923290 *  0.335146 *  -2.87073    1.000000    
    189 O2    s    0.075225 *  0.070144 *  0.668409 *  -2.87073    1.000000    
    190 O2    s    0.076907 *  0.997167 *  0.501383 *  -2.87073    1.000000    
    191 O2    s    0.996380 *  0.077954 *  0.834445 *  -2.87073    1.000000    
    192 O2    s    0.924262 *  0.928097 *  0.170278 *  -2.87073    1.000000    
    193 O2    s    0.352736 *  0.587087 *  0.333514 *  -2.87073    1.000000    
    194 O2    s    0.417586 *  0.755762 *  0.666927 *  -2.87073    1.000000    
    195 O2    s    0.229640 *  0.641367 *  0.999739 *  -2.87073    1.000000    
    196 O2    s    0.659397 *  0.420379 *  0.832417 *  -2.87073    1.000000    
    197 O2    s    0.585522 *  0.236566 *  0.167729 *  -2.87073    1.000000    
    198 O2    s    0.767397 *  0.352747 *  0.500348 *  -2.87073    1.000000    
    199 O2    s    0.584218 *  0.348195 *  0.999699 *  -2.87073    1.000000    
    200 O2    s    0.782149 *  0.424940 *  0.667113 *  -2.87073    1.000000    
    201 O2    s    0.648031 *  0.234620 *  0.334436 *  -2.87073    1.000000    
    202 O2    s    0.414551 *  0.643919 *  0.500124 *  -2.87073    1.000000    
    203 O2    s    0.234729 *  0.589277 *  0.168057 *  -2.87073    1.000000    
    204 O2    s    0.352535 *  0.779862 *  0.833721 *  -2.87073    1.000000    
    205 O2    s    0.117866 *  0.215911 *  0.973555 *  -2.87073    1.000000    
    206 O2    s    0.784057 *  0.905332 *  0.304267 *  -2.87073    1.000000    
    207 O2    s    0.108709 *  0.880382 *  0.637779 *  -2.87073    1.000000    
    208 O2    s    0.880096 *  0.782404 *  0.470494 *  -2.87073    1.000000    
    209 O2    s    0.222621 *  0.111824 *  0.808732 *  -2.87073    1.000000    
    210 O2    s    0.904550 *  0.126440 *  0.141151 *  -2.87073    1.000000    
    211 O2    s    0.216812 *  0.121306 *  0.363916 *  -2.87073    1.000000    
    212 O3    s    0.907961 *  0.773816 *  0.029125 *  -3.33043    1.000000    
    213 O2    s    0.878641 *  0.094275 *  0.696097 *  -2.87073    1.000000    
    214 O2    s    0.782529 *  0.880132 *  0.865576 *  -2.87073    1.000000    
    215 O2    s    0.095414 *  0.214010 *  0.529685 *  -2.87073    1.000000    
    216 O2    s    0.121611 *  0.906141 *  0.197833 *  -2.87073    1.000000    
    217 O2    s    0.930690 *  0.856680 *  0.252013 *  -2.87073    1.000000    
    218 O2    s    0.142601 *  0.071242 *  0.584408 *  -2.87073    1.000000    
    219 O2    s    0.928433 *  0.076708 *  0.917134 *  -2.87073    1.000000    
    220 O2    s    0.068589 *  0.139858 *  0.751436 *  -2.87073    1.000000    
    221 O3    s    0.866850 *  0.939836 *  0.087924 *  -3.33043    1.000000    
    222 O2    s    0.073785 *  0.930594 *  0.417966 *  -2.87073    1.000000    
    223 O2    s    0.902584 *  0.199933 *  0.985300 *  -2.87073    1.000000    
    224 O2    s    0.793516 *  0.703109 *  0.316503 *  -2.87073    1.000000    
    225 O3    s    0.298269 *  0.097301 *  0.649275 *  -3.33043    1.000000    
    226 O2    s    0.093019 *  0.793209 *  0.482684 *  -2.87073    1.000000    
    227 O3    s    0.196251 *  0.301121 *  0.815468 *  -3.33043    1.000000    
    228 O2    s    0.703547 *  0.912966 *  0.150145 *  -2.87073    1.000000    
    229 O2    s    0.207268 *  0.910054 *  0.352236 *  -2.87073    1.000000    
    230 O3    s    0.687722 *  0.780770 *  0.020704 *  -3.33043    1.000000    
    231 O2    s    0.094437 *  0.291270 *  0.684377 *  -2.87073    1.000000    
    232 O2    s    0.791246 *  0.090646 *  0.850747 *  -2.87073    1.000000    
    233 O2    s    0.297426 *  0.203959 *  0.518543 *  -2.87073    1.000000    
    234 O2    s    0.908619 *  0.706070 *  0.184610 *  -2.87073    1.000000    
    235 O2    s    0.329799 *  0.659360 *  0.250779 *  -2.87073    1.000000    
    236 O2    s    0.346856 *  0.665233 *  0.583170 *  -2.87073    1.000000    
    237 O2    s    0.320431 *  0.667367 *  0.915519 *  -2.87073    1.000000    
    238 O2    s    0.674056 *  0.346934 *  0.748497 *  -2.87073    1.000000    
    239 O2    s    0.653943 *  0.327720 *  0.084317 *  -2.87073    1.000000    
    240 O2    s    0.672179 *  0.328775 *  0.417254 *  -2.87073    1.000000    
    241 O2    s    0.374322 *  0.333692 *  0.966217 *  -2.87073    1.000000    
    242 O2    s    0.661209 *  0.037911 *  0.302926 *  -2.87073    1.000000    
    243 O2    s    0.974810 *  0.627336 *  0.634645 *  -2.87073    1.000000    
    244 O2    s    0.624508 *  0.658561 *  0.468779 *  -2.87073    1.000000    
    245 O2    s    0.336724 *  0.970144 *  0.799548 *  -2.87073    1.000000    
    246 O2    s    0.036570 *  0.379532 *  0.137341 *  -2.87073    1.000000    
    247 O2    s    0.339364 *  0.375922 *  0.364608 *  -2.87073    1.000000    
    248 O2    s    0.035118 *  0.652733 *  0.031868 *  -2.87073    1.000000    
    249 O2    s    0.623010 *  0.963961 *  0.697491 *  -2.87073    1.000000    
    250 O2    s    0.659126 *  0.626078 *  0.865577 *  -2.87073    1.000000    
    251 O2    s    0.964968 *  0.339090 *  0.530893 *  -2.87073    1.000000    
    252 O2    s    0.376435 *  0.038356 *  0.198843 *  -2.87073    1.000000    
    253 O2    s    0.774426 *  0.307822 *  0.015524 *  -2.87073    1.000000    
    254 O2    s    0.688286 *  0.465575 *  0.347270 *  -2.87073    1.000000    
    255 O3    s    0.552197 *  0.242983 *  0.676108 *  -3.33043    1.000000    
    256 O2    s    0.224591 *  0.684824 *  0.513515 *  -2.87073    1.000000    
    257 O3    s    0.310224 *  0.553558 *  0.842484 *  -3.33043    1.000000    
    258 O2    s    0.466183 *  0.780316 *  0.180810 *  -2.87073    1.000000    
    259 O2    s    0.312492 *  0.778562 *  0.320448 *  -2.87073    1.000000    
    260 O2    s    0.459942 *  0.682619 *  0.983384 *  -2.87073    1.000000    
    261 O2    s    0.228476 *  0.526465 *  0.652432 *  -2.87073    1.000000    
    262 O2    s    0.693168 *  0.226874 *  0.816349 *  -2.87073    1.000000    
    263 O2    s    0.534524 *  0.309972 *  0.486670 *  -2.87073    1.000000    
    264 O2    s    0.776124 *  0.468775 *  0.153460 *  -2.87073    1.000000    
    265 O2    s    0.785316 *  0.527497 *  0.030859 *  -2.87073    1.000000    
    266 O2    s    0.467428 *  0.257141 *  0.364108 *  -2.87073    1.000000    
    267 O2    s    0.740920 *  0.209521 *  0.696259 *  -2.87073    1.000000    
    268 O2    s    0.211638 *  0.463607 *  0.530164 *  -2.87073    1.000000    
    269 O2    s    0.530145 *  0.744315 *  0.866255 *  -2.87073    1.000000    
    270 O2    s    0.257175 *  0.791637 *  0.197826 *  -2.87073    1.000000    
    271 O2    s    0.533268 *  0.791893 *  0.303807 *  -2.87073    1.000000    
    272 O2    s    0.256260 *  0.465535 *  0.966809 *  -2.87073    1.000000    
    273 O2    s    0.217907 *  0.737241 *  0.636440 *  -2.87073    1.000000    
    274 O2    s    0.475284 *  0.216493 *  0.801342 *  -2.87073    1.000000    
    275 O2    s    0.742728 *  0.531412 *  0.470152 *  -2.87073    1.000000    
    276 O2    s    0.789548 *  0.261867 *  0.138347 *  -2.87073    1.000000    
    277 O3    s    0.223715 *  0.315214 *  0.901510 *  -3.33043    1.000000    
    278 O2    s    0.667264 *  0.910467 *  0.233180 *  -2.87073    1.000000    
    279 O2    s    0.101398 *  0.760543 *  0.565742 *  -2.87073    1.000000    
    280 O2    s    0.759213 *  0.665753 *  0.399432 *  -2.87073    1.000000    
    281 O3    s    0.318743 *  0.100964 *  0.736034 *  -3.33043    1.000000    
    282 O2    s    0.905003 *  0.239202 *  0.068677 *  -2.87073    1.000000    
    283 O2    s    0.333411 *  0.241153 *  0.434792 *  -2.87073    1.000000    
    284 O2    s    0.905997 *  0.666337 *  0.101182 *  -2.87073    1.000000    
    285 O2    s    0.755113 *  0.093024 *  0.766314 *  -2.87073    1.000000    
    286 O2    s    0.662987 *  0.752578 *  0.936040 *  -2.87073    1.000000    
    287 O2    s    0.093147 *  0.328130 *  0.600711 *  -2.87073    1.000000    
    288 O2    s    0.242536 *  0.909553 *  0.268731 *  -2.87073    1.000000    
    289 O2    s    0.571880 *  0.551095 *  0.985035 *  -2.87073    1.000000    
    290 O2    s    0.442830 *  0.023905 *  0.321671 *  -2.87073    1.000000    
    291 O2    s    0.983996 *  0.417134 *  0.653896 *  -2.87073    1.000000    
    292 O2    s    0.419287 *  0.439592 *  0.487719 *  -2.87073    1.000000    
    293 O2    s    0.556961 *  0.986419 *  0.816676 *  -2.87073    1.000000    
    294 O2    s    0.023864 *  0.585278 *  0.154385 *  -2.87073    1.000000    
    295 O2    s    0.557940 *  0.581948 *  0.345994 *  -2.87073    1.000000    
    296 O2    s    0.022915 *  0.434861 *  0.014613 *  -2.87073    1.000000    
    297 O3    s    0.414116 *  0.959127 *  0.674657 *  -3.33043    1.000000    
    298 O3    s    0.456582 *  0.418014 *  0.840774 *  -3.33043    1.000000    
    299 O2    s    0.978217 *  0.559065 *  0.512980 *  -2.87073    1.000000    
    300 O2    s    0.582524 *  0.026902 *  0.179903 *  -2.87073    1.000000    
    301 O2    s    0.577371 *  0.155460 *  0.251025 *  -2.87073    1.000000    
    302 O2    s    0.851686 *  0.424579 *  0.583455 *  -2.87073    1.000000    
    303 O2    s    0.575694 *  0.421823 *  0.915489 *  -2.87073    1.000000    
    304 O2    s    0.419178 *  0.850013 *  0.748814 *  -2.87073    1.000000    
    305 O2    s    0.155261 *  0.575621 *  0.084428 *  -2.87073    1.000000    
    306 O2    s    0.422655 *  0.574986 *  0.416806 *  -2.87073    1.000000    
    307 F     s    0.452531 *  0.904962 *  0.249146 *  -1.56000    1.000000    
    308 F     s    0.099352 *  0.543666 *  0.582688 *  -1.56000    1.000000    
    309 F     s    0.416120 *  0.512086 *  0.902124 *  -1.56000    1.000000    
    310 F     s    0.512460 *  0.097157 *  0.735376 *  -1.56000    1.000000    
    311 F     s    0.903152 *  0.453378 *  0.083188 *  -1.56000    1.000000    
    312 F     s    0.548515 *  0.451626 *  0.415508 *  -1.56000    1.000000    
--------------------------------------------------------------------------------



********************************************************************************
*  General input information                                                   *
********************************************************************************

  Species output for all configurations : 

--------------------------------------------------------------------------------
  Species    Type    Atomic    Atomic    Charge       Radii (Angs)     Library
                     Number     Mass       (e)     Cova   Ionic  VDW   Symbol
--------------------------------------------------------------------------------
    Si       Core       14      28.09   4.000000   1.200  0.000  2.100          
    O1       Core        8      16.00   1.733957   0.730  0.000  1.360          
    O1       Shell       8       0.00  -3.733957   0.730  0.000  1.360          
    O2       Core        8      16.00   0.870733   0.730  0.000  1.360          
    O2       Shell       8       0.00  -2.870733   0.730  0.000  1.360          
    O3       Core        8      16.00   1.330431   0.730  0.000  1.360          
    O3       Shell       8       0.00  -3.330431   0.730  0.000  1.360          
    F        Core        9      19.00   0.560000   0.710  0.000  1.300          
    F        Shell       9       0.00  -1.560000   0.710  0.000  1.300          
    Ge       Core       32      72.61   4.000000   1.170  0.000  1.750          
--------------------------------------------------------------------------------


  Lattice summation method               =    Ewald          (3-D)
                                         =    Parry          (2-D)
                                         =    Saunders et al (1-D)
  Accuracy factor for lattice sums       =   12.000


  Time limit = Infinity

  Maximum range for interatomic potentials =        16.000000 Angstroms

  Taper potentials to zero over   1.0000 Angstroms using polynomial

  General interatomic potentials :

--------------------------------------------------------------------------------
Atom  Types   Potential         A         B         C         D     Cutoffs(Ang)
  1     2                                                            Min    Max 
--------------------------------------------------------------------------------
Si   c O1   s Buckingham    0.132E+04 0.318      10.1      0.00     0.000 16.000
Si   c O2   s Buckingham    0.132E+04 0.318      10.1      0.00     0.000 16.000
Si   c O3   s Buckingham    0.132E+04 0.318      10.1      0.00     0.000 16.000
Ge   c O1   s Buckingham    0.150E+04 0.326      16.8      0.00     0.000 16.000
Ge   c O2   s Buckingham    0.150E+04 0.326      16.8      0.00     0.000 16.000
Ge   c O3   s Buckingham    0.150E+04 0.326      16.8      0.00     0.000 16.000
O1   s O1   s Buckingham    0.228E+05 0.149      10.9      0.00     0.000 16.000
O1   s O2   s Buckingham    0.228E+05 0.149      10.9      0.00     0.000 16.000
O1   s O3   s Buckingham    0.228E+05 0.149      10.9      0.00     0.000 16.000
O2   s O2   s Buckingham    0.228E+05 0.149      10.9      0.00     0.000 16.000
O2   s O3   s Buckingham    0.228E+05 0.149      10.9      0.00     0.000 16.000
O3   s O3   s Buckingham    0.228E+05 0.149      10.9      0.00     0.000 16.000
Si   c F    s Buckingham     977.     0.282      0.00      0.00     0.000 16.000
Ge   c F    s Buckingham     681.     0.320      0.00      0.00     0.000 16.000
F    s F    s Buckingham     540.     0.262      0.00      0.00     0.000 16.000
O1   s F    s Buckingham    0.168E+04 0.268      0.00      0.00     0.000 16.000
O2   s F    s Buckingham    0.168E+04 0.268      0.00      0.00     0.000 16.000
O3   s F    s Buckingham    0.168E+04 0.268      0.00      0.00     0.000 16.000
O2   c O2   s Spring (c-s)   76.0      0.00      0.00      0.00     0.000  0.800
O3   c O3   s Spring (c-s)   128.      0.00      0.00      0.00     0.000  0.800
O1   c O1   s Spring (c-s)   180.      0.00      0.00      0.00     0.000  0.800
F    c F    s Spring (c-s)   33.5      0.00      0.00      0.00     0.000  0.800
--------------------------------------------------------------------------------

  General Three-body potentials :

  Harmonic form:

--------------------------------------------------------------------------------
Atom    Atom    Atom           Force Constants            Theta     Cutoffs  
  1       2       3     (eVrad**-2/eVrad**-3/eVrad**-4)   (deg)  1-2  1-3  2-3
--------------------------------------------------------------------------------
Si    c O1    s O1    s  1.261        0.0000    0.0000   109.470 0.00 0.00 0.00
                                                                 1.90 1.90 3.50
Si    c O1    s O2    s  1.261        0.0000    0.0000   109.470 0.00 0.00 0.00
                                                                 1.90 1.90 3.50
Si    c O2    s O2    s  1.261        0.0000    0.0000   109.470 0.00 0.00 0.00
                                                                 1.90 1.90 3.50
--------------------------------------------------------------------------------

********************************************************************************
*  Output for configuration   1                                                *
********************************************************************************


  Components of energy : 

--------------------------------------------------------------------------------
  Interatomic potentials     =        2064.01106615 eV
  Three-body potentials      =           0.48760716 eV
  Monopole - monopole (real) =       -6613.02045944 eV
  Monopole - monopole (recip)=       -3171.38443772 eV
  Monopole - monopole (total)=       -9784.40489716 eV
  Neutralising energy        =          -6.46013079 eV
--------------------------------------------------------------------------------
  Total lattice energy       =       -7726.36635465 eV
--------------------------------------------------------------------------------
  Total lattice energy       =         -745476.2449 kJ/(mole unit cells)
--------------------------------------------------------------------------------


  Number of variables =      939

  Maximum number of calculations  =          1000
  Maximum Hessian update interval =            10
  Maximum step size               =   1.000000000
  Maximum parameter tolerance     =   0.000010000
  Maximum function  tolerance     =   0.000010000
  Maximum gradient  tolerance     =   0.001000000
  Maximum gradient  component     =   0.010000000

  Symmetry not applied to optimisation

  Cell parameters to be optimised using strains

  Newton-Raphson optimiser to be used

  BFGS hessian update to be used

  Dumpfile to be written after every cycle

  Start of bulk optimisation :

  Cycle:      0 Energy:     -7726.366355  Gnorm:      0.008089  CPU:    1.126
  ** Hessian calculated **
  Cycle:      1 Energy:     -7726.366516  Gnorm:      0.001541  CPU:    2.708
  Cycle:      2 Energy:     -7726.366557  Gnorm:      0.002048  CPU:    4.095
  Cycle:      3 Energy:     -7726.366769  Gnorm:      0.004759  CPU:    6.149
  Cycle:      4 Energy:     -7726.367226  Gnorm:      0.004932  CPU:    8.202
  Cycle:      5 Energy:     -7726.367927  Gnorm:      0.004295  CPU:   10.255
  Cycle:      6 Energy:     -7726.368819  Gnorm:      0.004748  CPU:   12.308
  Cycle:      7 Energy:     -7726.369801  Gnorm:      0.005946  CPU:   14.362
  Cycle:      8 Energy:     -7726.370644  Gnorm:      0.007608  CPU:   16.082
  Cycle:      9 Energy:     -7726.371477  Gnorm:      0.008350  CPU:   17.469
  Cycle:     10 Energy:     -7726.372454  Gnorm:      0.008416  CPU:   18.856
  ** Hessian calculated **
  Cycle:     11 Energy:     -7726.372888  Gnorm:      0.004319  CPU:   21.097
  Cycle:     12 Energy:     -7726.373201  Gnorm:      0.005830  CPU:   22.700
  Cycle:     13 Energy:     -7726.373792  Gnorm:      0.006303  CPU:   24.424
  Cycle:     14 Energy:     -7726.374219  Gnorm:      0.005128  CPU:   25.812
  Cycle:     15 Energy:     -7726.374529  Gnorm:      0.004255  CPU:   27.198
  Cycle:     16 Energy:     -7726.374719  Gnorm:      0.003480  CPU:   28.586
  Cycle:     17 Energy:     -7726.374875  Gnorm:      0.003505  CPU:   29.973
  Cycle:     18 Energy:     -7726.375025  Gnorm:      0.003327  CPU:   31.360
  Cycle:     19 Energy:     -7726.375207  Gnorm:      0.004680  CPU:   32.747
  Cycle:     20 Energy:     -7726.375406  Gnorm:      0.003352  CPU:   34.332
  ** Hessian calculated **
  Cycle:     21 Energy:     -7726.376438  Gnorm:      0.003284  CPU:   37.921
  Cycle:     22 Energy:     -7726.378037  Gnorm:      0.003178  CPU:   40.505
  Cycle:     23 Energy:     -7726.379994  Gnorm:      0.003042  CPU:   42.559
  Cycle:     24 Energy:     -7726.383149  Gnorm:      0.002809  CPU:   44.945
  Cycle:     25 Energy:     -7726.386870  Gnorm:      0.002508  CPU:   46.998
  Cycle:     26 Energy:     -7726.392311  Gnorm:      0.001989  CPU:   49.383
  Cycle:     27 Energy:     -7726.397507  Gnorm:      0.001325  CPU:   51.436
  Cycle:     28 Energy:     -7726.400802  Gnorm:      0.000620  CPU:   53.156
  Cycle:     29 Energy:     -7726.401541  Gnorm:      0.000140  CPU:   54.542


  **** Optimisation achieved ****


  Final energy =   -7726.40154205 eV
  Final Gnorm  =       0.00001837

  Components of energy : 

--------------------------------------------------------------------------------
  Interatomic potentials     =        2064.30765429 eV
  Three-body potentials      =           0.50037845 eV
  Monopole - monopole (real) =       -6611.85773296 eV
  Monopole - monopole (recip)=       -3172.88864594 eV
  Monopole - monopole (total)=       -9784.74637890 eV
  Neutralising energy        =          -6.46319589 eV
--------------------------------------------------------------------------------
  Total lattice energy       =       -7726.40154205 eV
--------------------------------------------------------------------------------
  Total lattice energy       =         -745479.6399 kJ/(mole unit cells)
--------------------------------------------------------------------------------

  Final fractional coordinates of atoms :

--------------------------------------------------------------------------------
   No.  Atomic        x           y          z          Radius
        Label       (Frac)      (Frac)     (Frac)       (Angs) 
--------------------------------------------------------------------------------
     1  Si    c     0.699600    0.375700    0.033890    0.000000
     2  Si    c     0.631375    0.329505    0.368026    0.000000
     3  Si    c     0.699286    0.321467    0.697356    0.000000
     4  Si    c     0.312707    0.624958    0.533539    0.000000
     5  Si    c     0.378278    0.689270    0.863473    0.000000
     6  Si    c     0.330445    0.710382    0.200732    0.000000
     7  Si    c     0.388487    0.708514    0.301860    0.000000
     8  Si    c     0.316185    0.619964    0.964959    0.000000
     9  Si    c     0.317947    0.678005    0.634398    0.000000
    10  Si    c     0.639470    0.315970    0.799854    0.000000
    11  Si    c     0.689307    0.386221    0.469073    0.000000
    12  Si    c     0.704810    0.328889    0.135637    0.000000
    13  Si    c     0.527674    0.413198    0.966658    0.000000
    14  Si    c     0.592904    0.119092    0.303093    0.000000
    15  Si    c     0.916840    0.487778    0.635517    0.000000
    16  Si    c     0.482989    0.587643    0.468525    0.000000
    17  Si    c     0.424119    0.904863    0.798919    0.000000
    18  Si    c     0.117638    0.535971    0.135365    0.000000
    19  Si    c     0.426794    0.534108    0.366452    0.000000
    20  Si    c     0.111995    0.578465    0.032743    0.000000
    21  Si    c     0.481342    0.893938    0.696261    0.000000
    22  Si    c     0.591799    0.476639    0.863973    0.000000
    23  Si    c     0.904677    0.427970    0.534027    0.000000
    24  Si    c     0.536149    0.119684    0.200867    0.000000
    25  Ge    c     0.317933    0.418853    0.855858    0.000000
    26  Si    c     0.606662    0.911472    0.186424    0.000000
    27  Si    c     0.114372    0.706850    0.519884    0.000000
    28  Si    c     0.706721    0.605384    0.353067    0.000000
    29  Ge    c     0.428116    0.112556    0.690938    0.000000
    30  Si    c     0.901113    0.299070    0.020657    0.000000
    31  Si    c     0.410211    0.307420    0.483714    0.000000
    32  Si    c     0.907213    0.607802    0.148710    0.000000
    33  Si    c     0.712060    0.109848    0.814375    0.000000
    34  Si    c     0.597406    0.696258    0.983659    0.000000
    35  Si    c     0.116931    0.403236    0.649883    0.000000
    36  Si    c     0.312290    0.910040    0.317145    0.000000
    37  Si    c     0.244441    0.334505    0.951520    0.000000
    38  Si    c     0.669380    0.917622    0.287336    0.000000
    39  Si    c     0.117852    0.764829    0.620993    0.000000
    40  Si    c     0.762267    0.666666    0.453970    0.000000
    41  Si    c     0.347327    0.110636    0.786687    0.000000
    42  Si    c     0.914743    0.257100    0.122312    0.000000
    43  Si    c     0.350572    0.257162    0.382141    0.000000
    44  Si    c     0.909916    0.653976    0.047020    0.000000
    45  Si    c     0.764369    0.101664    0.712586    0.000000
    46  Si    c     0.664234    0.756504    0.882508    0.000000
    47  Si    c     0.103828    0.346204    0.548428    0.000000
    48  Si    c     0.258810    0.917976    0.215925    0.000000
    49  Si    c     0.971130    0.123521    0.969672    0.000000
    50  Si    c     0.886361    0.852348    0.303040    0.000000
    51  Si    c     0.175231    0.044005    0.637034    0.000000
    52  Si    c     0.043042    0.885279    0.469335    0.000000
    53  Si    c     0.130214    0.167891    0.804263    0.000000
    54  Si    c     0.855355    0.980225    0.138094    0.000000
    55  Si    c     0.133338    0.977429    0.368115    0.000000
    56  Ge    c     0.849361    0.876008    0.035452    0.000000
    57  Si    c     0.043584    0.155178    0.700803    0.000000
    58  Si    c     0.886121    0.035526    0.867096    0.000000
    59  Si    c     0.164083    0.128127    0.534957    0.000000
    60  Si    c     0.977582    0.854428    0.201769    0.000000
    61  O3    c     0.933440    0.000557    0.999361    0.000000
    62  O2    c     0.008892    0.933208    0.335793    0.000000
    63  O2    c     0.082176    0.072964    0.668593    0.000000
    64  O2    c     0.084248    0.006261    0.501957    0.000000
    65  O2    c     0.005733    0.074852    0.834853    0.000000
    66  O2    c     0.933921    0.937952    0.171809    0.000000
    67  O2    c     0.350277    0.584773    0.333810    0.000000
    68  O2    c     0.441927    0.762922    0.667864    0.000000
    69  O2    c     0.233503    0.655500    0.999120    0.000000
    70  O2    c     0.680891    0.436649    0.834277    0.000000
    71  O2    c     0.583698    0.245431    0.168649    0.000000
    72  O2    c     0.776414    0.350166    0.502051    0.000000
    73  O2    c     0.576422    0.337738    0.000105    0.000000
    74  O2    c     0.796728    0.447419    0.669224    0.000000
    75  O2    c     0.669650    0.244264    0.335643    0.000000
    76  O2    c     0.434417    0.663963    0.500586    0.000000
    77  O2    c     0.244685    0.587111    0.167818    0.000000
    78  O2    c     0.350451    0.786441    0.833767    0.000000
    79  O2    c     0.124015    0.218151    0.977685    0.000000
    80  O2    c     0.796483    0.917079    0.307198    0.000000
    81  O2    c     0.120646    0.889827    0.641978    0.000000
    82  O2    c     0.888716    0.793427    0.473915    0.000000
    83  O2    c     0.232135    0.116409    0.813068    0.000000
    84  O2    c     0.916998    0.133825    0.143945    0.000000
    85  O2    c     0.223459    0.130686    0.361964    0.000000
    86  O3    c     0.911854    0.777355    0.025483    0.000000
    87  O2    c     0.889395    0.100150    0.693468    0.000000
    88  O2    c     0.790412    0.881392    0.863353    0.000000
    89  O2    c     0.101351    0.219539    0.528019    0.000000
    90  O2    c     0.131301    0.917460    0.195656    0.000000
    91  O2    c     0.939882    0.861690    0.252909    0.000000
    92  O2    c     0.150547    0.076430    0.585550    0.000000
    93  O2    c     0.935077    0.075565    0.918199    0.000000
    94  O2    c     0.074398    0.138971    0.752640    0.000000
    95  O3    c     0.875199    0.941812    0.088442    0.000000
    96  O2    c     0.082927    0.938932    0.418773    0.000000
    97  O2    c     0.894520    0.197898    0.982815    0.000000
    98  O2    c     0.803720    0.701773    0.314728    0.000000
    99  O3    c     0.322136    0.119712    0.648580    0.000000
   100  O2    c     0.113326    0.803677    0.481207    0.000000
   101  O3    c     0.200428    0.315181    0.814543    0.000000
   102  O2    c     0.702482    0.910464    0.147700    0.000000
   103  O2    c     0.215743    0.908566    0.355680    0.000000
   104  O3    c     0.684666    0.786795    0.024427    0.000000
   105  O2    c     0.117270    0.306574    0.688493    0.000000
   106  O2    c     0.804148    0.105295    0.854124    0.000000
   107  O2    c     0.315457    0.210364    0.522117    0.000000
   108  O2    c     0.906881    0.705126    0.186731    0.000000
   109  O2    c     0.331373    0.652684    0.250946    0.000000
   110  O2    c     0.374250    0.680356    0.583959    0.000000
   111  O2    c     0.317158    0.676816    0.914573    0.000000
   112  O2    c     0.693023    0.368850    0.749464    0.000000
   113  O2    c     0.644511    0.323344    0.084687    0.000000
   114  O2    c     0.689679    0.329537    0.418588    0.000000
   115  O2    c     0.372074    0.328002    0.968324    0.000000
   116  O2    c     0.680335    0.049970    0.305726    0.000000
   117  O2    c     0.985044    0.642494    0.638218    0.000000
   118  O2    c     0.639317    0.675938    0.471594    0.000000
   119  O2    c     0.339399    0.975159    0.801378    0.000000
   120  O2    c     0.048299    0.380692    0.139485    0.000000
   121  O2    c     0.339320    0.378384    0.362982    0.000000
   122  O2    c     0.041671    0.663611    0.029039    0.000000
   123  O2    c     0.639093    0.970059    0.695961    0.000000
   124  O2    c     0.671733    0.633387    0.864670    0.000000
   125  O2    c     0.971726    0.339249    0.530117    0.000000
   126  O2    c     0.379504    0.050264    0.197384    0.000000
   127  O2    c     0.767045    0.299725    0.012356    0.000000
   128  O2    c     0.705932    0.471469    0.345084    0.000000
   129  O3    c     0.562046    0.260897    0.673165    0.000000
   130  O2    c     0.245156    0.701585    0.511254    0.000000
   131  O3    c     0.306086    0.554946    0.838161    0.000000
   132  O2    c     0.472504    0.778234    0.177834    0.000000
   133  O2    c     0.313887    0.776952    0.323915    0.000000
   134  O2    c     0.461681    0.693500    0.985679    0.000000
   135  O2    c     0.252640    0.535792    0.656795    0.000000
   136  O2    c     0.713397    0.243670    0.820073    0.000000
   137  O2    c     0.546260    0.310011    0.490843    0.000000
   138  O2    c     0.774252    0.473632    0.156559    0.000000
   139  O2    c     0.779801    0.530459    0.027919    0.000000
   140  O2    c     0.474920    0.254762    0.362563    0.000000
   141  O2    c     0.761035    0.226689    0.694943    0.000000
   142  O2    c     0.230148    0.469574    0.528491    0.000000
   143  O2    c     0.535887    0.755744    0.864748    0.000000
   144  O2    c     0.255271    0.791343    0.195762    0.000000
   145  O2    c     0.544664    0.791975    0.306673    0.000000
   146  O2    c     0.250478    0.466303    0.968399    0.000000
   147  O2    c     0.239678    0.755143    0.640284    0.000000
   148  O2    c     0.485003    0.229759    0.804431    0.000000
   149  O2    c     0.762627    0.541591    0.473770    0.000000
   150  O2    c     0.789568    0.258053    0.141338    0.000000
   151  O3    c     0.216030    0.309232    0.898783    0.000000
   152  O2    c     0.684340    0.915817    0.232691    0.000000
   153  O2    c     0.117394    0.780850    0.566183    0.000000
   154  O2    c     0.779343    0.681717    0.399360    0.000000
   155  O3    c     0.322709    0.113967    0.733775    0.000000
   156  O2    c     0.907625    0.232057    0.067894    0.000000
   157  O2    c     0.335184    0.238831    0.436607    0.000000
   158  O2    c     0.907544    0.678099    0.101390    0.000000
   159  O2    c     0.776479    0.103691    0.767563    0.000000
   160  O2    c     0.674715    0.764950    0.937631    0.000000
   161  O2    c     0.107751    0.328514    0.602946    0.000000
   162  O2    c     0.241384    0.915626    0.270396    0.000000
   163  O2    c     0.576014    0.553826    0.988295    0.000000
   164  O2    c     0.452597    0.033985    0.325885    0.000000
   165  O2    c     0.995934    0.424409    0.658870    0.000000
   166  O2    c     0.427064    0.447620    0.491792    0.000000
   167  O2    c     0.568251    0.992052    0.819882    0.000000
   168  O2    c     0.033862    0.594687    0.157014    0.000000
   169  O2    c     0.567219    0.591940    0.343191    0.000000
   170  O2    c     0.027962    0.435776    0.010804    0.000000
   171  O3    c     0.421899    0.969931    0.670785    0.000000
   172  O3    c     0.457496    0.417049    0.837037    0.000000
   173  O2    c     0.986722    0.568933    0.511220    0.000000
   174  O2    c     0.593429    0.037027    0.177095    0.000000
   175  O2    c     0.590695    0.171816    0.252020    0.000000
   176  O2    c     0.856065    0.430060    0.585268    0.000000
   177  O2    c     0.582492    0.420774    0.915846    0.000000
   178  O2    c     0.427321    0.852211    0.748505    0.000000
   179  O2    c     0.168863    0.583273    0.083867    0.000000
   180  O2    c     0.427660    0.586821    0.417385    0.000000
   181  F     c     0.460651    0.911051    0.250022    0.000000
   182  F     c     0.116749    0.555194    0.584164    0.000000
   183  F     c     0.424370    0.522499    0.905217    0.000000
   184  F     c     0.533620    0.110054    0.739001    0.000000
   185  F     c     0.904891    0.454620    0.083197    0.000000
   186  F     c     0.559734    0.458056    0.416623    0.000000
   187  O3    s     0.930041    0.002927    0.999337    0.000000
   188  O2    s     0.008986    0.929037    0.335708    0.000000
   189  O2    s     0.087450    0.079160    0.668933    0.000000
   190  O2    s     0.088376    0.006004    0.501894    0.000000
   191  O2    s     0.004681    0.079837    0.835437    0.000000
   192  O2    s     0.930040    0.933270    0.171414    0.000000
   193  O2    s     0.362005    0.592460    0.333798    0.000000
   194  O2    s     0.433491    0.767585    0.667372    0.000000
   195  O2    s     0.229729    0.643902    0.998982    0.000000
   196  O2    s     0.667917    0.428454    0.833753    0.000000
   197  O2    s     0.591382    0.241331    0.168490    0.000000
   198  O2    s     0.780505    0.361908    0.501889    0.000000
   199  O2    s     0.583906    0.349404    0.000084    0.000000
   200  O2    s     0.798753    0.438095    0.668757    0.000000
   201  O2    s     0.657792    0.239873    0.335543    0.000000
   202  O2    s     0.426977    0.651966    0.500630    0.000000
   203  O2    s     0.240156    0.594343    0.167791    0.000000
   204  O2    s     0.361143    0.788551    0.833285    0.000000
   205  O2    s     0.120221    0.220111    0.974206    0.000000
   206  O2    s     0.792767    0.910282    0.304712    0.000000
   207  O2    s     0.125731    0.891659    0.639254    0.000000
   208  O2    s     0.891825    0.789920    0.471379    0.000000
   209  O2    s     0.233984    0.120885    0.809533    0.000000
   210  O2    s     0.910303    0.130532    0.141111    0.000000
   211  O2    s     0.226935    0.127411    0.364652    0.000000
   212  O3    s     0.906408    0.773286    0.028459    0.000000
   213  O2    s     0.891689    0.105915    0.696230    0.000000
   214  O2    s     0.786880    0.884061    0.865760    0.000000
   215  O2    s     0.108148    0.223061    0.530815    0.000000
   216  O2    s     0.128068    0.910796    0.198363    0.000000
   217  O2    s     0.938162    0.859798    0.252680    0.000000
   218  O2    s     0.154684    0.079004    0.585081    0.000000
   219  O2    s     0.933485    0.076379    0.918134    0.000000
   220  O2    s     0.076826    0.143879    0.752265    0.000000
   221  O3    s     0.870748    0.939965    0.088963    0.000000
   222  O2    s     0.084218    0.937317    0.418638    0.000000
   223  O2    s     0.903203    0.200519    0.985355    0.000000
   224  O2    s     0.802712    0.708130    0.317376    0.000000
   225  O3    s     0.312539    0.110659    0.650075    0.000000
   226  O2    s     0.105925    0.802539    0.483869    0.000000
   227  O3    s     0.200523    0.305865    0.816154    0.000000
   228  O2    s     0.708961    0.917898    0.150546    0.000000
   229  O2    s     0.217048    0.915962    0.353005    0.000000
   230  O3    s     0.688849    0.784718    0.021207    0.000000
   231  O2    s     0.109580    0.300841    0.685772    0.000000
   232  O2    s     0.802876    0.098434    0.851217    0.000000
   233  O2    s     0.309604    0.211907    0.519457    0.000000
   234  O2    s     0.914391    0.710796    0.184362    0.000000
   235  O2    s     0.337086    0.664306    0.250941    0.000000
   236  O2    s     0.362165    0.674427    0.583963    0.000000
   237  O2    s     0.322842    0.672098    0.914935    0.000000
   238  O2    s     0.687936    0.358697    0.749795    0.000000
   239  O2    s     0.656153    0.329225    0.084623    0.000000
   240  O2    s     0.683644    0.335280    0.418499    0.000000
   241  O2    s     0.375732    0.337658    0.966445    0.000000
   242  O2    s     0.670242    0.043246    0.303525    0.000000
   243  O2    s     0.991721    0.638898    0.636109    0.000000
   244  O2    s     0.636133    0.665879    0.469415    0.000000
   245  O2    s     0.349273    0.980989    0.799642    0.000000
   246  O2    s     0.041386    0.383700    0.137238    0.000000
   247  O2    s     0.349423    0.381770    0.365320    0.000000
   248  O2    s     0.035116    0.653543    0.031361    0.000000
   249  O2    s     0.636759    0.976575    0.697787    0.000000
   250  O2    s     0.662866    0.630700    0.866513    0.000000
   251  O2    s     0.978681    0.349102    0.532443    0.000000
   252  O2    s     0.383015    0.043626    0.199673    0.000000
   253  O2    s     0.774109    0.307546    0.015503    0.000000
   254  O2    s     0.698397    0.470982    0.348291    0.000000
   255  O3    s     0.567190    0.256969    0.676976    0.000000
   256  O2    s     0.238290    0.694264    0.514481    0.000000
   257  O3    s     0.314547    0.559614    0.842097    0.000000
   258  O2    s     0.472056    0.785276    0.181101    0.000000
   259  O2    s     0.321399    0.783898    0.320899    0.000000
   260  O2    s     0.461074    0.686079    0.983261    0.000000
   261  O2    s     0.245130    0.536536    0.653719    0.000000
   262  O2    s     0.705638    0.236694    0.817358    0.000000
   263  O2    s     0.546756    0.317598    0.487812    0.000000
   264  O2    s     0.780955    0.472710    0.153548    0.000000
   265  O2    s     0.785349    0.527456    0.030561    0.000000
   266  O2    s     0.477775    0.262856    0.365197    0.000000
   267  O2    s     0.755140    0.222229    0.697106    0.000000
   268  O2    s     0.225085    0.472509    0.531128    0.000000
   269  O2    s     0.534270    0.749136    0.866560    0.000000
   270  O2    s     0.263591    0.796630    0.198422    0.000000
   271  O2    s     0.541839    0.796966    0.304096    0.000000
   272  O2    s     0.257131    0.469470    0.966276    0.000000
   273  O2    s     0.234529    0.747983    0.637617    0.000000
   274  O2    s     0.487634    0.226763    0.802140    0.000000
   275  O2    s     0.754835    0.539007    0.471145    0.000000
   276  O2    s     0.794419    0.265505    0.138687    0.000000
   277  O3    s     0.225799    0.319119    0.901587    0.000000
   278  O2    s     0.674610    0.915566    0.233582    0.000000
   279  O2    s     0.117124    0.771350    0.567028    0.000000
   280  O2    s     0.769890    0.672095    0.400257    0.000000
   281  O3    s     0.332263    0.113500    0.736540    0.000000
   282  O2    s     0.907668    0.241613    0.068673    0.000000
   283  O2    s     0.344674    0.247962    0.435705    0.000000
   284  O2    s     0.907688    0.668377    0.100731    0.000000
   285  O2    s     0.768219    0.104142    0.766898    0.000000
   286  O2    s     0.665803    0.757088    0.936676    0.000000
   287  O2    s     0.108298    0.338240    0.602099    0.000000
   288  O2    s     0.250678    0.915299    0.269469    0.000000
   289  O2    s     0.573172    0.554609    0.985508    0.000000
   290  O2    s     0.452136    0.029321    0.322536    0.000000
   291  O2    s     0.000827    0.428857    0.655469    0.000000
   292  O2    s     0.431282    0.447139    0.488472    0.000000
   293  O2    s     0.568994    0.995990    0.817055    0.000000
   294  O2    s     0.028806    0.589785    0.153840    0.000000
   295  O2    s     0.567546    0.587187    0.346669    0.000000
   296  O2    s     0.023034    0.436073    0.014157    0.000000
   297  O3    s     0.428701    0.972364    0.674852    0.000000
   298  O3    s     0.461238    0.423474    0.841138    0.000000
   299  O2    s     0.991975    0.568979    0.514527    0.000000
   300  O2    s     0.588720    0.032017    0.180557    0.000000
   301  O2    s     0.585226    0.160961    0.251913    0.000000
   302  O2    s     0.867356    0.435746    0.585107    0.000000
   303  O2    s     0.577634    0.425430    0.916092    0.000000
   304  O2    s     0.432162    0.861785    0.748813    0.000000
   305  O2    s     0.157743    0.577936    0.083825    0.000000
   306  O2    s     0.433276    0.581369    0.417315    0.000000
   307  F     s     0.460506    0.910662    0.249826    0.000000
   308  F     s     0.117212    0.555294    0.584139    0.000000
   309  F     s     0.417608    0.515981    0.902198    0.000000
   310  F     s     0.526644    0.110271    0.735883    0.000000
   311  F     s     0.904505    0.454619    0.083031    0.000000
   312  F     s     0.560010    0.457935    0.416452    0.000000
--------------------------------------------------------------------------------

  Final Cartesian lattice vectors (Angstroms) :

       11.950819    0.001112   -0.020194
       -5.987737   10.414315    0.004583
       -0.421048   -0.135235   29.337552


  Final cell parameters and derivatives :

--------------------------------------------------------------------------------
       a           11.950836 Angstrom     dE/de1(xx)    -0.003289 eV/strain
       b           12.012950 Angstrom     dE/de2(yy)    -0.003230 eV/strain
       c           29.340885 Angstrom     dE/de3(zz)    -0.003335 eV/strain
       alpha       89.797260 Degrees      dE/de4(yz)     0.000153 eV/strain
       beta        90.919075 Degrees      dE/de5(xz)     0.000045 eV/strain
       gamma      119.891522 Degrees      dE/de6(xy)    -0.000159 eV/strain
--------------------------------------------------------------------------------

  Primitive cell volume =          3651.437561 Angs**3

  Density of cell =      1.752212 g/cm**3

  Non-primitive cell volume =          3651.437561 Angs**3


  Final internal derivatives :

--------------------------------------------------------------------------------
   No.  Atomic          a             b             c           Radius
        Label          (eV)          (eV)          (eV)        (eV/Angs)
--------------------------------------------------------------------------------
      1 Si    c       0.000000      0.000000      0.000000      0.000000
      2 Si    c       0.000126     -0.000112     -0.000198      0.000000
      3 Si    c       0.000310      0.000330      0.000473      0.000000
      4 Si    c       0.000210     -0.000051     -0.000382      0.000000
      5 Si    c      -0.000456      0.001300     -0.001948      0.000000
      6 Si    c      -0.000180      0.000182     -0.000107      0.000000
      7 Si    c      -0.000083     -0.000265      0.000250      0.000000
      8 Si    c      -0.000259      0.000320      0.000240      0.000000
      9 Si    c       0.000067      0.000175      0.001316      0.000000
     10 Si    c      -0.000246      0.001755      0.001669      0.000000
     11 Si    c       0.000265     -0.000181      0.000378      0.000000
     12 Si    c      -0.000498      0.000025     -0.001829      0.000000
     13 Si    c       0.000860     -0.000479      0.001302      0.000000
     14 Si    c       0.000181      0.000055      0.000095      0.000000
     15 Si    c      -0.000230     -0.000007      0.000437      0.000000
     16 Si    c      -0.000166      0.000145      0.000043      0.000000
     17 Si    c      -0.000137     -0.000973      0.000406      0.000000
     18 Si    c      -0.000005     -0.000012     -0.000697      0.000000
     19 Si    c      -0.000121      0.000026     -0.000328      0.000000
     20 Si    c       0.000283      0.000076     -0.000370      0.000000
     21 Si    c      -0.000164     -0.000514     -0.000613      0.000000
     22 Si    c       0.002279     -0.001581     -0.001807      0.000000
     23 Si    c      -0.000112     -0.000065      0.000305      0.000000
     24 Si    c       0.000156      0.000139     -0.000365      0.000000
     25 Ge    c      -0.001232     -0.000299     -0.001786      0.000000
     26 Si    c       0.000169      0.000025      0.000075      0.000000
     27 Si    c      -0.000001      0.000073      0.000160      0.000000
     28 Si    c       0.000054      0.000024      0.000357      0.000000
     29 Ge    c      -0.000232      0.000037      0.000034      0.000000
     30 Si    c      -0.000209      0.000112      0.000192      0.000000
     31 Si    c      -0.000035     -0.000080     -0.000174      0.000000
     32 Si    c      -0.000035      0.000191     -0.001058      0.000000
     33 Si    c       0.000670     -0.000165     -0.000188      0.000000
     34 Si    c       0.000079      0.000220     -0.000635      0.000000
     35 Si    c      -0.000003      0.000147      0.000274      0.000000
     36 Si    c      -0.000097     -0.000035     -0.000314      0.000000
     37 Si    c      -0.000445      0.000024     -0.001058      0.000000
     38 Si    c       0.000066      0.000068     -0.000282      0.000000
     39 Si    c      -0.000003     -0.000088     -0.000115      0.000000
     40 Si    c       0.000037      0.000044     -0.000212      0.000000
     41 Si    c      -0.000665      0.000210     -0.001635      0.000000
     42 Si    c      -0.000061     -0.000012     -0.000475      0.000000
     43 Si    c      -0.000058      0.000032      0.000072      0.000000
     44 Si    c      -0.000159      0.000518      0.000737      0.000000
     45 Si    c       0.000026      0.000141      0.000432      0.000000
     46 Si    c       0.000245      0.000102      0.000678      0.000000
     47 Si    c      -0.000033     -0.000067      0.000023      0.000000
     48 Si    c      -0.000085      0.000002      0.000118      0.000000
     49 Si    c       0.000138      0.001402     -0.002595      0.000000
     50 Si    c       0.000139     -0.000006      0.000179      0.000000
     51 Si    c       0.000441     -0.000026     -0.000872      0.000000
     52 Si    c       0.000038      0.000014     -0.000431      0.000000
     53 Si    c       0.000549      0.000191      0.000217      0.000000
     54 Si    c      -0.000460     -0.000017      0.002865      0.000000
     55 Si    c      -0.000027      0.000081     -0.000093      0.000000
     56 Ge    c       0.000468     -0.001977     -0.000279      0.000000
     57 Si    c      -0.000087      0.000039      0.004265      0.000000
     58 Si    c      -0.000892      0.000186     -0.001191      0.000000
     59 Si    c      -0.000089      0.000098     -0.000304      0.000000
     60 Si    c       0.000231     -0.000189      0.000072      0.000000
     61 O3    c       0.000527     -0.001905      0.000186      0.000000
     62 O2    c      -0.000061     -0.000133     -0.000090      0.000000
     63 O2    c       0.000254     -0.000240     -0.000689      0.000000
     64 O2    c       0.000089     -0.000138      0.000017      0.000000
     65 O2    c      -0.000283      0.000808     -0.000218      0.000000
     66 O2    c      -0.000093      0.000177     -0.000456      0.000000
     67 O2    c       0.000152      0.000016      0.000020      0.000000
     68 O2    c      -0.000477      0.000709      0.000536      0.000000
     69 O2    c       0.000058     -0.000318      0.000101      0.000000
     70 O2    c      -0.001547      0.000198      0.000119      0.000000
     71 O2    c       0.000162     -0.000114     -0.000366      0.000000
     72 O2    c      -0.000164      0.000189     -0.000352      0.000000
     73 O2    c      -0.000267      0.000984     -0.000492      0.000000
     74 O2    c       0.000106     -0.000469      0.000145      0.000000
     75 O2    c      -0.000073      0.000041      0.000047      0.000000
     76 O2    c      -0.000021     -0.000096      0.000234      0.000000
     77 O2    c       0.000061      0.000211      0.000746      0.000000
     78 O2    c       0.001253     -0.001004      0.001281      0.000000
     79 O2    c       0.000036      0.000017     -0.001265      0.000000
     80 O2    c       0.000138     -0.000062      0.000013      0.000000
     81 O2    c      -0.000171      0.000642     -0.000378      0.000000
     82 O2    c       0.000155     -0.000001     -0.000074      0.000000
     83 O2    c      -0.000961      0.000756     -0.001094      0.000000
     84 O2    c      -0.000039      0.000289      0.000375      0.000000
     85 O2    c      -0.000026     -0.000159      0.000063      0.000000
     86 O3    c      -0.001094      0.001558      0.002107      0.000000
     87 O2    c       0.000359     -0.000097      0.000286      0.000000
     88 O2    c       0.000157      0.000547      0.000748      0.000000
     89 O2    c       0.000089     -0.000122      0.000010      0.000000
     90 O2    c      -0.000009     -0.000007      0.000039      0.000000
     91 O2    c      -0.000133      0.000177      0.000620      0.000000
     92 O2    c       0.000194     -0.000238      0.002207      0.000000
     93 O2    c      -0.000097      0.000407      0.002341      0.000000
     94 O2    c      -0.000564      0.000980     -0.006147      0.000000
     95 O3    c       0.000200      0.000773     -0.004329      0.000000
     96 O2    c      -0.000084     -0.000075      0.000959      0.000000
     97 O2    c       0.000204     -0.000185      0.000161      0.000000
     98 O2    c      -0.000010      0.000143     -0.000091      0.000000
     99 O3    c      -0.000990     -0.000182     -0.000222      0.000000
    100 O2    c      -0.000198      0.000156      0.000103      0.000000
    101 O3    c       0.000055     -0.002088     -0.000488      0.000000
    102 O2    c      -0.000005      0.000017     -0.000057      0.000000
    103 O2    c      -0.000074      0.000076     -0.000027      0.000000
    104 O3    c       0.000599     -0.000001      0.000235      0.000000
    105 O2    c      -0.000109     -0.000507     -0.000162      0.000000
    106 O2    c       0.001219     -0.001386      0.000509      0.000000
    107 O2    c      -0.000026     -0.000043     -0.000036      0.000000
    108 O2    c       0.000049     -0.000046      0.000044      0.000000
    109 O2    c       0.000058      0.000037      0.000092      0.000000
    110 O2    c      -0.000067      0.000000     -0.000105      0.000000
    111 O2    c       0.000235     -0.000211      0.000183      0.000000
    112 O2    c      -0.000032     -0.000336      0.000754      0.000000
    113 O2    c       0.000607      0.000083     -0.000882      0.000000
    114 O2    c      -0.000040      0.000051      0.000246      0.000000
    115 O2    c      -0.000119      0.000044     -0.000123      0.000000
    116 O2    c      -0.000104      0.000057     -0.000083      0.000000
    117 O2    c       0.000109     -0.000068      0.000045      0.000000
    118 O2    c       0.000047      0.000013      0.000012      0.000000
    119 O2    c      -0.000052      0.000118     -0.000185      0.000000
    120 O2    c      -0.000046     -0.000007     -0.000072      0.000000
    121 O2    c      -0.000009      0.000028      0.000049      0.000000
    122 O2    c      -0.000019     -0.000068      0.000025      0.000000
    123 O2    c      -0.000033     -0.000003     -0.000092      0.000000
    124 O2    c       0.000040     -0.000045      0.000357      0.000000
    125 O2    c       0.000049     -0.000020      0.000081      0.000000
    126 O2    c      -0.000067      0.000019      0.000051      0.000000
    127 O2    c       0.000154      0.000019      0.000273      0.000000
    128 O2    c      -0.000008      0.000041      0.000060      0.000000
    129 O3    c       0.000016     -0.000096      0.000011      0.000000
    130 O2    c      -0.000085      0.000081      0.000136      0.000000
    131 O3    c       0.000007     -0.000392      0.001231      0.000000
    132 O2    c      -0.000050     -0.000011      0.000116      0.000000
    133 O2    c       0.000064     -0.000077     -0.000135      0.000000
    134 O2    c      -0.000057     -0.000065     -0.000124      0.000000
    135 O2    c      -0.000114      0.000044     -0.000224      0.000000
    136 O2    c       0.000240     -0.000260     -0.000061      0.000000
    137 O2    c       0.000018     -0.000012     -0.000084      0.000000
    138 O2    c       0.000011      0.000017     -0.000125      0.000000
    139 O2    c       0.000033     -0.000097      0.000261      0.000000
    140 O2    c      -0.000038      0.000033      0.000123      0.000000
    141 O2    c       0.000012     -0.000110      0.000199      0.000000
    142 O2    c      -0.000063      0.000029      0.000118      0.000000
    143 O2    c      -0.000329      0.000031     -0.000049      0.000000
    144 O2    c       0.000291     -0.000139      0.000146      0.000000
    145 O2    c       0.000011      0.000012     -0.000173      0.000000
    146 O2    c       0.000248     -0.000434     -0.000440      0.000000
    147 O2    c       0.000112     -0.000382     -0.000413      0.000000
    148 O2    c       0.000160     -0.000214     -0.000320      0.000000
    149 O2    c       0.000008     -0.000005      0.000016      0.000000
    150 O2    c       0.000021     -0.000053     -0.000043      0.000000
    151 O3    c       0.000679      0.000762      0.001561      0.000000
    152 O2    c      -0.000180      0.000059     -0.000195      0.000000
    153 O2    c       0.000064     -0.000112     -0.000169      0.000000
    154 O2    c      -0.000044     -0.000030     -0.000252      0.000000
    155 O3    c       0.000679     -0.000156      0.002575      0.000000
    156 O2    c      -0.000164      0.000284      0.000295      0.000000
    157 O2    c       0.000064      0.000043      0.000005      0.000000
    158 O2    c       0.000256     -0.000587     -0.000034      0.000000
    159 O2    c      -0.000273      0.000141      0.000438      0.000000
    160 O2    c      -0.000158     -0.000216      0.000198      0.000000
    161 O2    c      -0.000005      0.000064     -0.000186      0.000000
    162 O2    c       0.000124     -0.000003      0.000066      0.000000
    163 O2    c       0.000112     -0.000111      0.000046      0.000000
    164 O2    c       0.000025     -0.000013     -0.000100      0.000000
    165 O2    c       0.000162     -0.000058     -0.000019      0.000000
    166 O2    c       0.000021     -0.000087     -0.000090      0.000000
    167 O2    c      -0.000036      0.000004     -0.000047      0.000000
    168 O2    c      -0.000148      0.000077      0.000060      0.000000
    169 O2    c       0.000049     -0.000027      0.000121      0.000000
    170 O2    c      -0.000106     -0.000003      0.000189      0.000000
    171 O3    c       0.000234     -0.000080      0.000840      0.000000
    172 O3    c      -0.000031      0.000282      0.000195      0.000000
    173 O2    c       0.000063      0.000006      0.000125      0.000000
    174 O2    c      -0.000010      0.000058      0.000065      0.000000
    175 O2    c      -0.000035     -0.000088      0.000060      0.000000
    176 O2    c       0.000146     -0.000071     -0.000266      0.000000
    177 O2    c      -0.000059      0.000393     -0.001206      0.000000
    178 O2    c      -0.000037      0.000237      0.000418      0.000000
    179 O2    c      -0.000210     -0.000009      0.000354      0.000000
    180 O2    c       0.000052     -0.000044      0.000149      0.000000
    181 F     c      -0.000011      0.000076      0.000039      0.000000
    182 F     c      -0.000038      0.000024      0.000089      0.000000
    183 F     c      -0.000103      0.000227      0.001275      0.000000
    184 F     c      -0.000008     -0.000075     -0.000117      0.000000
    185 F     c       0.000187     -0.000037      0.000341      0.000000
    186 F     c       0.000047     -0.000038      0.000086      0.000000
    187 O3    s      -0.000060      0.000574     -0.000897      0.000000
    188 O2    s      -0.000032     -0.000090     -0.000166      0.000000
    189 O2    s       0.000062      0.000168      0.001192      0.000000
    190 O2    s       0.000066     -0.000115      0.000019      0.000000
    191 O2    s      -0.000325      0.000421     -0.000024      0.000000
    192 O2    s       0.000270     -0.000410      0.000589      0.000000
    193 O2    s      -0.000132      0.000103     -0.000010      0.000000
    194 O2    s       0.000427     -0.000470     -0.000153      0.000000
    195 O2    s      -0.000073      0.000202      0.000115      0.000000
    196 O2    s       0.000463     -0.000295      0.000239      0.000000
    197 O2    s      -0.000001      0.000109      0.000199      0.000000
    198 O2    s       0.000020     -0.000011      0.000119      0.000000
    199 O2    s       0.000011     -0.000767     -0.000687      0.000000
    200 O2    s      -0.000059      0.000202     -0.000074      0.000000
    201 O2    s      -0.000027     -0.000011     -0.000177      0.000000
    202 O2    s      -0.000083      0.000075      0.000022      0.000000
    203 O2    s      -0.000013     -0.000064     -0.000304      0.000000
    204 O2    s      -0.000505      0.000142     -0.000271      0.000000
    205 O2    s      -0.000502      0.000404      0.000665      0.000000
    206 O2    s      -0.000060     -0.000023      0.000073      0.000000
    207 O2    s       0.000025      0.000417      0.000080      0.000000
    208 O2    s       0.000121      0.000009      0.000241      0.000000
    209 O2    s      -0.000186      0.000232      0.000664      0.000000
    210 O2    s      -0.000101      0.000392      0.000107      0.000000
    211 O2    s       0.000055     -0.000033     -0.000069      0.000000
    212 O3    s       0.000285     -0.000858     -0.000056      0.000000
    213 O2    s       0.000616      0.000092      0.000583      0.000000
    214 O2    s      -0.000027      0.000226     -0.000972      0.000000
    215 O2    s       0.000021      0.000083      0.000170      0.000000
    216 O2    s       0.000125     -0.000046     -0.000090      0.000000
    217 O2    s      -0.000050     -0.000090      0.000287      0.000000
    218 O2    s       0.000242     -0.000175      0.000129      0.000000
    219 O2    s      -0.000070      0.000103     -0.002510      0.000000
    220 O2    s       0.000312     -0.000289      0.001321      0.000000
    221 O3    s      -0.000249     -0.000313      0.001387      0.000000
    222 O2    s       0.000132     -0.000102     -0.000013      0.000000
    223 O2    s       0.000158      0.000241      0.000100      0.000000
    224 O2    s       0.000022      0.000099     -0.000080      0.000000
    225 O3    s       0.000036     -0.000206     -0.000352      0.000000
    226 O2    s      -0.000125      0.000192     -0.000291      0.000000
    227 O3    s       0.000419     -0.000056     -0.000345      0.000000
    228 O2    s      -0.000299     -0.000007      0.000607      0.000000
    229 O2    s      -0.000035      0.000081      0.000134      0.000000
    230 O3    s       0.000112     -0.000498     -0.000619      0.000000
    231 O2    s      -0.000147     -0.000302      0.000732      0.000000
    232 O2    s       0.000133     -0.000123     -0.000267      0.000000
    233 O2    s      -0.000074      0.000098      0.000073      0.000000
    234 O2    s       0.000029     -0.000185     -0.000400      0.000000
    235 O2    s      -0.000002      0.000014      0.000179      0.000000
    236 O2    s       0.000034     -0.000058     -0.000234      0.000000
    237 O2    s      -0.000026      0.000056     -0.000158      0.000000
    238 O2    s      -0.000164      0.000081      0.000180      0.000000
    239 O2    s      -0.000345      0.000022      0.000979      0.000000
    240 O2    s      -0.000017      0.000014      0.000070      0.000000
    241 O2    s       0.000187      0.000038     -0.000082      0.000000
    242 O2    s       0.000003      0.000033      0.000069      0.000000
    243 O2    s      -0.000047      0.000053     -0.000102      0.000000
    244 O2    s      -0.000006     -0.000096     -0.000015      0.000000
    245 O2    s       0.000130      0.000051      0.000373      0.000000
    246 O2    s      -0.000074      0.000054     -0.000096      0.000000
    247 O2    s      -0.000009      0.000080     -0.000068      0.000000
    248 O2    s       0.000063     -0.000128      0.000152      0.000000
    249 O2    s      -0.000061      0.000141      0.000222      0.000000
    250 O2    s      -0.000424     -0.000064     -0.000303      0.000000
    251 O2    s       0.000104     -0.000036     -0.000140      0.000000
    252 O2    s       0.000097     -0.000037      0.000020      0.000000
    253 O2    s       0.000123     -0.000119     -0.000635      0.000000
    254 O2    s      -0.000023     -0.000051     -0.000154      0.000000
    255 O3    s       0.000115     -0.000015      0.000658      0.000000
    256 O2    s       0.000030     -0.000064      0.000183      0.000000
    257 O3    s       0.000223      0.000576     -0.001098      0.000000
    258 O2    s      -0.000035      0.000027     -0.000097      0.000000
    259 O2    s       0.000039      0.000031      0.000155      0.000000
    260 O2    s       0.000091     -0.000073     -0.000286      0.000000
    261 O2    s       0.000061     -0.000022     -0.000030      0.000000
    262 O2    s      -0.000327      0.000078     -0.000185      0.000000
    263 O2    s       0.000045      0.000046      0.000056      0.000000
    264 O2    s       0.000120     -0.000052      0.000085      0.000000
    265 O2    s       0.000193      0.000172     -0.000161      0.000000
    266 O2    s       0.000053     -0.000044     -0.000118      0.000000
    267 O2    s       0.000034      0.000017     -0.000194      0.000000
    268 O2    s       0.000063      0.000098      0.000269      0.000000
    269 O2    s      -0.000028     -0.000104      0.000088      0.000000
    270 O2    s      -0.000138     -0.000118     -0.000180      0.000000
    271 O2    s      -0.000010      0.000035      0.000209      0.000000
    272 O2    s      -0.000080      0.000082     -0.000054      0.000000
    273 O2    s      -0.000064      0.000634      0.000608      0.000000
    274 O2    s      -0.000262      0.000396      0.000522      0.000000
    275 O2    s       0.000012     -0.000077     -0.000006      0.000000
    276 O2    s       0.000028      0.000089      0.000023      0.000000
    277 O3    s      -0.000621     -0.000970     -0.000696      0.000000
    278 O2    s       0.000114      0.000014      0.000110      0.000000
    279 O2    s       0.000010      0.000011     -0.000040      0.000000
    280 O2    s       0.000012     -0.000018      0.000085      0.000000
    281 O3    s      -0.000714      0.000197     -0.001253      0.000000
    282 O2    s       0.000208     -0.000369     -0.000416      0.000000
    283 O2    s      -0.000046     -0.000019      0.000237      0.000000
    284 O2    s      -0.000198      0.000435      0.000238      0.000000
    285 O2    s       0.000011     -0.000049      0.000025      0.000000
    286 O2    s      -0.000001      0.000231      0.000274      0.000000
    287 O2    s       0.000082     -0.000060     -0.000022      0.000000
    288 O2    s      -0.000044     -0.000053      0.000152      0.000000
    289 O2    s      -0.000383      0.000226     -0.000125      0.000000
    290 O2    s       0.000033      0.000036      0.000126      0.000000
    291 O2    s      -0.000010     -0.000036      0.000086      0.000000
    292 O2    s       0.000019      0.000054      0.000058      0.000000
    293 O2    s       0.000003      0.000180     -0.000062      0.000000
    294 O2    s      -0.000081     -0.000046     -0.000375      0.000000
    295 O2    s      -0.000039      0.000045     -0.000201      0.000000
    296 O2    s       0.000047     -0.000152      0.000034      0.000000
    297 O3    s      -0.000240      0.000129     -0.000750      0.000000
    298 O3    s       0.000137     -0.000423      0.000068      0.000000
    299 O2    s       0.000042      0.000108     -0.000185      0.000000
    300 O2    s       0.000005     -0.000084      0.000105      0.000000
    301 O2    s       0.000048      0.000063     -0.000089      0.000000
    302 O2    s      -0.000161      0.000104      0.000276      0.000000
    303 O2    s      -0.000167     -0.000292     -0.000281      0.000000
    304 O2    s       0.000015     -0.000050     -0.000111      0.000000
    305 O2    s      -0.000012      0.000004     -0.000381      0.000000
    306 O2    s      -0.000097      0.000080      0.000034      0.000000
    307 F     s       0.000053     -0.000139     -0.000025      0.000000
    308 F     s       0.000105     -0.000058     -0.000217      0.000000
    309 F     s       0.000653      0.000057      0.000478      0.000000
    310 F     s       0.000149      0.000120      0.000489      0.000000
    311 F     s      -0.000319      0.000200     -0.000497      0.000000
    312 F     s      -0.000064      0.000058     -0.000109      0.000000
--------------------------------------------------------------------------------
  Maximum abs         0.002279      0.002088      0.006147      0.000000
--------------------------------------------------------------------------------


  Time to end of optimisation =      56.0263 seconds


  Peak dynamic memory used =      19.13 MB 


  Timing analysis for GULP :

--------------------------------------------------------------------------------
  Task / Subroutine                                          Time (Seconds)
--------------------------------------------------------------------------------
  Calculation of reciprocal space energy and derivatives          1.5937
  Calculation of real space energy and derivatives               48.0399
  Calculation of three-body energy and derivatives                5.4017
  Calculation of matrix inversion                                 0.5877
--------------------------------------------------------------------------------
  Total CPU time                                                 56.0264
--------------------------------------------------------------------------------


  Dump file written as out.res                                                 
  CIF file written as out.cif                                                 


  Job Finished at 05:15.15 27th November   2016                               

