********************************************************************************
*                       GENERAL UTILITY LATTICE PROGRAM                        *
*                                 Julian Gale                                  *
*                      Nanochemistry Research Institute                        *
*                           Department of Chemistry                            *
*                    Curtin University, Western Australia                      *
********************************************************************************
* Version = 4.2.0 * Last modified =  20th January 2014                         *
********************************************************************************
*  optimise     - perform optimisation run                                     *
*  conp         - constant pressure calculation                                *
*  qok          - running with non charge neutral cell is OK                   *
********************************************************************************

  Job Started  at 16:35.30 26th November   2016                               

  Number of CPUs =     1


  Total number of configurations input =   1

********************************************************************************
*  Input for Configuration =   1                                               *
********************************************************************************

  Formula = Si57Ge3O120F6                                               

  Number of irreducible atoms/shells =     312


  Total number atoms/shells =     312

  Dimensionality = 3               :  Bulk   


  Charge on solid   =  -6.000000 =>neutralising background added


  Cartesian lattice vectors (Angstroms) :

       11.917714    0.000000    0.000000
       -6.023710   10.393507    0.000000
       -0.490903   -0.282011   29.482231

  Cell parameters (Angstroms/Degrees):

  a =      11.9177    alpha =  89.9958
  b =      12.0129    beta  =  90.9539
  c =      29.4877    gamma = 120.0951

  Initial cell volume =        3651.870980 Angs**3

  Temperature of configuration =  0.000     K 

  Pressure of configuration =         0.000 GPa 

  Fractional coordinates of asymmetric unit :

--------------------------------------------------------------------------------
   No.  Atomic       x           y          z         Charge      Occupancy
        Label      (Frac)      (Frac)     (Frac)        (e)         (Frac)  
--------------------------------------------------------------------------------
      1 Si    c    0.699600    0.375700    0.033890     4.00000    1.000000    
      2 Si    c    0.618775 *  0.322175 *  0.366763 *   4.00000    1.000000    
      3 Si    c    0.680520 *  0.297776 *  0.701288 *   4.00000    1.000000    
      4 Si    c    0.293940 *  0.619540 *  0.537097 *   4.00000    1.000000    
      5 Si    c    0.372141 *  0.680410 *  0.865353 *   4.00000    1.000000    
      6 Si    c    0.316509 *  0.698754 *  0.199368 *   4.00000    1.000000    
      7 Si    c    0.373845 *  0.710955 *  0.302308 *   4.00000    1.000000    
      8 Si    c    0.316182 *  0.614648 *  0.967064 *   4.00000    1.000000    
      9 Si    c    0.296565 *  0.674661 *  0.637558 *   4.00000    1.000000    
     10 Si    c    0.635193 *  0.303148 *  0.801849 *   4.00000    1.000000    
     11 Si    c    0.670967 *  0.374649 *  0.469720 *   4.00000    1.000000    
     12 Si    c    0.710001 *  0.328151 *  0.133967 *   4.00000    1.000000    
     13 Si    c    0.525836 *  0.408879 *  0.966550 *   4.00000    1.000000    
     14 Si    c    0.588618 *  0.120860 *  0.301947 *   4.00000    1.000000    
     15 Si    c    0.887113 *  0.469150 *  0.636373 *   4.00000    1.000000    
     16 Si    c    0.461742 *  0.580231 *  0.471384 *   4.00000    1.000000    
     17 Si    c    0.422171 *  0.898374 *  0.803471 *   4.00000    1.000000    
     18 Si    c    0.114468 *  0.522806 *  0.134044 *   4.00000    1.000000    
     19 Si    c    0.405428 *  0.532841 *  0.367461 *   4.00000    1.000000    
     20 Si    c    0.109365 *  0.574996 *  0.032874 *   4.00000    1.000000    
     21 Si    c    0.468980 *  0.888230 *  0.702535 *   4.00000    1.000000    
     22 Si    c    0.588687 *  0.467806 *  0.864181 *   4.00000    1.000000    
     23 Si    c    0.886793 *  0.418280 *  0.534981 *   4.00000    1.000000    
     24 Si    c    0.532486 *  0.123414 *  0.198512 *   4.00000    1.000000    
     25 Ge    c    0.313996 *  0.411528 *  0.858312 *   4.00000    1.000000    
     26 Si    c    0.599156 *  0.906903 *  0.184706 *   4.00000    1.000000    
     27 Si    c    0.093672 *  0.698343 *  0.521397 *   4.00000    1.000000    
     28 Si    c    0.691429 *  0.603522 *  0.353355 *   4.00000    1.000000    
     29 Si    c    0.399346 *  0.098057 *  0.687932 *   4.00000    1.000000    
     30 Si    c    0.898121 *  0.295258 *  0.018766 *   4.00000    1.000000    
     31 Si    c    0.389204 *  0.295405 *  0.487531 *   4.00000    1.000000    
     32 Si    c    0.913123 *  0.605393 *  0.150229 *   4.00000    1.000000    
     33 Si    c    0.707465 *  0.100058 *  0.817310 *   4.00000    1.000000    
     34 Si    c    0.599669 *  0.693478 *  0.982495 *   4.00000    1.000000    
     35 Si    c    0.096622 *  0.395756 *  0.651884 *   4.00000    1.000000    
     36 Si    c    0.300431 *  0.916194 *  0.320488 *   4.00000    1.000000    
     37 Si    c    0.239995 *  0.326995 *  0.953406 *   4.00000    1.000000    
     38 Si    c    0.663492 *  0.917022 *  0.286714 *   4.00000    1.000000    
     39 Si    c    0.087110 *  0.748193 *  0.622121 *   4.00000    1.000000    
     40 Si    c    0.744229 *  0.660569 *  0.455689 *   4.00000    1.000000    
     41 Si    c    0.347472 *  0.101051 *  0.788440 *   4.00000    1.000000    
     42 Si    c    0.910982 *  0.245133 *  0.119140 *   4.00000    1.000000    
     43 Ge    c    0.351062 *  0.268775 *  0.387237 *   4.00000    1.000000    
     44 Si    c    0.911459 *  0.656057 *  0.049169 *   4.00000    1.000000    
     45 Si    c    0.750424 *  0.088426 *  0.716723 *   4.00000    1.000000    
     46 Si    c    0.660000 *  0.747974 *  0.881233 *   4.00000    1.000000    
     47 Si    c    0.087009 *  0.339052 *  0.550823 *   4.00000    1.000000    
     48 Ge    c    0.268465 *  0.915147 *  0.220126 *   4.00000    1.000000    
     49 Si    c    0.965219 *  0.113778 *  0.971020 *   4.00000    1.000000    
     50 Si    c    0.879617 *  0.848888 *  0.303037 *   4.00000    1.000000    
     51 Si    c    0.147111 *  0.026548 *  0.637976 *   4.00000    1.000000    
     52 Si    c    0.027257 *  0.879548 *  0.470718 *   4.00000    1.000000    
     53 Si    c    0.126785 *  0.160351 *  0.805233 *   4.00000    1.000000    
     54 Si    c    0.847355 *  0.965924 *  0.136654 *   4.00000    1.000000    
     55 Si    c    0.123953 *  0.983059 *  0.371408 *   4.00000    1.000000    
     56 Si    c    0.847200 *  0.871662 *  0.035811 *   4.00000    1.000000    
     57 Si    c    0.029726 *  0.149471 *  0.703439 *   4.00000    1.000000    
     58 Si    c    0.883953 *  0.026946 *  0.868564 *   4.00000    1.000000    
     59 Si    c    0.146266 *  0.120269 *  0.537794 *   4.00000    1.000000    
     60 Si    c    0.979795 *  0.852477 *  0.202793 *   4.00000    1.000000    
     61 O2    c    0.923015 *  0.994526 *  0.004363 *   0.87073    1.000000    
     62 O2    c    0.999031 *  0.925053 *  0.337220 *   0.87073    1.000000    
     63 O2    c    0.070439 *  0.067996 *  0.671520 *   0.87073    1.000000    
     64 O2    c    0.068765 *  0.999106 *  0.504330 *   0.87073    1.000000    
     65 O2    c    0.006042 *  0.067449 *  0.837211 *   0.87073    1.000000    
     66 O2    c    0.922187 *  0.923734 *  0.171349 *   0.87073    1.000000    
     67 O2    c    0.337021 *  0.593423 *  0.336306 *   0.87073    1.000000    
     68 O2    c    0.419806 *  0.761029 *  0.670817 *   0.87073    1.000000    
     69 O2    c    0.233574 *  0.652257 *  0.000317 *   0.87073    1.000000    
     70 O2    c    0.677613 *  0.427020 *  0.834956 *   0.87073    1.000000    
     71 O2    c    0.590551 *  0.250410 *  0.167676 *   0.87073    1.000000    
     72 O2    c    0.760046 *  0.340566 *  0.501856 *   0.87073    1.000000    
     73 O2    c    0.575981 *  0.336389 *  0.000342 *   0.87073    1.000000    
     74 O2    c    0.761923 *  0.419290 *  0.668231 *   0.87073    1.000000    
     75 O2    c    0.669502 *  0.246893 *  0.334286 *   0.87073    1.000000    
     76 O2    c    0.416319 *  0.657339 *  0.504284 *   0.87073    1.000000    
     77 O2    c    0.241559 *  0.571112 *  0.166991 *   0.87073    1.000000    
     78 O2    c    0.342908 *  0.778457 *  0.837205 *   0.87073    1.000000    
     79 O2    c    0.119359 *  0.207965 *  0.979061 *   0.87073    1.000000    
     80 O2    c    0.787632 *  0.912856 *  0.306881 *   0.87073    1.000000    
     81 O2    c    0.085660 *  0.872657 *  0.642595 *   0.87073    1.000000    
     82 O2    c    0.871624 *  0.784807 *  0.476200 *   0.87073    1.000000    
     83 O2    c    0.225947 *  0.104365 *  0.809840 *   0.87073    1.000000    
     84 O2    c    0.911963 *  0.120504 *  0.139751 *   0.87073    1.000000    
     85 O3    c    0.204539 *  0.132101 *  0.366027 *   1.33043    1.000000    
     86 O2    c    0.911565 *  0.782453 *  0.029272 *   0.87073    1.000000    
     87 O2    c    0.874892 *  0.086990 *  0.696098 *   0.87073    1.000000    
     88 O2    c    0.786308 *  0.873271 *  0.862054 *   0.87073    1.000000    
     89 O2    c    0.083872 *  0.211761 *  0.530696 *   0.87073    1.000000    
     90 O3    c    0.129270 *  0.920572 *  0.198114 *   1.33043    1.000000    
     91 O2    c    0.928277 *  0.854633 *  0.252885 *   0.87073    1.000000    
     92 O2    c    0.126748 *  0.064862 *  0.587917 *   0.87073    1.000000    
     93 O2    c    0.930046 *  0.057306 *  0.920570 *   0.87073    1.000000    
     94 O2    c    0.067421 *  0.136609 *  0.754201 *   0.87073    1.000000    
     95 O2    c    0.857779 *  0.919357 *  0.086892 *   0.87073    1.000000    
     96 O2    c    0.061929 *  0.931657 *  0.420534 *   0.87073    1.000000    
     97 O2    c    0.892905 *  0.194683 *  0.980605 *   0.87073    1.000000    
     98 O2    c    0.789757 *  0.698408 *  0.315869 *   0.87073    1.000000    
     99 O2    c    0.300627 *  0.096922 *  0.648966 *   0.87073    1.000000    
    100 O2    c    0.096152 *  0.796611 *  0.483003 *   0.87073    1.000000    
    101 O3    c    0.198885 *  0.306845 *  0.816347 *   1.33043    1.000000    
    102 O2    c    0.694365 *  0.902659 *  0.147146 *   0.87073    1.000000    
    103 O2    c    0.216938 *  0.921459 *  0.362517 *   0.87073    1.000000    
    104 O2    c    0.694500 *  0.787225 *  0.022314 *   0.87073    1.000000    
    105 O2    c    0.099642 *  0.300347 *  0.690102 *   0.87073    1.000000    
    106 O2    c    0.805326 *  0.100297 *  0.856231 *   0.87073    1.000000    
    107 O2    c    0.300416 *  0.205937 *  0.528971 *   0.87073    1.000000    
    108 O2    c    0.914377 *  0.700432 *  0.189029 *   0.87073    1.000000    
    109 O2    c    0.319582 *  0.653292 *  0.251688 *   0.87073    1.000000    
    110 O2    c    0.353960 *  0.676854 *  0.587379 *   0.87073    1.000000    
    111 O2    c    0.317102 *  0.670499 *  0.916937 *   0.87073    1.000000    
    112 O2    c    0.687192 *  0.358292 *  0.751392 *   0.87073    1.000000    
    113 O2    c    0.644793 *  0.320536 *  0.083969 *   0.87073    1.000000    
    114 O2    c    0.670175 *  0.322843 *  0.418731 *   0.87073    1.000000    
    115 O2    c    0.369642 *  0.322226 *  0.969023 *   0.87073    1.000000    
    116 O2    c    0.674069 *  0.049814 *  0.303667 *   0.87073    1.000000    
    117 O2    c    0.954496 *  0.624787 *  0.639230 *   0.87073    1.000000    
    118 O2    c    0.619119 *  0.665980 *  0.472865 *   0.87073    1.000000    
    119 O2    c    0.336165 *  0.967835 *  0.805817 *   0.87073    1.000000    
    120 O2    c    0.046814 *  0.367359 *  0.136343 *   0.87073    1.000000    
    121 O3    c    0.315201 *  0.381910 *  0.361597 *   1.33043    1.000000    
    122 O2    c    0.040596 *  0.662339 *  0.029413 *   0.87073    1.000000    
    123 O2    c    0.625575 *  0.956224 *  0.698633 *   0.87073    1.000000    
    124 O2    c    0.669405 *  0.625001 *  0.864429 *   0.87073    1.000000    
    125 O2    c    0.954883 *  0.330711 *  0.531327 *   0.87073    1.000000    
    126 O3    c    0.379936 *  0.061798 *  0.193788 *   1.33043    1.000000    
    127 O2    c    0.765866 *  0.299921 *  0.010825 *   0.87073    1.000000    
    128 O2    c    0.688299 *  0.468424 *  0.347417 *   0.87073    1.000000    
    129 O2    c    0.535023 *  0.229104 *  0.679182 *   0.87073    1.000000    
    130 O2    c    0.226381 *  0.694965 *  0.514030 *   0.87073    1.000000    
    131 O3    c    0.296785 *  0.544525 *  0.840849 *   1.33043    1.000000    
    132 O2    c    0.463052 *  0.774208 *  0.179438 *   0.87073    1.000000    
    133 O2    c    0.300469 *  0.780432 *  0.323607 *   0.87073    1.000000    
    134 O2    c    0.463336 *  0.689360 *  0.987543 *   0.87073    1.000000    
    135 O2    c    0.230502 *  0.531432 *  0.659012 *   0.87073    1.000000    
    136 O2    c    0.711661 *  0.235737 *  0.824049 *   0.87073    1.000000    
    137 O2    c    0.528030 *  0.299841 *  0.491522 *   0.87073    1.000000    
    138 O2    c    0.777714 *  0.471566 *  0.155693 *   0.87073    1.000000    
    139 O2    c    0.780323 *  0.531998 *  0.030166 *   0.87073    1.000000    
    140 O3    c    0.465182 *  0.240630 *  0.359164 *   1.33043    1.000000    
    141 O2    c    0.753714 *  0.215240 *  0.696748 *   0.87073    1.000000    
    142 O2    c    0.214346 *  0.463599 *  0.531664 *   0.87073    1.000000    
    143 O2    c    0.529922 *  0.743521 *  0.863268 *   0.87073    1.000000    
    144 O3    c    0.235177 *  0.770092 *  0.192499 *   1.33043    1.000000    
    145 O2    c    0.530477 *  0.798108 *  0.304427 *   0.87073    1.000000    
    146 O2    c    0.249620 *  0.460324 *  0.970729 *   0.87073    1.000000    
    147 O2    c    0.213168 *  0.747100 *  0.642029 *   0.87073    1.000000    
    148 O2    c    0.479223 *  0.223408 *  0.807443 *   0.87073    1.000000    
    149 O2    c    0.734637 *  0.529114 *  0.472572 *   0.87073    1.000000    
    150 O2    c    0.788239 *  0.249894 *  0.139119 *   0.87073    1.000000    
    151 O3    c    0.210352 *  0.302118 *  0.900869 *   1.33043    1.000000    
    152 O2    c    0.670517 *  0.914088 *  0.232489 *   0.87073    1.000000    
    153 O2    c    0.090092 *  0.768279 *  0.567815 *   0.87073    1.000000    
    154 O2    c    0.755025 *  0.671192 *  0.401501 *   0.87073    1.000000    
    155 O2    c    0.328615 *  0.100872 *  0.733911 *   0.87073    1.000000    
    156 O2    c    0.902999 *  0.223959 *  0.064837 *   0.87073    1.000000    
    157 O3    c    0.305879 *  0.218139 *  0.444063 *   1.33043    1.000000    
    158 O2    c    0.917977 *  0.677906 *  0.103293 *   0.87073    1.000000    
    159 O2    c    0.773781 *  0.091365 *  0.770996 *   0.87073    1.000000    
    160 O2    c    0.669914 *  0.759542 *  0.935916 *   0.87073    1.000000    
    161 O2    c    0.090266 *  0.322316 *  0.605050 *   0.87073    1.000000    
    162 O3    c    0.222084 *  0.919573 *  0.276763 *   1.33043    1.000000    
    163 O2    c    0.577752 *  0.551234 *  0.987426 *   0.87073    1.000000    
    164 O2    c    0.449255 *  0.033549 *  0.324863 *   0.87073    1.000000    
    165 O2    c    0.972558 *  0.412945 *  0.659567 *   0.87073    1.000000    
    166 O2    c    0.410971 *  0.439552 *  0.493013 *   0.87073    1.000000    
    167 O2    c    0.565911 *  0.978206 *  0.826581 *   0.87073    1.000000    
    168 O2    c    0.032789 *  0.580477 *  0.157800 *   0.87073    1.000000    
    169 O2    c    0.549927 *  0.587715 *  0.346383 *   0.87073    1.000000    
    170 O2    c    0.025814 *  0.433135 *  0.009764 *   0.87073    1.000000    
    171 O2    c    0.408861 *  0.970197 *  0.679574 *   0.87073    1.000000    
    172 O3    c    0.452335 *  0.408584 *  0.838386 *   1.33043    1.000000    
    173 O2    c    0.965954 *  0.559427 *  0.511904 *   0.87073    1.000000    
    174 O2    c    0.582554 *  0.030293 *  0.177174 *   0.87073    1.000000    
    175 O2    c    0.584239 *  0.168440 *  0.250909 *   0.87073    1.000000    
    176 O2    c    0.832426 *  0.415885 *  0.585303 *   0.87073    1.000000    
    177 O2    c    0.579161 *  0.413346 *  0.916002 *   0.87073    1.000000    
    178 O2    c    0.418630 *  0.838599 *  0.753507 *   0.87073    1.000000    
    179 O2    c    0.166428 *  0.576923 *  0.083484 *   0.87073    1.000000    
    180 O2    c    0.409166 *  0.578998 *  0.420144 *   0.87073    1.000000    
    181 F     c    0.416393 *  0.912059 *  0.245860 *   0.56000    1.000000    
    182 F     c    0.094099 *  0.546772 *  0.584611 *   0.56000    1.000000    
    183 F     c    0.421654 *  0.515548 *  0.906593 *   0.56000    1.000000    
    184 F     c    0.554385 *  0.098914 *  0.751835 *   0.56000    1.000000    
    185 F     c    0.903788 *  0.446705 *  0.082581 *   0.56000    1.000000    
    186 F     c    0.502862 *  0.415781 *  0.413774 *   0.56000    1.000000    
    187 O2    s    0.919072 *  0.993831 *  0.004223 *  -2.87073    1.000000    
    188 O2    s    0.998228 *  0.922265 *  0.336842 *  -2.87073    1.000000    
    189 O2    s    0.074624 *  0.072326 *  0.671244 *  -2.87073    1.000000    
    190 O2    s    0.072730 *  0.999196 *  0.504295 *  -2.87073    1.000000    
    191 O2    s    0.004614 *  0.072404 *  0.837471 *  -2.87073    1.000000    
    192 O2    s    0.919461 *  0.921197 *  0.170590 *  -2.87073    1.000000    
    193 O2    s    0.348252 *  0.599776 *  0.335908 *  -2.87073    1.000000    
    194 O2    s    0.411973 *  0.765042 *  0.670587 *  -2.87073    1.000000    
    195 O2    s    0.229610 *  0.640431 *  0.000132 *  -2.87073    1.000000    
    196 O2    s    0.664504 *  0.418714 *  0.834560 *  -2.87073    1.000000    
    197 O2    s    0.597072 *  0.245101 *  0.167383 *  -2.87073    1.000000    
    198 O2    s    0.763403 *  0.352118 *  0.501776 *  -2.87073    1.000000    
    199 O2    s    0.583525 *  0.348109 *  0.000269 *  -2.87073    1.000000    
    200 O2    s    0.766637 *  0.412008 *  0.668311 *  -2.87073    1.000000    
    201 O2    s    0.656318 *  0.241548 *  0.334225 *  -2.87073    1.000000    
    202 O2    s    0.408743 *  0.645421 *  0.504154 *  -2.87073    1.000000    
    203 O2    s    0.236240 *  0.578958 *  0.166913 *  -2.87073    1.000000    
    204 O2    s    0.354250 *  0.780456 *  0.836719 *  -2.87073    1.000000    
    205 O2    s    0.115313 *  0.210067 *  0.975684 *  -2.87073    1.000000    
    206 O2    s    0.783524 *  0.906815 *  0.304332 *  -2.87073    1.000000    
    207 O2    s    0.092267 *  0.875858 *  0.639997 *  -2.87073    1.000000    
    208 O2    s    0.873690 *  0.781041 *  0.473464 *  -2.87073    1.000000    
    209 O2    s    0.229109 *  0.109628 *  0.807086 *  -2.87073    1.000000    
    210 O2    s    0.905023 *  0.117144 *  0.137300 *  -2.87073    1.000000    
    211 O3    s    0.205249 *  0.124516 *  0.368007 *  -3.33043    1.000000    
    212 O2    s    0.904689 *  0.779060 *  0.031969 *  -2.87073    1.000000    
    213 O2    s    0.878257 *  0.093733 *  0.698987 *  -2.87073    1.000000    
    214 O2    s    0.782937 *  0.875808 *  0.864743 *  -2.87073    1.000000    
    215 O2    s    0.090739 *  0.215317 *  0.533492 *  -2.87073    1.000000    
    216 O3    s    0.121192 *  0.912407 *  0.200055 *  -3.33043    1.000000    
    217 O2    s    0.928068 *  0.853739 *  0.253389 *  -2.87073    1.000000    
    218 O2    s    0.131255 *  0.066843 *  0.587839 *  -2.87073    1.000000    
    219 O2    s    0.928866 *  0.060285 *  0.920481 *  -2.87073    1.000000    
    220 O2    s    0.069302 *  0.140587 *  0.753690 *  -2.87073    1.000000    
    221 O2    s    0.855403 *  0.919123 *  0.086606 *  -2.87073    1.000000    
    222 O2    s    0.064464 *  0.931050 *  0.421161 *  -2.87073    1.000000    
    223 O2    s    0.900984 *  0.196338 *  0.983450 *  -2.87073    1.000000    
    224 O2    s    0.788502 *  0.703829 *  0.318552 *  -2.87073    1.000000    
    225 O2    s    0.294281 *  0.089513 *  0.651755 *  -2.87073    1.000000    
    226 O2    s    0.088599 *  0.795322 *  0.485630 *  -2.87073    1.000000    
    227 O3    s    0.198403 *  0.297244 *  0.817881 *  -3.33043    1.000000    
    228 O2    s    0.700242 *  0.909679 *  0.149983 *  -2.87073    1.000000    
    229 O2    s    0.216432 *  0.926934 *  0.359118 *  -2.87073    1.000000    
    230 O2    s    0.700322 *  0.786058 *  0.019488 *  -2.87073    1.000000    
    231 O2    s    0.092108 *  0.294661 *  0.687501 *  -2.87073    1.000000    
    232 O2    s    0.803573 *  0.092507 *  0.853521 *  -2.87073    1.000000    
    233 O2    s    0.293285 *  0.205970 *  0.525805 *  -2.87073    1.000000    
    234 O2    s    0.920690 *  0.705348 *  0.186260 *  -2.87073    1.000000    
    235 O2    s    0.324868 *  0.663714 *  0.251772 *  -2.87073    1.000000    
    236 O2    s    0.342017 *  0.670749 *  0.587271 *  -2.87073    1.000000    
    237 O2    s    0.322308 *  0.665581 *  0.917200 *  -2.87073    1.000000    
    238 O2    s    0.681188 *  0.346448 *  0.751431 *  -2.87073    1.000000    
    239 O2    s    0.657025 *  0.327000 *  0.083787 *  -2.87073    1.000000    
    240 O2    s    0.665108 *  0.328109 *  0.418853 *  -2.87073    1.000000    
    241 O2    s    0.373087 *  0.331855 *  0.967170 *  -2.87073    1.000000    
    242 O2    s    0.664199 *  0.043023 *  0.301690 *  -2.87073    1.000000    
    243 O2    s    0.961439 *  0.621647 *  0.637124 *  -2.87073    1.000000    
    244 O2    s    0.616294 *  0.656623 *  0.470884 *  -2.87073    1.000000    
    245 O2    s    0.346509 *  0.974434 *  0.803723 *  -2.87073    1.000000    
    246 O2    s    0.039542 *  0.370637 *  0.134274 *  -2.87073    1.000000    
    247 O3    s    0.327150 *  0.389687 *  0.364028 *  -3.33043    1.000000    
    248 O2    s    0.034106 *  0.652651 *  0.031849 *  -2.87073    1.000000    
    249 O2    s    0.622549 *  0.963140 *  0.700952 *  -2.87073    1.000000    
    250 O2    s    0.660302 *  0.622322 *  0.866205 *  -2.87073    1.000000    
    251 O2    s    0.961634 *  0.340701 *  0.533753 *  -2.87073    1.000000    
    252 O3    s    0.387877 *  0.057760 *  0.196166 *  -3.33043    1.000000    
    253 O2    s    0.773143 *  0.307167 *  0.014053 *  -2.87073    1.000000    
    254 O2    s    0.681521 *  0.467966 *  0.350047 *  -2.87073    1.000000    
    255 O2    s    0.535724 *  0.222347 *  0.682420 *  -2.87073    1.000000    
    256 O2    s    0.219356 *  0.687540 *  0.517213 *  -2.87073    1.000000    
    257 O3    s    0.305894 *  0.549556 *  0.844670 *  -3.33043    1.000000    
    258 O2    s    0.462989 *  0.780967 *  0.182042 *  -2.87073    1.000000    
    259 O2    s    0.308259 *  0.786692 *  0.320988 *  -2.87073    1.000000    
    260 O2    s    0.462828 *  0.682099 *  0.984870 *  -2.87073    1.000000    
    261 O2    s    0.223303 *  0.532006 *  0.656012 *  -2.87073    1.000000    
    262 O2    s    0.703304 *  0.228364 *  0.820996 *  -2.87073    1.000000    
    263 O2    s    0.528874 *  0.307198 *  0.488803 *  -2.87073    1.000000    
    264 O2    s    0.784866 *  0.470583 *  0.152784 *  -2.87073    1.000000    
    265 O2    s    0.786117 *  0.529237 *  0.032559 *  -2.87073    1.000000    
    266 O3    s    0.472445 *  0.251029 *  0.361924 *  -3.33043    1.000000    
    267 O2    s    0.745577 *  0.210201 *  0.699345 *  -2.87073    1.000000    
    268 O2    s    0.208852 *  0.466372 *  0.534240 *  -2.87073    1.000000    
    269 O2    s    0.528626 *  0.737632 *  0.865438 *  -2.87073    1.000000    
    270 O3    s    0.246015 *  0.773427 *  0.195170 *  -3.33043    1.000000    
    271 O2    s    0.528563 *  0.802007 *  0.302279 *  -2.87073    1.000000    
    272 O2    s    0.255889 *  0.463207 *  0.968557 *  -2.87073    1.000000    
    273 O2    s    0.208024 *  0.739525 *  0.639407 *  -2.87073    1.000000    
    274 O2    s    0.481440 *  0.218431 *  0.804824 *  -2.87073    1.000000    
    275 O2    s    0.728851 *  0.527195 *  0.470424 *  -2.87073    1.000000    
    276 O2    s    0.793531 *  0.257507 *  0.136450 *  -2.87073    1.000000    
    277 O3    s    0.220278 *  0.311882 *  0.903663 *  -3.33043    1.000000    
    278 O2    s    0.662198 *  0.913670 *  0.233354 *  -2.87073    1.000000    
    279 O2    s    0.090152 *  0.758816 *  0.568656 *  -2.87073    1.000000    
    280 O2    s    0.747046 *  0.662809 *  0.402273 *  -2.87073    1.000000    
    281 O2    s    0.338029 *  0.100599 *  0.734773 *  -2.87073    1.000000    
    282 O2    s    0.903330 *  0.233593 *  0.065819 *  -2.87073    1.000000    
    283 O3    s    0.317636 *  0.229632 *  0.444560 *  -3.33043    1.000000    
    284 O2    s    0.916789 *  0.668034 *  0.102362 *  -2.87073    1.000000    
    285 O2    s    0.764347 *  0.091967 *  0.770138 *  -2.87073    1.000000    
    286 O2    s    0.661352 *  0.751254 *  0.935176 *  -2.87073    1.000000    
    287 O2    s    0.090592 *  0.331812 *  0.604174 *  -2.87073    1.000000    
    288 O3    s    0.233357 *  0.918917 *  0.277224 *  -3.33043    1.000000    
    289 O2    s    0.574583 *  0.551992 *  0.984660 *  -2.87073    1.000000    
    290 O2    s    0.448690 *  0.030482 *  0.321933 *  -2.87073    1.000000    
    291 O2    s    0.977164 *  0.417160 *  0.656298 *  -2.87073    1.000000    
    292 O2    s    0.414242 *  0.439502 *  0.490128 *  -2.87073    1.000000    
    293 O2    s    0.566151 *  0.983121 *  0.823163 *  -2.87073    1.000000    
    294 O2    s    0.028204 *  0.576826 *  0.154452 *  -2.87073    1.000000    
    295 O2    s    0.550941 *  0.583859 *  0.349225 *  -2.87073    1.000000    
    296 O2    s    0.020800 *  0.433261 *  0.013127 *  -2.87073    1.000000    
    297 O2    s    0.414291 *  0.975454 *  0.682874 *  -2.87073    1.000000    
    298 O3    s    0.456496 *  0.415115 *  0.842474 *  -3.33043    1.000000    
    299 O2    s    0.971422 *  0.559575 *  0.515287 *  -2.87073    1.000000    
    300 O2    s    0.579242 *  0.025811 *  0.180114 *  -2.87073    1.000000    
    301 O2    s    0.579561 *  0.158941 *  0.251131 *  -2.87073    1.000000    
    302 O2    s    0.843754 *  0.421630 *  0.585297 *  -2.87073    1.000000    
    303 O2    s    0.574437 *  0.418168 *  0.916271 *  -2.87073    1.000000    
    304 O2    s    0.424222 *  0.849853 *  0.753355 *  -2.87073    1.000000    
    305 O2    s    0.155165 *  0.571176 *  0.083400 *  -2.87073    1.000000    
    306 O2    s    0.414257 *  0.574531 *  0.420297 *  -2.87073    1.000000    
    307 F     s    0.407590 *  0.911956 *  0.244336 *  -1.56000    1.000000    
    308 F     s    0.094446 *  0.546930 *  0.584397 *  -1.56000    1.000000    
    309 F     s    0.414406 *  0.508617 *  0.903470 *  -1.56000    1.000000    
    310 F     s    0.554723 *  0.099194 *  0.751784 *  -1.56000    1.000000    
    311 F     s    0.903208 *  0.446249 *  0.082450 *  -1.56000    1.000000    
    312 F     s    0.494286 *  0.407256 *  0.412260 *  -1.56000    1.000000    
--------------------------------------------------------------------------------



********************************************************************************
*  General input information                                                   *
********************************************************************************

  Species output for all configurations : 

--------------------------------------------------------------------------------
  Species    Type    Atomic    Atomic    Charge       Radii (Angs)     Library
                     Number     Mass       (e)     Cova   Ionic  VDW   Symbol
--------------------------------------------------------------------------------
    Si       Core       14      28.09   4.000000   1.200  0.000  2.100          
    O1       Core        8      16.00   1.733957   0.730  0.000  1.360          
    O1       Shell       8       0.00  -3.733957   0.730  0.000  1.360          
    O2       Core        8      16.00   0.870733   0.730  0.000  1.360          
    O2       Shell       8       0.00  -2.870733   0.730  0.000  1.360          
    O3       Core        8      16.00   1.330431   0.730  0.000  1.360          
    O3       Shell       8       0.00  -3.330431   0.730  0.000  1.360          
    F        Core        9      19.00   0.560000   0.710  0.000  1.300          
    F        Shell       9       0.00  -1.560000   0.710  0.000  1.300          
    Ge       Core       32      72.61   4.000000   1.170  0.000  1.750          
--------------------------------------------------------------------------------


  Lattice summation method               =    Ewald          (3-D)
                                         =    Parry          (2-D)
                                         =    Saunders et al (1-D)
  Accuracy factor for lattice sums       =   12.000


  Time limit = Infinity

  Maximum range for interatomic potentials =        16.000000 Angstroms

  Taper potentials to zero over   1.0000 Angstroms using polynomial

  General interatomic potentials :

--------------------------------------------------------------------------------
Atom  Types   Potential         A         B         C         D     Cutoffs(Ang)
  1     2                                                            Min    Max 
--------------------------------------------------------------------------------
Si   c O1   s Buckingham    0.132E+04 0.318      10.1      0.00     0.000 16.000
Si   c O2   s Buckingham    0.132E+04 0.318      10.1      0.00     0.000 16.000
Si   c O3   s Buckingham    0.132E+04 0.318      10.1      0.00     0.000 16.000
Ge   c O1   s Buckingham    0.150E+04 0.326      16.8      0.00     0.000 16.000
Ge   c O2   s Buckingham    0.150E+04 0.326      16.8      0.00     0.000 16.000
Ge   c O3   s Buckingham    0.150E+04 0.326      16.8      0.00     0.000 16.000
O1   s O1   s Buckingham    0.228E+05 0.149      10.9      0.00     0.000 16.000
O1   s O2   s Buckingham    0.228E+05 0.149      10.9      0.00     0.000 16.000
O1   s O3   s Buckingham    0.228E+05 0.149      10.9      0.00     0.000 16.000
O2   s O2   s Buckingham    0.228E+05 0.149      10.9      0.00     0.000 16.000
O2   s O3   s Buckingham    0.228E+05 0.149      10.9      0.00     0.000 16.000
O3   s O3   s Buckingham    0.228E+05 0.149      10.9      0.00     0.000 16.000
Si   c F    s Buckingham     977.     0.282      0.00      0.00     0.000 16.000
Ge   c F    s Buckingham     681.     0.320      0.00      0.00     0.000 16.000
F    s F    s Buckingham     540.     0.262      0.00      0.00     0.000 16.000
O1   s F    s Buckingham    0.168E+04 0.268      0.00      0.00     0.000 16.000
O2   s F    s Buckingham    0.168E+04 0.268      0.00      0.00     0.000 16.000
O3   s F    s Buckingham    0.168E+04 0.268      0.00      0.00     0.000 16.000
O2   c O2   s Spring (c-s)   76.0      0.00      0.00      0.00     0.000  0.800
O3   c O3   s Spring (c-s)   128.      0.00      0.00      0.00     0.000  0.800
O1   c O1   s Spring (c-s)   180.      0.00      0.00      0.00     0.000  0.800
F    c F    s Spring (c-s)   33.5      0.00      0.00      0.00     0.000  0.800
--------------------------------------------------------------------------------

  General Three-body potentials :

  Harmonic form:

--------------------------------------------------------------------------------
Atom    Atom    Atom           Force Constants            Theta     Cutoffs  
  1       2       3     (eVrad**-2/eVrad**-3/eVrad**-4)   (deg)  1-2  1-3  2-3
--------------------------------------------------------------------------------
Si    c O1    s O1    s  1.261        0.0000    0.0000   109.470 0.00 0.00 0.00
                                                                 1.90 1.90 3.50
Si    c O1    s O2    s  1.261        0.0000    0.0000   109.470 0.00 0.00 0.00
                                                                 1.90 1.90 3.50
Si    c O2    s O2    s  1.261        0.0000    0.0000   109.470 0.00 0.00 0.00
                                                                 1.90 1.90 3.50
--------------------------------------------------------------------------------

********************************************************************************
*  Output for configuration   1                                                *
********************************************************************************


  Components of energy : 

--------------------------------------------------------------------------------
  Interatomic potentials     =        2065.94212396 eV
  Three-body potentials      =           0.52250489 eV
  Monopole - monopole (real) =       -6614.08804422 eV
  Monopole - monopole (recip)=       -3172.77036156 eV
  Monopole - monopole (total)=       -9786.85840578 eV
  Neutralising energy        =          -6.46294018 eV
--------------------------------------------------------------------------------
  Total lattice energy       =       -7726.85671712 eV
--------------------------------------------------------------------------------
  Total lattice energy       =         -745523.5574 kJ/(mole unit cells)
--------------------------------------------------------------------------------


  Number of variables =      939

  Maximum number of calculations  =          1000
  Maximum Hessian update interval =            10
  Maximum step size               =   1.000000000
  Maximum parameter tolerance     =   0.000010000
  Maximum function  tolerance     =   0.000010000
  Maximum gradient  tolerance     =   0.001000000
  Maximum gradient  component     =   0.010000000

  Symmetry not applied to optimisation

  Cell parameters to be optimised using strains

  Newton-Raphson optimiser to be used

  BFGS hessian update to be used

  Dumpfile to be written after every cycle

  Start of bulk optimisation :

  Cycle:      0 Energy:     -7726.856717  Gnorm:      0.000596  CPU:    1.135
  ** Hessian calculated **
  Cycle:      1 Energy:     -7726.869879  Gnorm:      0.001013  CPU:    3.052
  Cycle:      2 Energy:     -7726.869914  Gnorm:      0.000025  CPU:    4.433


  **** Optimisation achieved ****


  Final energy =   -7726.86991451 eV
  Final Gnorm  =       0.00000605

  Components of energy : 

--------------------------------------------------------------------------------
  Interatomic potentials     =        2065.88839942 eV
  Three-body potentials      =           0.52834163 eV
  Monopole - monopole (real) =       -6614.26642487 eV
  Monopole - monopole (recip)=       -3172.55772355 eV
  Monopole - monopole (total)=       -9786.82414843 eV
  Neutralising energy        =          -6.46250713 eV
--------------------------------------------------------------------------------
  Total lattice energy       =       -7726.86991451 eV
--------------------------------------------------------------------------------
  Total lattice energy       =         -745524.8307 kJ/(mole unit cells)
--------------------------------------------------------------------------------

  Final fractional coordinates of atoms :

--------------------------------------------------------------------------------
   No.  Atomic        x           y          z          Radius
        Label       (Frac)      (Frac)     (Frac)       (Angs) 
--------------------------------------------------------------------------------
     1  Si    c     0.699600    0.375700    0.033890    0.000000
     2  Si    c     0.609257    0.320438    0.367468    0.000000
     3  Si    c     0.672447    0.294050    0.702086    0.000000
     4  Si    c     0.285009    0.615899    0.538656    0.000000
     5  Si    c     0.365516    0.678274    0.866717    0.000000
     6  Si    c     0.310966    0.698156    0.200794    0.000000
     7  Si    c     0.368739    0.712295    0.303863    0.000000
     8  Si    c     0.312262    0.612005    0.968466    0.000000
     9  Si    c     0.287692    0.671012    0.639172    0.000000
    10  Si    c     0.629362    0.301561    0.802622    0.000000
    11  Si    c     0.661896    0.371805    0.470574    0.000000
    12  Si    c     0.705249    0.326202    0.134133    0.000000
    13  Si    c     0.523288    0.407578    0.966951    0.000000
    14  Si    c     0.583242    0.121637    0.302306    0.000000
    15  Si    c     0.878350    0.465227    0.637195    0.000000
    16  Si    c     0.453136    0.577583    0.472973    0.000000
    17  Si    c     0.416061    0.897024    0.805240    0.000000
    18  Si    c     0.109550    0.520340    0.135673    0.000000
    19  Si    c     0.396155    0.531429    0.368950    0.000000
    20  Si    c     0.106853    0.573521    0.034516    0.000000
    21  Si    c     0.460827    0.884910    0.704190    0.000000
    22  Si    c     0.582888    0.466742    0.864401    0.000000
    23  Si    c     0.877895    0.414508    0.535806    0.000000
    24  Si    c     0.526508    0.122502    0.198732    0.000000
    25  Ge    c     0.307912    0.409787    0.859100    0.000000
    26  Si    c     0.593211    0.905911    0.185580    0.000000
    27  Si    c     0.084769    0.694574    0.522576    0.000000
    28  Si    c     0.681767    0.601894    0.354517    0.000000
    29  Si    c     0.391007    0.094559    0.689234    0.000000
    30  Si    c     0.896607    0.293884    0.019660    0.000000
    31  Si    c     0.380391    0.292633    0.488748    0.000000
    32  Si    c     0.908207    0.603105    0.151292    0.000000
    33  Si    c     0.701690    0.098885    0.818674    0.000000
    34  Si    c     0.596295    0.691669    0.983202    0.000000
    35  Si    c     0.087752    0.391952    0.653084    0.000000
    36  Si    c     0.295436    0.917862    0.321500    0.000000
    37  Si    c     0.236985    0.324881    0.954334    0.000000
    38  Si    c     0.658162    0.917744    0.287744    0.000000
    39  Si    c     0.078096    0.744267    0.623308    0.000000
    40  Si    c     0.735390    0.657977    0.456918    0.000000
    41  Si    c     0.341439    0.099662    0.789842    0.000000
    42  Si    c     0.906376    0.242939    0.120205    0.000000
    43  Ge    c     0.341917    0.267423    0.388397    0.000000
    44  Si    c     0.909657    0.655602    0.050184    0.000000
    45  Si    c     0.742505    0.085176    0.718004    0.000000
    46  Si    c     0.653838    0.746411    0.881839    0.000000
    47  Si    c     0.078086    0.335324    0.551986    0.000000
    48  Ge    c     0.262977    0.914785    0.221051    0.000000
    49  Si    c     0.962420    0.111592    0.971969    0.000000
    50  Si    c     0.871984    0.846615    0.304081    0.000000
    51  Si    c     0.138270    0.022562    0.639109    0.000000
    52  Si    c     0.019054    0.876270    0.471755    0.000000
    53  Si    c     0.120348    0.158394    0.806303    0.000000
    54  Si    c     0.841109    0.963376    0.137760    0.000000
    55  Si    c     0.116651    0.981401    0.372609    0.000000
    56  Si    c     0.843857    0.870135    0.036943    0.000000
    57  Si    c     0.021479    0.145719    0.704577    0.000000
    58  Si    c     0.878123    0.025165    0.869615    0.000000
    59  Si    c     0.137845    0.116925    0.538917    0.000000
    60  Si    c     0.973047    0.849426    0.204050    0.000000
    61  O2    c     0.920269    0.993333    0.005755    0.000000
    62  O2    c     0.991840    0.921196    0.338268    0.000000
    63  O2    c     0.061517    0.064152    0.672473    0.000000
    64  O2    c     0.060881    0.996119    0.505242    0.000000
    65  O2    c     0.999897    0.065428    0.838257    0.000000
    66  O2    c     0.914634    0.920149    0.172678    0.000000
    67  O2    c     0.329944    0.594657    0.338001    0.000000
    68  O2    c     0.410742    0.757244    0.672631    0.000000
    69  O2    c     0.231304    0.650283    0.002171    0.000000
    70  O2    c     0.672020    0.426456    0.835189    0.000000
    71  O2    c     0.584664    0.248444    0.167367    0.000000
    72  O2    c     0.751210    0.337302    0.502515    0.000000
    73  O2    c     0.575884    0.336098    0.000143    0.000000
    74  O2    c     0.752951    0.415073    0.668823    0.000000
    75  O2    c     0.662240    0.247770    0.334756    0.000000
    76  O2    c     0.407732    0.654179    0.506055    0.000000
    77  O2    c     0.236161    0.569292    0.168988    0.000000
    78  O2    c     0.336634    0.777327    0.839021    0.000000
    79  O2    c     0.116754    0.205011    0.979796    0.000000
    80  O2    c     0.782673    0.913601    0.307683    0.000000
    81  O2    c     0.076626    0.868700    0.643740    0.000000
    82  O2    c     0.863375    0.782063    0.477265    0.000000
    83  O2    c     0.220393    0.103557    0.811266    0.000000
    84  O2    c     0.906512    0.118013    0.140920    0.000000
    85  O3    c     0.194826    0.130571    0.367446    0.000000
    86  O2    c     0.909612    0.782149    0.030602    0.000000
    87  O2    c     0.866558    0.083031    0.697444    0.000000
    88  O2    c     0.779494    0.871953    0.862589    0.000000
    89  O2    c     0.075001    0.208058    0.531908    0.000000
    90  O3    c     0.122537    0.918633    0.199341    0.000000
    91  O2    c     0.920459    0.850220    0.254050    0.000000
    92  O2    c     0.118322    0.060884    0.588956    0.000000
    93  O2    c     0.924790    0.053852    0.921682    0.000000
    94  O2    c     0.060570    0.133206    0.755240    0.000000
    95  O2    c     0.852054    0.916805    0.088063    0.000000
    96  O2    c     0.054318    0.927914    0.421532    0.000000
    97  O2    c     0.891420    0.193621    0.981506    0.000000
    98  O2    c     0.779585    0.696721    0.316992    0.000000
    99  O2    c     0.291691    0.092770    0.650307    0.000000
   100  O2    c     0.087412    0.792936    0.484182    0.000000
   101  O3    c     0.191728    0.304959    0.817293    0.000000
   102  O2    c     0.688160    0.901115    0.148085    0.000000
   103  O2    c     0.212629    0.923375    0.363636    0.000000
   104  O2    c     0.691612    0.785406    0.022960    0.000000
   105  O2    c     0.090932    0.296513    0.691267    0.000000
   106  O2    c     0.800301    0.099620    0.857545    0.000000
   107  O2    c     0.291962    0.203062    0.530200    0.000000
   108  O2    c     0.908704    0.697608    0.190120    0.000000
   109  O2    c     0.314795    0.654200    0.253258    0.000000
   110  O2    c     0.344910    0.673063    0.589016    0.000000
   111  O2    c     0.311516    0.667868    0.918449    0.000000
   112  O2    c     0.680527    0.355752    0.752060    0.000000
   113  O2    c     0.642600    0.319679    0.083745    0.000000
   114  O2    c     0.660175    0.320112    0.419507    0.000000
   115  O2    c     0.367108    0.320778    0.969860    0.000000
   116  O2    c     0.669171    0.051059    0.304343    0.000000
   117  O2    c     0.945511    0.620782    0.640248    0.000000
   118  O2    c     0.610570    0.663217    0.474454    0.000000
   119  O2    c     0.330417    0.966812    0.807476    0.000000
   120  O2    c     0.042002    0.364922    0.137822    0.000000
   121  O3    c     0.305403    0.380624    0.362922    0.000000
   122  O2    c     0.039005    0.661718    0.030850    0.000000
   123  O2    c     0.617321    0.952750    0.700165    0.000000
   124  O2    c     0.663333    0.623865    0.864722    0.000000
   125  O2    c     0.945977    0.326927    0.532280    0.000000
   126  O3    c     0.373871    0.060883    0.194206    0.000000
   127  O2    c     0.765035    0.299367    0.010990    0.000000
   128  O2    c     0.678611    0.466964    0.348512    0.000000
   129  O2    c     0.526599    0.225204    0.680156    0.000000
   130  O2    c     0.217534    0.691285    0.515449    0.000000
   131  O3    c     0.289602    0.542557    0.842088    0.000000
   132  O2    c     0.457081    0.773235    0.180604    0.000000
   133  O2    c     0.295781    0.782362    0.324831    0.000000
   134  O2    c     0.459816    0.686824    0.988626    0.000000
   135  O2    c     0.221481    0.527668    0.660467    0.000000
   136  O2    c     0.706189    0.234764    0.825141    0.000000
   137  O2    c     0.519317    0.297189    0.492539    0.000000
   138  O2    c     0.772574    0.469320    0.156104    0.000000
   139  O2    c     0.779500    0.531844    0.030385    0.000000
   140  O3    c     0.455629    0.239345    0.359921    0.000000
   141  O2    c     0.745584    0.211466    0.697595    0.000000
   142  O2    c     0.205468    0.460021    0.533015    0.000000
   143  O2    c     0.523205    0.741496    0.864224    0.000000
   144  O3    c     0.229513    0.769285    0.193662    0.000000
   145  O2    c     0.525492    0.799433    0.305962    0.000000
   146  O2    c     0.245985    0.457678    0.971948    0.000000
   147  O2    c     0.204137    0.743258    0.643400    0.000000
   148  O2    c     0.473518    0.222215    0.808578    0.000000
   149  O2    c     0.725840    0.526288    0.473476    0.000000
   150  O2    c     0.783441    0.247985    0.139717    0.000000
   151  O3    c     0.206033    0.299908    0.901818    0.000000
   152  O2    c     0.664504    0.913867    0.233521    0.000000
   153  O2    c     0.080993    0.764321    0.568993    0.000000
   154  O2    c     0.745329    0.669343    0.402729    0.000000
   155  O2    c     0.321494    0.098458    0.735306    0.000000
   156  O2    c     0.899705    0.222157    0.065885    0.000000
   157  O3    c     0.296870    0.215873    0.445207    0.000000
   158  O2    c     0.914552    0.676204    0.104343    0.000000
   159  O2    c     0.767037    0.089381    0.772282    0.000000
   160  O2    c     0.665141    0.758005    0.936528    0.000000
   161  O2    c     0.081423    0.318628    0.606228    0.000000
   162  O3    c     0.217083    0.920678    0.277647    0.000000
   163  O2    c     0.575301    0.549818    0.987940    0.000000
   164  O2    c     0.444368    0.035011    0.325470    0.000000
   165  O2    c     0.963598    0.408959    0.660600    0.000000
   166  O2    c     0.402415    0.436781    0.494424    0.000000
   167  O2    c     0.560160    0.977306    0.828180    0.000000
   168  O2    c     0.027241    0.577425    0.159229    0.000000
   169  O2    c     0.540144    0.585717    0.347654    0.000000
   170  O2    c     0.024346    0.431867    0.011146    0.000000
   171  O2    c     0.400353    0.966552    0.681194    0.000000
   172  O3    c     0.446152    0.407696    0.838731    0.000000
   173  O2    c     0.957199    0.555716    0.512849    0.000000
   174  O2    c     0.576320    0.028969    0.177715    0.000000
   175  O2    c     0.578871    0.168564    0.251118    0.000000
   176  O2    c     0.823541    0.412017    0.586087    0.000000
   177  O2    c     0.574443    0.412154    0.916110    0.000000
   178  O2    c     0.411749    0.836579    0.755331    0.000000
   179  O2    c     0.162845    0.574994    0.085311    0.000000
   180  O2    c     0.400300    0.576863    0.421763    0.000000
   181  F     c     0.411127    0.912642    0.246763    0.000000
   182  F     c     0.084910    0.542813    0.585817    0.000000
   183  F     c     0.416358    0.513780    0.907345    0.000000
   184  F     c     0.547967    0.097246    0.753171    0.000000
   185  F     c     0.900781    0.445190    0.083237    0.000000
   186  F     c     0.493173    0.413594    0.414941    0.000000
   187  O2    s     0.916241    0.992479    0.005536    0.000000
   188  O2    s     0.990974    0.918822    0.337902    0.000000
   189  O2    s     0.065801    0.068474    0.672235    0.000000
   190  O2    s     0.064751    0.996135    0.505244    0.000000
   191  O2    s     0.998476    0.070435    0.838522    0.000000
   192  O2    s     0.912134    0.917795    0.171880    0.000000
   193  O2    s     0.341167    0.600690    0.337580    0.000000
   194  O2    s     0.403029    0.761315    0.672365    0.000000
   195  O2    s     0.227109    0.638409    0.001925    0.000000
   196  O2    s     0.658850    0.417982    0.834845    0.000000
   197  O2    s     0.591254    0.243230    0.167189    0.000000
   198  O2    s     0.754551    0.348841    0.502475    0.000000
   199  O2    s     0.583053    0.347762    0.000106    0.000000
   200  O2    s     0.757799    0.407861    0.668945    0.000000
   201  O2    s     0.649011    0.242119    0.334701    0.000000
   202  O2    s     0.400135    0.642268    0.505881    0.000000
   203  O2    s     0.230853    0.577188    0.168813    0.000000
   204  O2    s     0.347937    0.779189    0.838482    0.000000
   205  O2    s     0.112601    0.207236    0.976467    0.000000
   206  O2    s     0.778254    0.907267    0.305188    0.000000
   207  O2    s     0.083256    0.871907    0.641146    0.000000
   208  O2    s     0.865374    0.778255    0.474544    0.000000
   209  O2    s     0.223423    0.108640    0.808472    0.000000
   210  O2    s     0.899583    0.114700    0.138450    0.000000
   211  O3    s     0.195819    0.122977    0.369375    0.000000
   212  O2    s     0.902619    0.778577    0.033252    0.000000
   213  O2    s     0.869994    0.089874    0.700305    0.000000
   214  O2    s     0.776298    0.874432    0.865342    0.000000
   215  O2    s     0.081911    0.211651    0.534686    0.000000
   216  O3    s     0.114551    0.910455    0.201262    0.000000
   217  O2    s     0.920407    0.849737    0.254545    0.000000
   218  O2    s     0.122787    0.062945    0.588897    0.000000
   219  O2    s     0.923841    0.057172    0.921577    0.000000
   220  O2    s     0.062342    0.137309    0.754744    0.000000
   221  O2    s     0.849898    0.916696    0.087768    0.000000
   222  O2    s     0.056818    0.927593    0.422186    0.000000
   223  O2    s     0.899396    0.195189    0.984382    0.000000
   224  O2    s     0.778659    0.702117    0.319675    0.000000
   225  O2    s     0.285415    0.085437    0.653075    0.000000
   226  O2    s     0.079898    0.791683    0.486796    0.000000
   227  O3    s     0.191393    0.295374    0.818821    0.000000
   228  O2    s     0.694050    0.908075    0.150926    0.000000
   229  O2    s     0.211761    0.928468    0.360230    0.000000
   230  O2    s     0.697387    0.784283    0.020186    0.000000
   231  O2    s     0.083425    0.290840    0.688664    0.000000
   232  O2    s     0.798390    0.091687    0.854824    0.000000
   233  O2    s     0.284803    0.203052    0.527026    0.000000
   234  O2    s     0.914988    0.702540    0.187360    0.000000
   235  O2    s     0.319992    0.664555    0.253321    0.000000
   236  O2    s     0.333002    0.666996    0.588902    0.000000
   237  O2    s     0.316803    0.663001    0.918674    0.000000
   238  O2    s     0.674442    0.343840    0.752130    0.000000
   239  O2    s     0.654804    0.326084    0.083704    0.000000
   240  O2    s     0.655262    0.325470    0.419648    0.000000
   241  O2    s     0.370433    0.330315    0.967973    0.000000
   242  O2    s     0.659236    0.044202    0.302380    0.000000
   243  O2    s     0.952497    0.617684    0.638137    0.000000
   244  O2    s     0.607723    0.653911    0.472439    0.000000
   245  O2    s     0.340694    0.973332    0.805367    0.000000
   246  O2    s     0.034770    0.368241    0.135729    0.000000
   247  O3    s     0.317416    0.388440    0.365339    0.000000
   248  O2    s     0.032380    0.651993    0.033264    0.000000
   249  O2    s     0.614318    0.959682    0.702467    0.000000
   250  O2    s     0.654244    0.621163    0.866527    0.000000
   251  O2    s     0.952713    0.336912    0.534709    0.000000
   252  O3    s     0.381874    0.056934    0.196588    0.000000
   253  O2    s     0.772281    0.306672    0.014305    0.000000
   254  O2    s     0.671848    0.466499    0.351116    0.000000
   255  O2    s     0.527324    0.218487    0.683410    0.000000
   256  O2    s     0.210491    0.683856    0.518622    0.000000
   257  O3    s     0.298835    0.547605    0.845883    0.000000
   258  O2    s     0.457094    0.780056    0.183200    0.000000
   259  O2    s     0.303517    0.788522    0.322218    0.000000
   260  O2    s     0.459288    0.679616    0.985940    0.000000
   261  O2    s     0.214331    0.528272    0.657457    0.000000
   262  O2    s     0.697775    0.227301    0.822090    0.000000
   263  O2    s     0.520122    0.304513    0.489825    0.000000
   264  O2    s     0.779817    0.468401    0.153242    0.000000
   265  O2    s     0.785245    0.528990    0.032844    0.000000
   266  O3    s     0.462997    0.249688    0.362692    0.000000
   267  O2    s     0.737483    0.206475    0.700231    0.000000
   268  O2    s     0.199965    0.462765    0.535591    0.000000
   269  O2    s     0.522004    0.735654    0.866396    0.000000
   270  O3    s     0.240354    0.772631    0.196332    0.000000
   271  O2    s     0.523530    0.803245    0.303770    0.000000
   272  O2    s     0.252284    0.460617    0.969768    0.000000
   273  O2    s     0.199030    0.735691    0.640783    0.000000
   274  O2    s     0.475644    0.217152    0.805953    0.000000
   275  O2    s     0.720033    0.524408    0.471360    0.000000
   276  O2    s     0.788768    0.255551    0.137056    0.000000
   277  O3    s     0.215983    0.309714    0.904590    0.000000
   278  O2    s     0.656255    0.913464    0.234371    0.000000
   279  O2    s     0.081088    0.754881    0.569836    0.000000
   280  O2    s     0.737446    0.660899    0.403493    0.000000
   281  O2    s     0.330905    0.098175    0.736148    0.000000
   282  O2    s     0.900087    0.231804    0.066849    0.000000
   283  O3    s     0.308643    0.227376    0.445742    0.000000
   284  O2    s     0.913384    0.666397    0.103408    0.000000
   285  O2    s     0.757582    0.089930    0.771435    0.000000
   286  O2    s     0.656569    0.749671    0.935805    0.000000
   287  O2    s     0.081739    0.328108    0.605348    0.000000
   288  O3    s     0.228339    0.919976    0.278151    0.000000
   289  O2    s     0.572027    0.550581    0.985186    0.000000
   290  O2    s     0.443731    0.031881    0.322553    0.000000
   291  O2    s     0.968255    0.413195    0.657328    0.000000
   292  O2    s     0.405661    0.436757    0.491536    0.000000
   293  O2    s     0.560338    0.982119    0.824760    0.000000
   294  O2    s     0.022787    0.573926    0.155862    0.000000
   295  O2    s     0.541268    0.581969    0.350507    0.000000
   296  O2    s     0.019176    0.431912    0.014486    0.000000
   297  O2    s     0.405839    0.971848    0.684465    0.000000
   298  O3    s     0.450334    0.414138    0.842830    0.000000
   299  O2    s     0.962642    0.555855    0.516244    0.000000
   300  O2    s     0.573062    0.024563    0.180664    0.000000
   301  O2    s     0.574156    0.159058    0.251374    0.000000
   302  O2    s     0.834895    0.417771    0.586083    0.000000
   303  O2    s     0.569816    0.416996    0.916418    0.000000
   304  O2    s     0.417295    0.847764    0.755141    0.000000
   305  O2    s     0.151541    0.569239    0.085179    0.000000
   306  O2    s     0.405384    0.572412    0.421901    0.000000
   307  F     s     0.402209    0.912514    0.245214    0.000000
   308  F     s     0.085230    0.542961    0.585602    0.000000
   309  F     s     0.409061    0.506876    0.904229    0.000000
   310  F     s     0.548358    0.097598    0.753122    0.000000
   311  F     s     0.900224    0.444759    0.083066    0.000000
   312  F     s     0.484392    0.404927    0.413390    0.000000
--------------------------------------------------------------------------------

  Final Cartesian lattice vectors (Angstroms) :

       11.919702   -0.001011   -0.013076
       -6.025596   10.397436    0.003800
       -0.523308   -0.290031   29.474201


  Final cell parameters and derivatives :

--------------------------------------------------------------------------------
       a           11.919709 Angstrom     dE/de1(xx)     0.000369 eV/strain
       b           12.017258 Angstrom     dE/de2(yy)     0.000537 eV/strain
       c           29.480273 Angstrom     dE/de3(zz)     0.000467 eV/strain
       alpha       89.959623 Degrees      dE/de4(yz)     0.000123 eV/strain
       beta        91.079918 Degrees      dE/de5(xz)    -0.000021 eV/strain
       gamma      120.098317 Degrees      dE/de6(xy)    -0.000111 eV/strain
--------------------------------------------------------------------------------

  Primitive cell volume =          3652.605169 Angs**3

  Density of cell =      1.751652 g/cm**3

  Non-primitive cell volume =          3652.605169 Angs**3


  Final internal derivatives :

--------------------------------------------------------------------------------
   No.  Atomic          a             b             c           Radius
        Label          (eV)          (eV)          (eV)        (eV/Angs)
--------------------------------------------------------------------------------
      1 Si    c       0.000000      0.000000      0.000000      0.000000
      2 Si    c       0.000167     -0.000154     -0.000200      0.000000
      3 Si    c       0.000038     -0.000014      0.000372      0.000000
      4 Si    c       0.000033     -0.000013     -0.000070      0.000000
      5 Si    c      -0.000026      0.000099     -0.000062      0.000000
      6 Si    c      -0.000134     -0.000266     -0.000677      0.000000
      7 Si    c       0.000083     -0.000267      0.000590      0.000000
      8 Si    c      -0.000010      0.000003     -0.000250      0.000000
      9 Si    c      -0.000022      0.000013     -0.000131      0.000000
     10 Si    c       0.000007     -0.000015     -0.000133      0.000000
     11 Si    c       0.000102      0.000010      0.000190      0.000000
     12 Si    c      -0.000048      0.000097     -0.001604      0.000000
     13 Si    c       0.000775     -0.000413      0.000392      0.000000
     14 Si    c       0.000094      0.000050      0.000213      0.000000
     15 Si    c       0.000036      0.000003     -0.000077      0.000000
     16 Si    c      -0.000057      0.000016      0.000236      0.000000
     17 Si    c       0.000020     -0.000036      0.000060      0.000000
     18 Si    c       0.000292     -0.000063      0.000704      0.000000
     19 Si    c      -0.000126      0.000185     -0.000513      0.000000
     20 Si    c      -0.000035     -0.000005     -0.000228      0.000000
     21 Si    c      -0.000059     -0.000011      0.000050      0.000000
     22 Si    c       0.000080     -0.000012      0.000230      0.000000
     23 Si    c      -0.000057     -0.000000     -0.000107      0.000000
     24 Si    c       0.000122      0.000210     -0.000860      0.000000
     25 Ge    c      -0.000103     -0.000147      0.000206      0.000000
     26 Si    c       0.000169     -0.000070     -0.000058      0.000000
     27 Si    c      -0.000014      0.000045     -0.000125      0.000000
     28 Si    c       0.000034      0.000086     -0.000004      0.000000
     29 Si    c      -0.000162      0.000025     -0.000053      0.000000
     30 Si    c      -0.000060     -0.000187      0.000535      0.000000
     31 Si    c      -0.000073      0.000006      0.000108      0.000000
     32 Si    c      -0.000222      0.000111     -0.000128      0.000000
     33 Si    c       0.000128     -0.000078      0.000122      0.000000
     34 Si    c       0.000159     -0.000025      0.000032      0.000000
     35 Si    c      -0.000007     -0.000056      0.000138      0.000000
     36 Si    c      -0.000161      0.000097      0.000085      0.000000
     37 Si    c      -0.000064     -0.000000     -0.000367      0.000000
     38 Si    c       0.000300     -0.000130      0.000055      0.000000
     39 Si    c      -0.000018      0.000056      0.000089      0.000000
     40 Si    c       0.000104      0.000113      0.000283      0.000000
     41 Si    c      -0.000046      0.000023     -0.000046      0.000000
     42 Si    c      -0.000008     -0.000132     -0.000223      0.000000
     43 Ge    c      -0.000181      0.000027      0.000157      0.000000
     44 Si    c      -0.000416      0.000098      0.000121      0.000000
     45 Si    c       0.000116     -0.000029      0.000034      0.000000
     46 Si    c       0.000064     -0.000021      0.000086      0.000000
     47 Si    c       0.000013     -0.000067     -0.000039      0.000000
     48 Ge    c      -0.000477      0.000265     -0.000249      0.000000
     49 Si    c      -0.000121     -0.000138      0.000047      0.000000
     50 Si    c      -0.000136      0.000050     -0.000246      0.000000
     51 Si    c       0.000002     -0.000026      0.000201      0.000000
     52 Si    c       0.000077     -0.000058     -0.000537      0.000000
     53 Si    c       0.000032     -0.000019      0.000076      0.000000
     54 Si    c      -0.000123      0.000083      0.000461      0.000000
     55 Si    c       0.000099     -0.000329     -0.000067      0.000000
     56 Si    c       0.000059     -0.000114     -0.000090      0.000000
     57 Si    c       0.000046     -0.000005     -0.000009      0.000000
     58 Si    c      -0.000072      0.000045      0.000017      0.000000
     59 Si    c      -0.000021      0.000068     -0.000029      0.000000
     60 Si    c       0.000191     -0.000150      0.000574      0.000000
     61 O2    c      -0.000027      0.000139     -0.000247      0.000000
     62 O2    c      -0.000023      0.000071      0.000014      0.000000
     63 O2    c       0.000002      0.000010      0.000002      0.000000
     64 O2    c       0.000009      0.000022      0.000080      0.000000
     65 O2    c      -0.000015     -0.000006     -0.000014      0.000000
     66 O2    c      -0.000237      0.000163     -0.000411      0.000000
     67 O2    c       0.000057      0.000011     -0.000200      0.000000
     68 O2    c       0.000055      0.000020      0.000108      0.000000
     69 O2    c      -0.000089      0.000081      0.000161      0.000000
     70 O2    c       0.000016      0.000064      0.000138      0.000000
     71 O2    c       0.000060     -0.000279      0.000517      0.000000
     72 O2    c       0.000066     -0.000031      0.000106      0.000000
     73 O2    c      -0.000372      0.000530     -0.001412      0.000000
     74 O2    c      -0.000012      0.000091     -0.000122      0.000000
     75 O2    c       0.000007     -0.000029      0.000008      0.000000
     76 O2    c       0.000057     -0.000035     -0.000077      0.000000
     77 O2    c      -0.000105      0.000206      0.000196      0.000000
     78 O2    c      -0.000016     -0.000004      0.000012      0.000000
     79 O2    c       0.000043      0.000058      0.000003      0.000000
     80 O2    c      -0.000153      0.000144     -0.000045      0.000000
     81 O2    c      -0.000003      0.000009     -0.000001      0.000000
     82 O2    c      -0.000009     -0.000036     -0.000129      0.000000
     83 O2    c      -0.000061      0.000041      0.000012      0.000000
     84 O2    c      -0.000016     -0.000131     -0.000085      0.000000
     85 O3    c      -0.000131      0.000908     -0.000265      0.000000
     86 O2    c      -0.000101      0.000053      0.000198      0.000000
     87 O2    c      -0.000054      0.000017     -0.000029      0.000000
     88 O2    c      -0.000009      0.000040     -0.000057      0.000000
     89 O2    c       0.000108     -0.000121      0.000057      0.000000
     90 O3    c       0.000020     -0.000135      0.000719      0.000000
     91 O2    c       0.000230     -0.000077     -0.001509      0.000000
     92 O2    c      -0.000019      0.000031     -0.000267      0.000000
     93 O2    c      -0.000018      0.000046      0.000369      0.000000
     94 O2    c      -0.000057      0.000017     -0.000315      0.000000
     95 O2    c       0.000006     -0.000044     -0.000247      0.000000
     96 O2    c      -0.000101     -0.000162      0.001488      0.000000
     97 O2    c      -0.000002     -0.000061     -0.000047      0.000000
     98 O2    c       0.000077     -0.000121     -0.000039      0.000000
     99 O2    c       0.000048     -0.000016      0.000098      0.000000
    100 O2    c      -0.000115      0.000126     -0.000066      0.000000
    101 O3    c       0.000067      0.000081      0.000135      0.000000
    102 O2    c       0.000276     -0.000049     -0.000187      0.000000
    103 O2    c       0.000311     -0.000339      0.000035      0.000000
    104 O2    c      -0.000003     -0.000016     -0.000098      0.000000
    105 O2    c      -0.000007      0.000019     -0.000040      0.000000
    106 O2    c      -0.000005     -0.000007      0.000003      0.000000
    107 O2    c      -0.000056     -0.000024      0.000037      0.000000
    108 O2    c      -0.000043      0.000302      0.000072      0.000000
    109 O2    c       0.000000     -0.000070      0.000035      0.000000
    110 O2    c       0.000012      0.000012      0.000121      0.000000
    111 O2    c      -0.000009     -0.000006      0.000202      0.000000
    112 O2    c       0.000022      0.000000     -0.000258      0.000000
    113 O2    c       0.000615     -0.000095      0.000433      0.000000
    114 O2    c       0.000062     -0.000072     -0.000259      0.000000
    115 O2    c      -0.000054      0.000029     -0.000061      0.000000
    116 O2    c      -0.000048      0.000122      0.000004      0.000000
    117 O2    c      -0.000022     -0.000010      0.000020      0.000000
    118 O2    c      -0.000084      0.000055      0.000065      0.000000
    119 O2    c       0.000019     -0.000034      0.000022      0.000000
    120 O2    c       0.000039     -0.000013      0.000054      0.000000
    121 O3    c      -0.000055      0.000085      0.000048      0.000000
    122 O2    c       0.000141     -0.000143     -0.000088      0.000000
    123 O2    c      -0.000002     -0.000042     -0.000067      0.000000
    124 O2    c       0.000012     -0.000015      0.000003      0.000000
    125 O2    c      -0.000027      0.000008     -0.000026      0.000000
    126 O3    c      -0.000045      0.000128     -0.000078      0.000000
    127 O2    c      -0.000217      0.000058      0.000293      0.000000
    128 O2    c       0.000021      0.000063     -0.000040      0.000000
    129 O2    c       0.000014      0.000068     -0.000098      0.000000
    130 O2    c       0.000028     -0.000003     -0.000024      0.000000
    131 O3    c      -0.000130      0.000200     -0.000241      0.000000
    132 O2    c       0.000109     -0.000048     -0.000174      0.000000
    133 O2    c      -0.000059      0.000046      0.000081      0.000000
    134 O2    c      -0.000100      0.000074      0.000046      0.000000
    135 O2    c       0.000038      0.000011      0.000026      0.000000
    136 O2    c      -0.000009      0.000066      0.000035      0.000000
    137 O2    c       0.000021     -0.000055      0.000119      0.000000
    138 O2    c       0.000025      0.000037     -0.000109      0.000000
    139 O2    c      -0.000025     -0.000064      0.000347      0.000000
    140 O3    c       0.000134     -0.000120     -0.000600      0.000000
    141 O2    c      -0.000037      0.000097     -0.000056      0.000000
    142 O2    c       0.000035      0.000006     -0.000067      0.000000
    143 O2    c      -0.000037      0.000035     -0.000098      0.000000
    144 O3    c       0.000146     -0.000236     -0.000152      0.000000
    145 O2    c      -0.000145     -0.000080      0.000254      0.000000
    146 O2    c      -0.000036      0.000006      0.000024      0.000000
    147 O2    c       0.000022      0.000003      0.000032      0.000000
    148 O2    c       0.000036      0.000046      0.000041      0.000000
    149 O2    c       0.000063     -0.000174      0.000138      0.000000
    150 O2    c      -0.000068      0.000052      0.000044      0.000000
    151 O3    c       0.000142      0.000055     -0.000245      0.000000
    152 O2    c       0.000001     -0.000003     -0.000498      0.000000
    153 O2    c      -0.000024      0.000046      0.000011      0.000000
    154 O2    c      -0.000003      0.000007     -0.000597      0.000000
    155 O2    c       0.000009      0.000003     -0.000037      0.000000
    156 O2    c      -0.000059      0.000056     -0.000185      0.000000
    157 O3    c       0.000017     -0.000064     -0.000060      0.000000
    158 O2    c      -0.000018     -0.000006     -0.000042      0.000000
    159 O2    c       0.000013     -0.000008      0.000002      0.000000
    160 O2    c      -0.000005      0.000003     -0.000007      0.000000
    161 O2    c       0.000024     -0.000037      0.000013      0.000000
    162 O3    c      -0.000079      0.000078      0.000319      0.000000
    163 O2    c       0.000047      0.000007      0.000034      0.000000
    164 O2    c       0.000012      0.000020      0.000127      0.000000
    165 O2    c      -0.000009     -0.000006      0.000038      0.000000
    166 O2    c      -0.000018      0.000047      0.000017      0.000000
    167 O2    c      -0.000049     -0.000027      0.000039      0.000000
    168 O2    c      -0.000001     -0.000042      0.000091      0.000000
    169 O2    c      -0.000036      0.000013     -0.000107      0.000000
    170 O2    c       0.000028      0.000148      0.000128      0.000000
    171 O2    c       0.000038     -0.000082     -0.000017      0.000000
    172 O3    c       0.000153     -0.000077     -0.000321      0.000000
    173 O2    c      -0.000024     -0.000004     -0.000056      0.000000
    174 O2    c      -0.000040      0.000079     -0.000079      0.000000
    175 O2    c       0.000032      0.000047      0.000250      0.000000
    176 O2    c      -0.000020      0.000008      0.000109      0.000000
    177 O2    c       0.000033      0.000022      0.000347      0.000000
    178 O2    c       0.000032     -0.000023     -0.000178      0.000000
    179 O2    c       0.000072     -0.000024      0.000292      0.000000
    180 O2    c      -0.000038      0.000045      0.000139      0.000000
    181 F     c       0.000014     -0.000009     -0.000034      0.000000
    182 F     c      -0.000004     -0.000006     -0.000049      0.000000
    183 F     c      -0.000016      0.000021     -0.000062      0.000000
    184 F     c       0.000000     -0.000002      0.000112      0.000000
    185 F     c       0.000012     -0.000060      0.000215      0.000000
    186 F     c      -0.000048      0.000056      0.000138      0.000000
    187 O2    s      -0.000008     -0.000002      0.000210      0.000000
    188 O2    s      -0.000119     -0.000045     -0.000157      0.000000
    189 O2    s      -0.000032      0.000004     -0.000006      0.000000
    190 O2    s      -0.000023      0.000017     -0.000076      0.000000
    191 O2    s       0.000015      0.000001      0.000059      0.000000
    192 O2    s       0.000096     -0.000063      0.000071      0.000000
    193 O2    s      -0.000116     -0.000004      0.000133      0.000000
    194 O2    s       0.000022     -0.000022      0.000057      0.000000
    195 O2    s      -0.000034      0.000107      0.000119      0.000000
    196 O2    s      -0.000024     -0.000006     -0.000038      0.000000
    197 O2    s      -0.000199      0.000276     -0.000240      0.000000
    198 O2    s       0.000024     -0.000049     -0.000015      0.000000
    199 O2    s      -0.000335     -0.000097      0.000500      0.000000
    200 O2    s      -0.000027      0.000002      0.000005      0.000000
    201 O2    s       0.000038      0.000014     -0.000108      0.000000
    202 O2    s      -0.000027      0.000071     -0.000061      0.000000
    203 O2    s       0.000069     -0.000138     -0.000230      0.000000
    204 O2    s      -0.000077      0.000046      0.000045      0.000000
    205 O2    s       0.000031     -0.000065      0.000253      0.000000
    206 O2    s      -0.000010      0.000088      0.000256      0.000000
    207 O2    s      -0.000022      0.000004      0.000072      0.000000
    208 O2    s       0.000115      0.000019      0.000203      0.000000
    209 O2    s       0.000009     -0.000030      0.000126      0.000000
    210 O2    s       0.000068     -0.000112      0.000191      0.000000
    211 O3    s      -0.000153      0.000103     -0.000097      0.000000
    212 O2    s       0.000076     -0.000036     -0.000251      0.000000
    213 O2    s       0.000037     -0.000066     -0.000080      0.000000
    214 O2    s       0.000047     -0.000035     -0.000050      0.000000
    215 O2    s       0.000035     -0.000045     -0.000118      0.000000
    216 O3    s      -0.000334     -0.000025     -0.000778      0.000000
    217 O2    s       0.000120     -0.000068      0.000146      0.000000
    218 O2    s      -0.000005      0.000032     -0.000008      0.000000
    219 O2    s       0.000049     -0.000012     -0.000106      0.000000
    220 O2    s       0.000021     -0.000007      0.000051      0.000000
    221 O2    s       0.000038      0.000076      0.000161      0.000000
    222 O2    s      -0.000152      0.000032      0.000162      0.000000
    223 O2    s       0.000067     -0.000034     -0.000297      0.000000
    224 O2    s       0.000080     -0.000180     -0.000009      0.000000
    225 O2    s       0.000009      0.000021     -0.000079      0.000000
    226 O2    s      -0.000026      0.000019     -0.000179      0.000000
    227 O3    s      -0.000039     -0.000048      0.000075      0.000000
    228 O2    s       0.000028      0.000013     -0.000022      0.000000
    229 O2    s       0.000233     -0.000295     -0.000073      0.000000
    230 O2    s      -0.000069      0.000071      0.000164      0.000000
    231 O2    s       0.000035     -0.000011      0.000079      0.000000
    232 O2    s       0.000032     -0.000005     -0.000011      0.000000
    233 O2    s      -0.000062      0.000031      0.000177      0.000000
    234 O2    s       0.000039      0.000062      0.000332      0.000000
    235 O2    s      -0.000010      0.000033      0.000011      0.000000
    236 O2    s       0.000036     -0.000014     -0.000082      0.000000
    237 O2    s      -0.000036      0.000032     -0.000154      0.000000
    238 O2    s      -0.000024      0.000114      0.000102      0.000000
    239 O2    s      -0.000810      0.000058      0.000541      0.000000
    240 O2    s      -0.000035     -0.000010      0.000044      0.000000
    241 O2    s       0.000173     -0.000107      0.000048      0.000000
    242 O2    s       0.000007      0.000061      0.000254      0.000000
    243 O2    s      -0.000006      0.000028      0.000093      0.000000
    244 O2    s      -0.000051      0.000072      0.000060      0.000000
    245 O2    s      -0.000027      0.000001      0.000078      0.000000
    246 O2    s      -0.000016      0.000049     -0.000051      0.000000
    247 O3    s      -0.000001     -0.000045     -0.000340      0.000000
    248 O2    s      -0.000025      0.000090      0.000144      0.000000
    249 O2    s      -0.000019      0.000021     -0.000027      0.000000
    250 O2    s      -0.000012     -0.000005     -0.000109      0.000000
    251 O2    s      -0.000000     -0.000010     -0.000067      0.000000
    252 O3    s       0.000051     -0.000054     -0.000151      0.000000
    253 O2    s       0.000438     -0.000174     -0.000884      0.000000
    254 O2    s      -0.000025     -0.000015     -0.000138      0.000000
    255 O2    s      -0.000014     -0.000061     -0.000046      0.000000
    256 O2    s       0.000002     -0.000003     -0.000113      0.000000
    257 O3    s       0.000035     -0.000134     -0.000023      0.000000
    258 O2    s      -0.000058      0.000028     -0.000022      0.000000
    259 O2    s       0.000034     -0.000058      0.000151      0.000000
    260 O2    s       0.000036     -0.000047      0.000118      0.000000
    261 O2    s       0.000000     -0.000021      0.000133      0.000000
    262 O2    s       0.000026     -0.000047      0.000134      0.000000
    263 O2    s      -0.000006      0.000001      0.000042      0.000000
    264 O2    s      -0.000129      0.000056      0.000648      0.000000
    265 O2    s       0.000180      0.000189     -0.000553      0.000000
    266 O3    s      -0.000092     -0.000010      0.000511      0.000000
    267 O2    s      -0.000006     -0.000064     -0.000068      0.000000
    268 O2    s      -0.000014     -0.000027     -0.000020      0.000000
    269 O2    s      -0.000004     -0.000007      0.000043      0.000000
    270 O3    s      -0.000263      0.000143     -0.000223      0.000000
    271 O2    s       0.000032     -0.000068      0.000076      0.000000
    272 O2    s       0.000117     -0.000130     -0.000012      0.000000
    273 O2    s      -0.000027      0.000010      0.000062      0.000000
    274 O2    s      -0.000012     -0.000020      0.000094      0.000000
    275 O2    s       0.000045      0.000010      0.000078      0.000000
    276 O2    s       0.000118     -0.000186      0.000290      0.000000
    277 O3    s      -0.000106      0.000012      0.000079      0.000000
    278 O2    s       0.000033      0.000017     -0.000165      0.000000
    279 O2    s      -0.000005     -0.000012      0.000010      0.000000
    280 O2    s      -0.000015     -0.000016     -0.000004      0.000000
    281 O2    s      -0.000014      0.000004     -0.000026      0.000000
    282 O2    s       0.000102     -0.000029      0.000151      0.000000
    283 O3    s      -0.000070      0.000044      0.000146      0.000000
    284 O2    s       0.000119      0.000013      0.000015      0.000000
    285 O2    s      -0.000003     -0.000016      0.000024      0.000000
    286 O2    s       0.000004      0.000011     -0.000010      0.000000
    287 O2    s      -0.000015      0.000003      0.000005      0.000000
    288 O3    s       0.000029     -0.000075     -0.000093      0.000000
    289 O2    s      -0.000079     -0.000107      0.000073      0.000000
    290 O2    s       0.000055      0.000032     -0.000053      0.000000
    291 O2    s       0.000010     -0.000001      0.000074      0.000000
    292 O2    s      -0.000019      0.000004      0.000105      0.000000
    293 O2    s       0.000030     -0.000004      0.000065      0.000000
    294 O2    s       0.000101      0.000065      0.000008      0.000000
    295 O2    s       0.000028     -0.000008      0.000093      0.000000
    296 O2    s       0.000006     -0.000073     -0.000204      0.000000
    297 O2    s       0.000016      0.000018     -0.000115      0.000000
    298 O3    s      -0.000081      0.000001      0.000061      0.000000
    299 O2    s      -0.000004     -0.000006     -0.000070      0.000000
    300 O2    s       0.000022     -0.000039      0.000030      0.000000
    301 O2    s      -0.000015      0.000029     -0.000010      0.000000
    302 O2    s      -0.000034     -0.000018     -0.000122      0.000000
    303 O2    s      -0.000215     -0.000012      0.000116      0.000000
    304 O2    s      -0.000013     -0.000037      0.000018      0.000000
    305 O2    s      -0.000026      0.000017     -0.000227      0.000000
    306 O2    s      -0.000053      0.000060     -0.000019      0.000000
    307 F     s       0.000135     -0.000042      0.000311      0.000000
    308 F     s       0.000010      0.000007      0.000077      0.000000
    309 F     s       0.000009     -0.000042      0.000274      0.000000
    310 F     s       0.000003     -0.000018     -0.000172      0.000000
    311 F     s       0.000066      0.000105     -0.000501      0.000000
    312 F     s       0.000163     -0.000058     -0.000098      0.000000
--------------------------------------------------------------------------------
  Maximum abs         0.000810      0.000908      0.001604      0.000000
--------------------------------------------------------------------------------


  Time to end of optimisation =       5.8156 seconds


  Peak dynamic memory used =      19.13 MB 


  Timing analysis for GULP :

--------------------------------------------------------------------------------
  Task / Subroutine                                          Time (Seconds)
--------------------------------------------------------------------------------
  Calculation of reciprocal space energy and derivatives          0.2585
  Calculation of real space energy and derivatives                4.7952
  Calculation of three-body energy and derivatives                0.5203
  Calculation of matrix inversion                                 0.2036
--------------------------------------------------------------------------------
  Total CPU time                                                  5.8156
--------------------------------------------------------------------------------


  Dump file written as out.res                                                 
  CIF file written as out.cif                                                 


  Job Finished at 16:35.36 26th November   2016                               

