********************************************************************************
*                       GENERAL UTILITY LATTICE PROGRAM                        *
*                                 Julian Gale                                  *
*                      Nanochemistry Research Institute                        *
*                           Department of Chemistry                            *
*                    Curtin University, Western Australia                      *
********************************************************************************
* Version = 4.2.0 * Last modified =  20th January 2014                         *
********************************************************************************
*  optimise     - perform optimisation run                                     *
*  conp         - constant pressure calculation                                *
*  qok          - running with non charge neutral cell is OK                   *
********************************************************************************

  Job Started  at 10:37.51 26th November   2016                               

  Number of CPUs =     1


  Total number of configurations input =   1

********************************************************************************
*  Input for Configuration =   1                                               *
********************************************************************************

  Formula = Si57Ge3O120F6                                               

  Number of irreducible atoms/shells =     312


  Total number atoms/shells =     312

  Dimensionality = 3               :  Bulk   


  Charge on solid   =  -6.000000 =>neutralising background added


  Cartesian lattice vectors (Angstroms) :

       11.979389    0.000000    0.000000
       -6.037255   10.394846    0.000000
       -0.224871   -0.101726   29.421755

  Cell parameters (Angstroms/Degrees):

  a =      11.9794    alpha =  89.9514
  b =      12.0209    beta  =  90.4379
  c =      29.4228    gamma = 120.1477

  Initial cell volume =        3663.711602 Angs**3

  Temperature of configuration =  0.000     K 

  Pressure of configuration =         0.000 GPa 

  Fractional coordinates of asymmetric unit :

--------------------------------------------------------------------------------
   No.  Atomic       x           y          z         Charge      Occupancy
        Label      (Frac)      (Frac)     (Frac)        (e)         (Frac)  
--------------------------------------------------------------------------------
      1 Si    c    0.699600    0.375700    0.033890     4.00000    1.000000    
      2 Si    c    0.622409 *  0.325484 *  0.366176 *   4.00000    1.000000    
      3 Si    c    0.685773 *  0.300879 *  0.701039 *   4.00000    1.000000    
      4 Si    c    0.303114 *  0.622890 *  0.535646 *   4.00000    1.000000    
      5 Si    c    0.373236 *  0.683038 *  0.866007 *   4.00000    1.000000    
      6 Si    c    0.321319 *  0.701701 *  0.201125 *   4.00000    1.000000    
      7 Si    c    0.379318 *  0.704052 *  0.301955 *   4.00000    1.000000    
      8 Si    c    0.316221 *  0.615658 *  0.968188 *   4.00000    1.000000    
      9 Si    c    0.300942 *  0.676097 *  0.636325 *   4.00000    1.000000    
     10 Si    c    0.633809 *  0.304154 *  0.801427 *   4.00000    1.000000    
     11 Si    c    0.675647 *  0.374291 *  0.467482 *   4.00000    1.000000    
     12 Si    c    0.699364 *  0.320267 *  0.134596 *   4.00000    1.000000    
     13 Si    c    0.525986 *  0.409573 *  0.967140 *   4.00000    1.000000    
     14 Si    c    0.584043 *  0.114816 *  0.301385 *   4.00000    1.000000    
     15 Si    c    0.890458 *  0.467679 *  0.634116 *   4.00000    1.000000    
     16 Si    c    0.467366 *  0.579063 *  0.469373 *   4.00000    1.000000    
     17 Si    c    0.421747 *  0.900248 *  0.803460 *   4.00000    1.000000    
     18 Si    c    0.110249 *  0.527008 *  0.136016 *   4.00000    1.000000    
     19 Si    c    0.418153 *  0.531939 *  0.367160 *   4.00000    1.000000    
     20 Si    c    0.108467 *  0.577738 *  0.034091 *   4.00000    1.000000    
     21 Si    c    0.470935 *  0.887925 *  0.702337 *   4.00000    1.000000    
     22 Si    c    0.588400 *  0.469766 *  0.864192 *   4.00000    1.000000    
     23 Si    c    0.889014 *  0.416895 *  0.532386 *   4.00000    1.000000    
     24 Si    c    0.527465 *  0.110638 *  0.199474 *   4.00000    1.000000    
     25 Ge    c    0.315388 *  0.413933 *  0.858931 *   4.00000    1.000000    
     26 Si    c    0.598804 *  0.902708 *  0.185952 *   4.00000    1.000000    
     27 Si    c    0.101020 *  0.696691 *  0.519097 *   4.00000    1.000000    
     28 Si    c    0.699554 *  0.603786 *  0.353639 *   4.00000    1.000000    
     29 Si    c    0.406788 *  0.100869 *  0.687000 *   4.00000    1.000000    
     30 Si    c    0.899622 *  0.297714 *  0.019574 *   4.00000    1.000000    
     31 Si    c    0.397777 *  0.298837 *  0.481651 *   4.00000    1.000000    
     32 Si    c    0.901216 *  0.598127 *  0.149629 *   4.00000    1.000000    
     33 Si    c    0.705031 *  0.100708 *  0.817818 *   4.00000    1.000000    
     34 Si    c    0.598030 *  0.693390 *  0.982916 *   4.00000    1.000000    
     35 Si    c    0.099332 *  0.396411 *  0.649853 *   4.00000    1.000000    
     36 Si    c    0.303528 *  0.905436 *  0.316077 *   4.00000    1.000000    
     37 Si    c    0.241647 *  0.328594 *  0.954406 *   4.00000    1.000000    
     38 Si    c    0.660210 *  0.913239 *  0.286687 *   4.00000    1.000000    
     39 Si    c    0.090914 *  0.746072 *  0.619625 *   4.00000    1.000000    
     40 Si    c    0.745398 *  0.653952 *  0.454953 *   4.00000    1.000000    
     41 Si    c    0.347113 *  0.102391 *  0.787155 *   4.00000    1.000000    
     42 Si    c    0.908461 *  0.248196 *  0.120522 *   4.00000    1.000000    
     43 Si    c    0.341997 *  0.253751 *  0.380333 *   4.00000    1.000000    
     44 Si    c    0.908385 *  0.655818 *  0.048935 *   4.00000    1.000000    
     45 Si    c    0.750733 *  0.088737 *  0.717130 *   4.00000    1.000000    
     46 Si    c    0.659427 *  0.749852 *  0.881264 *   4.00000    1.000000    
     47 Si    c    0.092615 *  0.343556 *  0.548541 *   4.00000    1.000000    
     48 Si    c    0.249134 *  0.909481 *  0.215242 *   4.00000    1.000000    
     49 Si    c    0.966193 *  0.116293 *  0.970715 *   4.00000    1.000000    
     50 Si    c    0.877094 *  0.849771 *  0.300943 *   4.00000    1.000000    
     51 Ge    c    0.153369 *  0.029700 *  0.636666 *   4.00000    1.000000    
     52 Ge    c    0.029223 *  0.876216 *  0.467893 *   4.00000    1.000000    
     53 Si    c    0.128029 *  0.163912 *  0.805243 *   4.00000    1.000000    
     54 Si    c    0.845723 *  0.968433 *  0.135549 *   4.00000    1.000000    
     55 Si    c    0.123986 *  0.975441 *  0.364811 *   4.00000    1.000000    
     56 Si    c    0.845173 *  0.872215 *  0.034951 *   4.00000    1.000000    
     57 Si    c    0.029787 *  0.151439 *  0.703539 *   4.00000    1.000000    
     58 Si    c    0.883124 *  0.029907 *  0.868323 *   4.00000    1.000000    
     59 Si    c    0.151016 *  0.126169 *  0.533294 *   4.00000    1.000000    
     60 Si    c    0.967740 *  0.845821 *  0.200025 *   4.00000    1.000000    
     61 O2    c    0.921302 *  0.993140 *  0.002484 *   0.87073    1.000000    
     62 O2    c    0.004498 *  0.933879 *  0.330571 *   0.87073    1.000000    
     63 O3    c    0.066100 *  0.065060 *  0.673532 *   1.33043    1.000000    
     64 O3    c    0.066752 *  0.005409 *  0.501770 *   1.33043    1.000000    
     65 O2    c    0.005721 *  0.070430 *  0.837025 *   0.87073    1.000000    
     66 O2    c    0.927038 *  0.926727 *  0.167479 *   0.87073    1.000000    
     67 O2    c    0.342173 *  0.581974 *  0.334698 *   0.87073    1.000000    
     68 O2    c    0.421185 *  0.760810 *  0.670612 *   0.87073    1.000000    
     69 O2    c    0.233885 *  0.653719 *  0.001681 *   0.87073    1.000000    
     70 O2    c    0.675674 *  0.427604 *  0.834647 *   0.87073    1.000000    
     71 O2    c    0.576014 *  0.235355 *  0.166816 *   0.87073    1.000000    
     72 O2    c    0.762958 *  0.337780 *  0.499767 *   0.87073    1.000000    
     73 O2    c    0.577082 *  0.336956 *  0.000359 *   0.87073    1.000000    
     74 O2    c    0.767184 *  0.420607 *  0.667124 *   0.87073    1.000000    
     75 O2    c    0.661038 *  0.241847 *  0.333162 *   0.87073    1.000000    
     76 O2    c    0.424420 *  0.658223 *  0.502625 *   0.87073    1.000000    
     77 O2    c    0.236220 *  0.577423 *  0.168655 *   0.87073    1.000000    
     78 O2    c    0.343189 *  0.780360 *  0.837833 *   0.87073    1.000000    
     79 O2    c    0.119378 *  0.208544 *  0.979537 *   0.87073    1.000000    
     80 O2    c    0.786958 *  0.913454 *  0.306644 *   0.87073    1.000000    
     81 O3    c    0.086220 *  0.865556 *  0.641016 *   1.33043    1.000000    
     82 O3    c    0.866722 *  0.776696 *  0.476931 *   1.33043    1.000000    
     83 O2    c    0.225375 *  0.105956 *  0.808335 *   0.87073    1.000000    
     84 O2    c    0.909194 *  0.122525 *  0.140491 *   0.87073    1.000000    
     85 O2    c    0.216251 *  0.129102 *  0.358954 *   0.87073    1.000000    
     86 O2    c    0.909364 *  0.782794 *  0.029360 *   0.87073    1.000000    
     87 O2    c    0.875549 *  0.088711 *  0.696899 *   0.87073    1.000000    
     88 O2    c    0.786255 *  0.875929 *  0.862489 *   0.87073    1.000000    
     89 O2    c    0.093640 *  0.221366 *  0.526448 *   0.87073    1.000000    
     90 O2    c    0.122128 *  0.909327 *  0.195462 *   0.87073    1.000000    
     91 O2    c    0.922610 *  0.855769 *  0.249786 *   0.87073    1.000000    
     92 O3    c    0.134320 *  0.077951 *  0.584124 *   1.33043    1.000000    
     93 O2    c    0.930745 *  0.063372 *  0.919992 *   0.87073    1.000000    
     94 O2    c    0.068997 *  0.144772 *  0.754718 *   0.87073    1.000000    
     95 O2    c    0.856441 *  0.925623 *  0.085211 *   0.87073    1.000000    
     96 O3    c    0.065021 *  0.935852 *  0.413874 *   1.33043    1.000000    
     97 O2    c    0.895330 *  0.197590 *  0.981599 *   0.87073    1.000000    
     98 O2    c    0.797195 *  0.700577 *  0.315435 *   0.87073    1.000000    
     99 O3    c    0.316155 *  0.103909 *  0.647155 *   1.33043    1.000000    
    100 O3    c    0.107458 *  0.792689 *  0.479644 *   1.33043    1.000000    
    101 O3    c    0.201145 *  0.309677 *  0.817327 *   1.33043    1.000000    
    102 O2    c    0.694487 *  0.899914 *  0.147620 *   0.87073    1.000000    
    103 O2    c    0.206809 *  0.905592 *  0.354411 *   0.87073    1.000000    
    104 O2    c    0.693113 *  0.787027 *  0.022382 *   0.87073    1.000000    
    105 O2    c    0.102027 *  0.301074 *  0.688159 *   0.87073    1.000000    
    106 O2    c    0.802979 *  0.101434 *  0.856434 *   0.87073    1.000000    
    107 O2    c    0.302641 *  0.200553 *  0.519964 *   0.87073    1.000000    
    108 O2    c    0.899259 *  0.694740 *  0.187662 *   0.87073    1.000000    
    109 O2    c    0.321435 *  0.645676 *  0.251604 *   0.87073    1.000000    
    110 O2    c    0.360728 *  0.678175 *  0.586325 *   0.87073    1.000000    
    111 O2    c    0.318373 *  0.672481 *  0.918017 *   0.87073    1.000000    
    112 O2    c    0.690848 *  0.360748 *  0.751255 *   0.87073    1.000000    
    113 O2    c    0.641733 *  0.318946 *  0.083984 *   0.87073    1.000000    
    114 O2    c    0.677628 *  0.321310 *  0.416614 *   0.87073    1.000000    
    115 O2    c    0.370172 *  0.323580 *  0.970292 *   0.87073    1.000000    
    116 O2    c    0.671281 *  0.046060 *  0.304652 *   0.87073    1.000000    
    117 O2    c    0.958556 *  0.622592 *  0.636929 *   0.87073    1.000000    
    118 O2    c    0.623042 *  0.664361 *  0.472086 *   0.87073    1.000000    
    119 O2    c    0.336044 *  0.969786 *  0.805573 *   0.87073    1.000000    
    120 O2    c    0.041328 *  0.371091 *  0.138835 *   0.87073    1.000000    
    121 O2    c    0.331806 *  0.376229 *  0.362655 *   0.87073    1.000000    
    122 O2    c    0.039836 *  0.664903 *  0.030302 *   0.87073    1.000000    
    123 O2    c    0.627148 *  0.956270 *  0.699026 *   0.87073    1.000000    
    124 O2    c    0.668911 *  0.627079 *  0.864191 *   0.87073    1.000000    
    125 O2    c    0.959764 *  0.332093 *  0.529684 *   0.87073    1.000000    
    126 O2    c    0.370915 *  0.041267 *  0.196363 *   0.87073    1.000000    
    127 O2    c    0.767213 *  0.300681 *  0.011598 *   0.87073    1.000000    
    128 O2    c    0.697547 *  0.469527 *  0.344788 *   0.87073    1.000000    
    129 O2    c    0.541762 *  0.232772 *  0.679400 *   0.87073    1.000000    
    130 O2    c    0.235912 *  0.697943 *  0.513012 *   0.87073    1.000000    
    131 O3    c    0.298436 *  0.547098 *  0.841790 *   1.33043    1.000000    
    132 O2    c    0.464039 *  0.769067 *  0.178508 *   0.87073    1.000000    
    133 O2    c    0.304685 *  0.772545 *  0.323976 *   0.87073    1.000000    
    134 O2    c    0.462318 *  0.689120 *  0.988613 *   0.87073    1.000000    
    135 O2    c    0.231955 *  0.532194 *  0.657661 *   0.87073    1.000000    
    136 O2    c    0.707576 *  0.235577 *  0.824406 *   0.87073    1.000000    
    137 O2    c    0.531764 *  0.298215 *  0.489049 *   0.87073    1.000000    
    138 O2    c    0.767491 *  0.463704 *  0.156717 *   0.87073    1.000000    
    139 O2    c    0.780036 *  0.531664 *  0.029228 *   0.87073    1.000000    
    140 O2    c    0.466492 *  0.252162 *  0.360587 *   0.87073    1.000000    
    141 O2    c    0.755980 *  0.216142 *  0.697076 *   0.87073    1.000000    
    142 O2    c    0.220555 *  0.468070 *  0.530142 *   0.87073    1.000000    
    143 O2    c    0.530391 *  0.745927 *  0.863514 *   0.87073    1.000000    
    144 O2    c    0.246578 *  0.782626 *  0.195791 *   0.87073    1.000000    
    145 O2    c    0.535498 *  0.787450 *  0.306463 *   0.87073    1.000000    
    146 O2    c    0.249829 *  0.461199 *  0.971911 *   0.87073    1.000000    
    147 O2    c    0.218776 *  0.749300 *  0.639321 *   0.87073    1.000000    
    148 O2    c    0.477821 *  0.225936 *  0.805647 *   0.87073    1.000000    
    149 O2    c    0.747492 *  0.528874 *  0.473652 *   0.87073    1.000000    
    150 O2    c    0.782576 *  0.247936 *  0.139720 *   0.87073    1.000000    
    151 O3    c    0.212841 *  0.303872 *  0.901892 *   1.33043    1.000000    
    152 O2    c    0.675708 *  0.909811 *  0.232284 *   0.87073    1.000000    
    153 O2    c    0.094306 *  0.769516 *  0.564886 *   0.87073    1.000000    
    154 O2    c    0.770988 *  0.675331 *  0.400562 *   0.87073    1.000000    
    155 O2    c    0.328956 *  0.099809 *  0.732335 *   0.87073    1.000000    
    156 O2    c    0.904838 *  0.228730 *  0.066174 *   0.87073    1.000000    
    157 O2    c    0.323480 *  0.230213 *  0.434626 *   0.87073    1.000000    
    158 O2    c    0.907200 *  0.673360 *  0.103243 *   0.87073    1.000000    
    159 O2    c    0.771463 *  0.091212 *  0.771532 *   0.87073    1.000000    
    160 O2    c    0.667958 *  0.759753 *  0.936058 *   0.87073    1.000000    
    161 O2    c    0.095463 *  0.324285 *  0.602896 *   0.87073    1.000000    
    162 O2    c    0.231908 *  0.908641 *  0.269605 *   0.87073    1.000000    
    163 O2    c    0.577058 *  0.551501 *  0.988165 *   0.87073    1.000000    
    164 O2    c    0.443612 *  0.030514 *  0.324628 *   0.87073    1.000000    
    165 O2    c    0.973608 *  0.409821 *  0.657360 *   0.87073    1.000000    
    166 O2    c    0.410678 *  0.436944 *  0.491140 *   0.87073    1.000000    
    167 O2    c    0.563652 *  0.979012 *  0.827130 *   0.87073    1.000000    
    168 O2    c    0.025920 *  0.583342 *  0.158901 *   0.87073    1.000000    
    169 O2    c    0.560756 *  0.592179 *  0.345142 *   0.87073    1.000000    
    170 O2    c    0.025891 *  0.436567 *  0.010765 *   0.87073    1.000000    
    171 O2    c    0.414249 *  0.971692 *  0.679011 *   0.87073    1.000000    
    172 O3    c    0.453040 *  0.410979 *  0.838715 *   1.33043    1.000000    
    173 O2    c    0.973359 *  0.558355 *  0.509711 *   0.87073    1.000000    
    174 O2    c    0.584659 *  0.027255 *  0.176328 *   0.87073    1.000000    
    175 O2    c    0.582182 *  0.165261 *  0.250203 *   0.87073    1.000000    
    176 O2    c    0.835330 *  0.414601 *  0.583207 *   0.87073    1.000000    
    177 O2    c    0.578598 *  0.414975 *  0.916180 *   0.87073    1.000000    
    178 O2    c    0.419066 *  0.839412 *  0.753650 *   0.87073    1.000000    
    179 O2    c    0.162659 *  0.579588 *  0.085082 *   0.87073    1.000000    
    180 O2    c    0.414084 *  0.580523 *  0.418386 *   0.87073    1.000000    
    181 F     c    0.451023 *  0.904188 *  0.250310 *   0.56000    1.000000    
    182 F     c    0.098509 *  0.549752 *  0.583517 *   0.56000    1.000000    
    183 F     c    0.422217 *  0.517455 *  0.907277 *   0.56000    1.000000    
    184 F     c    0.553415 *  0.099306 *  0.751994 *   0.56000    1.000000    
    185 F     c    0.901267 *  0.449851 *  0.083842 *   0.56000    1.000000    
    186 F     c    0.547666 *  0.450701 *  0.417010 *   0.56000    1.000000    
    187 O2    s    0.917578 *  0.993059 *  0.002651 *  -2.87073    1.000000    
    188 O2    s    0.003189 *  0.928891 *  0.330971 *  -2.87073    1.000000    
    189 O3    s    0.069870 *  0.071191 *  0.673504 *  -3.33043    1.000000    
    190 O3    s    0.072505 *  0.006960 *  0.502158 *  -3.33043    1.000000    
    191 O2    s    0.004302 *  0.075350 *  0.837332 *  -2.87073    1.000000    
    192 O2    s    0.922438 *  0.922420 *  0.167513 *  -2.87073    1.000000    
    193 O2    s    0.353797 *  0.589485 *  0.334624 *  -2.87073    1.000000    
    194 O2    s    0.413926 *  0.765091 *  0.670324 *  -2.87073    1.000000    
    195 O2    s    0.229672 *  0.642008 *  0.001494 *  -2.87073    1.000000    
    196 O2    s    0.662759 *  0.419556 *  0.834302 *  -2.87073    1.000000    
    197 O2    s    0.583790 *  0.231374 *  0.166816 *  -2.87073    1.000000    
    198 O2    s    0.766800 *  0.349572 *  0.499759 *  -2.87073    1.000000    
    199 O2    s    0.584313 *  0.348524 *  0.000333 *  -2.87073    1.000000    
    200 O2    s    0.771480 *  0.413018 *  0.667248 *  -2.87073    1.000000    
    201 O2    s    0.649187 *  0.237269 *  0.333253 *  -2.87073    1.000000    
    202 O2    s    0.416410 *  0.646435 *  0.502588 *  -2.87073    1.000000    
    203 O2    s    0.231854 *  0.584873 *  0.168596 *  -2.87073    1.000000    
    204 O2    s    0.354434 *  0.782326 *  0.837317 *  -2.87073    1.000000    
    205 O2    s    0.115543 *  0.210883 *  0.976160 *  -2.87073    1.000000    
    206 O2    s    0.783341 *  0.906719 *  0.304004 *  -2.87073    1.000000    
    207 O3    s    0.092231 *  0.867011 *  0.638507 *  -3.33043    1.000000    
    208 O3    s    0.867824 *  0.772448 *  0.473974 *  -3.33043    1.000000    
    209 O2    s    0.228703 *  0.111330 *  0.805779 *  -2.87073    1.000000    
    210 O2    s    0.902423 *  0.119213 *  0.137941 *  -2.87073    1.000000    
    211 O2    s    0.219583 *  0.125855 *  0.361762 *  -2.87073    1.000000    
    212 O2    s    0.902431 *  0.779257 *  0.031937 *  -2.87073    1.000000    
    213 O2    s    0.878447 *  0.095306 *  0.699718 *  -2.87073    1.000000    
    214 O2    s    0.782725 *  0.878362 *  0.865059 *  -2.87073    1.000000    
    215 O2    s    0.099597 *  0.224360 *  0.529498 *  -2.87073    1.000000    
    216 O2    s    0.118820 *  0.902588 *  0.197959 *  -2.87073    1.000000    
    217 O2    s    0.922639 *  0.853946 *  0.249869 *  -2.87073    1.000000    
    218 O3    s    0.137820 *  0.078868 *  0.583284 *  -3.33043    1.000000    
    219 O2    s    0.929452 *  0.065658 *  0.920022 *  -2.87073    1.000000    
    220 O2    s    0.070859 *  0.147595 *  0.754283 *  -2.87073    1.000000    
    221 O2    s    0.853934 *  0.924322 *  0.085122 *  -2.87073    1.000000    
    222 O3    s    0.068357 *  0.934961 *  0.413217 *  -3.33043    1.000000    
    223 O2    s    0.903186 *  0.199317 *  0.984349 *  -2.87073    1.000000    
    224 O2    s    0.795713 *  0.706611 *  0.317809 *  -2.87073    1.000000    
    225 O3    s    0.311402 *  0.097431 *  0.650155 *  -3.33043    1.000000    
    226 O3    s    0.100378 *  0.790469 *  0.482423 *  -3.33043    1.000000    
    227 O3    s    0.200592 *  0.300224 *  0.818762 *  -3.33043    1.000000    
    228 O2    s    0.700897 *  0.907521 *  0.150229 *  -2.87073    1.000000    
    229 O2    s    0.208146 *  0.912805 *  0.351575 *  -2.87073    1.000000    
    230 O2    s    0.698923 *  0.785994 *  0.019515 *  -2.87073    1.000000    
    231 O2    s    0.094315 *  0.295569 *  0.685735 *  -2.87073    1.000000    
    232 O2    s    0.801405 *  0.093808 *  0.853733 *  -2.87073    1.000000    
    233 O2    s    0.296842 *  0.202977 *  0.517402 *  -2.87073    1.000000    
    234 O2    s    0.906737 *  0.700798 *  0.185043 *  -2.87073    1.000000    
    235 O2    s    0.327306 *  0.657342 *  0.251558 *  -2.87073    1.000000    
    236 O2    s    0.348932 *  0.672387 *  0.586208 *  -2.87073    1.000000    
    237 O2    s    0.323401 *  0.667521 *  0.918286 *  -2.87073    1.000000    
    238 O2    s    0.684515 *  0.348882 *  0.751277 *  -2.87073    1.000000    
    239 O2    s    0.653498 *  0.324895 *  0.083981 *  -2.87073    1.000000    
    240 O2    s    0.671793 *  0.327116 *  0.416645 *  -2.87073    1.000000    
    241 O2    s    0.373607 *  0.333059 *  0.968363 *  -2.87073    1.000000    
    242 O2    s    0.661216 *  0.039265 *  0.302438 *  -2.87073    1.000000    
    243 O2    s    0.965254 *  0.619115 *  0.634785 *  -2.87073    1.000000    
    244 O2    s    0.619484 *  0.654177 *  0.469955 *  -2.87073    1.000000    
    245 O2    s    0.346246 *  0.976203 *  0.803419 *  -2.87073    1.000000    
    246 O2    s    0.034536 *  0.374254 *  0.136627 *  -2.87073    1.000000    
    247 O2    s    0.341770 *  0.379466 *  0.364977 *  -2.87073    1.000000    
    248 O2    s    0.033126 *  0.655016 *  0.032645 *  -2.87073    1.000000    
    249 O2    s    0.623964 *  0.963057 *  0.701266 *  -2.87073    1.000000    
    250 O2    s    0.659872 *  0.624371 *  0.866010 *  -2.87073    1.000000    
    251 O2    s    0.966341 *  0.342143 *  0.531959 *  -2.87073    1.000000    
    252 O2    s    0.374316 *  0.034678 *  0.198653 *  -2.87073    1.000000    
    253 O2    s    0.774204 *  0.308116 *  0.014772 *  -2.87073    1.000000    
    254 O2    s    0.690034 *  0.468698 *  0.347937 *  -2.87073    1.000000    
    255 O2    s    0.542570 *  0.225880 *  0.682542 *  -2.87073    1.000000    
    256 O2    s    0.228774 *  0.689952 *  0.516068 *  -2.87073    1.000000    
    257 O3    s    0.307474 *  0.552091 *  0.845563 *  -3.33043    1.000000    
    258 O2    s    0.463576 *  0.776219 *  0.181642 *  -2.87073    1.000000    
    259 O2    s    0.312221 *  0.779444 *  0.320859 *  -2.87073    1.000000    
    260 O2    s    0.461884 *  0.682032 *  0.985888 *  -2.87073    1.000000    
    261 O2    s    0.225254 *  0.532884 *  0.654610 *  -2.87073    1.000000    
    262 O2    s    0.699695 *  0.228378 *  0.821306 *  -2.87073    1.000000    
    263 O2    s    0.532598 *  0.306099 *  0.486020 *  -2.87073    1.000000    
    264 O2    s    0.774529 *  0.463062 *  0.153661 *  -2.87073    1.000000    
    265 O2    s    0.785565 *  0.528900 *  0.031796 *  -2.87073    1.000000    
    266 O2    s    0.469397 *  0.260120 *  0.363276 *  -2.87073    1.000000    
    267 O2    s    0.747838 *  0.211247 *  0.699652 *  -2.87073    1.000000    
    268 O2    s    0.215262 *  0.470955 *  0.532719 *  -2.87073    1.000000    
    269 O2    s    0.529085 *  0.740028 *  0.865696 *  -2.87073    1.000000    
    270 O2    s    0.254701 *  0.787977 *  0.198406 *  -2.87073    1.000000    
    271 O2    s    0.532674 *  0.792474 *  0.303866 *  -2.87073    1.000000    
    272 O2    s    0.256200 *  0.464186 *  0.969730 *  -2.87073    1.000000    
    273 O2    s    0.213696 *  0.741115 *  0.636897 *  -2.87073    1.000000    
    274 O2    s    0.480202 *  0.220741 *  0.803236 *  -2.87073    1.000000    
    275 O2    s    0.739539 *  0.525964 *  0.470997 *  -2.87073    1.000000    
    276 O2    s    0.787638 *  0.255594 *  0.137136 *  -2.87073    1.000000    
    277 O3    s    0.222686 *  0.313737 *  0.904680 *  -3.33043    1.000000    
    278 O2    s    0.665966 *  0.909444 *  0.233167 *  -2.87073    1.000000    
    279 O2    s    0.094624 *  0.759972 *  0.565758 *  -2.87073    1.000000    
    280 O2    s    0.761011 *  0.665716 *  0.401196 *  -2.87073    1.000000    
    281 O2    s    0.338591 *  0.100118 *  0.733384 *  -2.87073    1.000000    
    282 O2    s    0.904678 *  0.238042 *  0.067089 *  -2.87073    1.000000    
    283 O2    s    0.333092 *  0.239736 *  0.433817 *  -2.87073    1.000000    
    284 O2    s    0.906706 *  0.663584 *  0.102301 *  -2.87073    1.000000    
    285 O2    s    0.762197 *  0.091935 *  0.770688 *  -2.87073    1.000000    
    286 O2    s    0.659527 *  0.751560 *  0.935356 *  -2.87073    1.000000    
    287 O2    s    0.095588 *  0.333830 *  0.602097 *  -2.87073    1.000000    
    288 O2    s    0.241256 *  0.908402 *  0.268670 *  -2.87073    1.000000    
    289 O2    s    0.573881 *  0.552250 *  0.985362 *  -2.87073    1.000000    
    290 O2    s    0.443248 *  0.025700 *  0.321268 *  -2.87073    1.000000    
    291 O2    s    0.978705 *  0.414589 *  0.654102 *  -2.87073    1.000000    
    292 O2    s    0.415399 *  0.436969 *  0.487824 *  -2.87073    1.000000    
    293 O2    s    0.564166 *  0.984082 *  0.823668 *  -2.87073    1.000000    
    294 O2    s    0.021091 *  0.578865 *  0.155501 *  -2.87073    1.000000    
    295 O2    s    0.560760 *  0.586983 *  0.348354 *  -2.87073    1.000000    
    296 O2    s    0.020869 *  0.436462 *  0.014133 *  -2.87073    1.000000    
    297 O2    s    0.419566 *  0.976719 *  0.682328 *  -2.87073    1.000000    
    298 O3    s    0.457139 *  0.417498 *  0.842813 *  -3.33043    1.000000    
    299 O2    s    0.978242 *  0.558303 *  0.513057 *  -2.87073    1.000000    
    300 O2    s    0.580054 *  0.022389 *  0.179771 *  -2.87073    1.000000    
    301 O2    s    0.576692 *  0.154363 *  0.250224 *  -2.87073    1.000000    
    302 O2    s    0.846544 *  0.420303 *  0.583200 *  -2.87073    1.000000    
    303 O2    s    0.573953 *  0.419711 *  0.916509 *  -2.87073    1.000000    
    304 O2    s    0.424677 *  0.850578 *  0.753462 *  -2.87073    1.000000    
    305 O2    s    0.151635 *  0.573990 *  0.085022 *  -2.87073    1.000000    
    306 O2    s    0.419942 *  0.575340 *  0.418323 *  -2.87073    1.000000    
    307 F     s    0.450818 *  0.903788 *  0.250232 *  -1.56000    1.000000    
    308 F     s    0.098814 *  0.550150 *  0.583407 *  -1.56000    1.000000    
    309 F     s    0.415115 *  0.510628 *  0.904212 *  -1.56000    1.000000    
    310 F     s    0.553542 *  0.099481 *  0.751978 *  -1.56000    1.000000    
    311 F     s    0.900884 *  0.449799 *  0.083753 *  -1.56000    1.000000    
    312 F     s    0.547861 *  0.450499 *  0.416956 *  -1.56000    1.000000    
--------------------------------------------------------------------------------



********************************************************************************
*  General input information                                                   *
********************************************************************************

  Species output for all configurations : 

--------------------------------------------------------------------------------
  Species    Type    Atomic    Atomic    Charge       Radii (Angs)     Library
                     Number     Mass       (e)     Cova   Ionic  VDW   Symbol
--------------------------------------------------------------------------------
    Si       Core       14      28.09   4.000000   1.200  0.000  2.100          
    O1       Core        8      16.00   1.733957   0.730  0.000  1.360          
    O1       Shell       8       0.00  -3.733957   0.730  0.000  1.360          
    O2       Core        8      16.00   0.870733   0.730  0.000  1.360          
    O2       Shell       8       0.00  -2.870733   0.730  0.000  1.360          
    O3       Core        8      16.00   1.330431   0.730  0.000  1.360          
    O3       Shell       8       0.00  -3.330431   0.730  0.000  1.360          
    F        Core        9      19.00   0.560000   0.710  0.000  1.300          
    F        Shell       9       0.00  -1.560000   0.710  0.000  1.300          
    Ge       Core       32      72.61   4.000000   1.170  0.000  1.750          
--------------------------------------------------------------------------------


  Lattice summation method               =    Ewald          (3-D)
                                         =    Parry          (2-D)
                                         =    Saunders et al (1-D)
  Accuracy factor for lattice sums       =   12.000


  Time limit = Infinity

  Maximum range for interatomic potentials =        16.000000 Angstroms

  Taper potentials to zero over   1.0000 Angstroms using polynomial

  General interatomic potentials :

--------------------------------------------------------------------------------
Atom  Types   Potential         A         B         C         D     Cutoffs(Ang)
  1     2                                                            Min    Max 
--------------------------------------------------------------------------------
Si   c O1   s Buckingham    0.132E+04 0.318      10.1      0.00     0.000 16.000
Si   c O2   s Buckingham    0.132E+04 0.318      10.1      0.00     0.000 16.000
Si   c O3   s Buckingham    0.132E+04 0.318      10.1      0.00     0.000 16.000
Ge   c O1   s Buckingham    0.150E+04 0.326      16.8      0.00     0.000 16.000
Ge   c O2   s Buckingham    0.150E+04 0.326      16.8      0.00     0.000 16.000
Ge   c O3   s Buckingham    0.150E+04 0.326      16.8      0.00     0.000 16.000
O1   s O1   s Buckingham    0.228E+05 0.149      10.9      0.00     0.000 16.000
O1   s O2   s Buckingham    0.228E+05 0.149      10.9      0.00     0.000 16.000
O1   s O3   s Buckingham    0.228E+05 0.149      10.9      0.00     0.000 16.000
O2   s O2   s Buckingham    0.228E+05 0.149      10.9      0.00     0.000 16.000
O2   s O3   s Buckingham    0.228E+05 0.149      10.9      0.00     0.000 16.000
O3   s O3   s Buckingham    0.228E+05 0.149      10.9      0.00     0.000 16.000
Si   c F    s Buckingham     977.     0.282      0.00      0.00     0.000 16.000
Ge   c F    s Buckingham     681.     0.320      0.00      0.00     0.000 16.000
F    s F    s Buckingham     540.     0.262      0.00      0.00     0.000 16.000
O1   s F    s Buckingham    0.168E+04 0.268      0.00      0.00     0.000 16.000
O2   s F    s Buckingham    0.168E+04 0.268      0.00      0.00     0.000 16.000
O3   s F    s Buckingham    0.168E+04 0.268      0.00      0.00     0.000 16.000
O2   c O2   s Spring (c-s)   76.0      0.00      0.00      0.00     0.000  0.800
O3   c O3   s Spring (c-s)   128.      0.00      0.00      0.00     0.000  0.800
O1   c O1   s Spring (c-s)   180.      0.00      0.00      0.00     0.000  0.800
F    c F    s Spring (c-s)   33.5      0.00      0.00      0.00     0.000  0.800
--------------------------------------------------------------------------------

  General Three-body potentials :

  Harmonic form:

--------------------------------------------------------------------------------
Atom    Atom    Atom           Force Constants            Theta     Cutoffs  
  1       2       3     (eVrad**-2/eVrad**-3/eVrad**-4)   (deg)  1-2  1-3  2-3
--------------------------------------------------------------------------------
Si    c O1    s O1    s  1.261        0.0000    0.0000   109.470 0.00 0.00 0.00
                                                                 1.90 1.90 3.50
Si    c O1    s O2    s  1.261        0.0000    0.0000   109.470 0.00 0.00 0.00
                                                                 1.90 1.90 3.50
Si    c O2    s O2    s  1.261        0.0000    0.0000   109.470 0.00 0.00 0.00
                                                                 1.90 1.90 3.50
--------------------------------------------------------------------------------

********************************************************************************
*  Output for configuration   1                                                *
********************************************************************************


  Components of energy : 

--------------------------------------------------------------------------------
  Interatomic potentials     =        2060.97020818 eV
  Three-body potentials      =           0.47437171 eV
  Monopole - monopole (real) =       -6611.41449668 eV
  Monopole - monopole (recip)=       -3169.35600117 eV
  Monopole - monopole (total)=       -9780.77049785 eV
  Neutralising energy        =          -6.45597022 eV
--------------------------------------------------------------------------------
  Total lattice energy       =       -7725.78188817 eV
--------------------------------------------------------------------------------
  Total lattice energy       =         -745419.8528 kJ/(mole unit cells)
--------------------------------------------------------------------------------


  Number of variables =      939

  Maximum number of calculations  =          1000
  Maximum Hessian update interval =            10
  Maximum step size               =   1.000000000
  Maximum parameter tolerance     =   0.000010000
  Maximum function  tolerance     =   0.000010000
  Maximum gradient  tolerance     =   0.001000000
  Maximum gradient  component     =   0.010000000

  Symmetry not applied to optimisation

  Cell parameters to be optimised using strains

  Newton-Raphson optimiser to be used

  BFGS hessian update to be used

  Dumpfile to be written after every cycle

  Start of bulk optimisation :

  Cycle:      0 Energy:     -7725.781888  Gnorm:      0.000291  CPU:    1.251
  ** Hessian calculated **
  Cycle:      1 Energy:     -7725.784337  Gnorm:      0.001613  CPU:    2.896
  Cycle:      2 Energy:     -7725.785162  Gnorm:      0.000648  CPU:    4.270
  Cycle:      3 Energy:     -7725.785251  Gnorm:      0.001124  CPU:    5.975
  Cycle:      4 Energy:     -7725.785374  Gnorm:      0.000401  CPU:    7.351
  Cycle:      5 Energy:     -7725.785379  Gnorm:      0.000047  CPU:    8.726


  **** Optimisation achieved ****


  Final energy =   -7725.78537953 eV
  Final Gnorm  =       0.00001097

  Components of energy : 

--------------------------------------------------------------------------------
  Interatomic potentials     =        2061.04475991 eV
  Three-body potentials      =           0.47654826 eV
  Monopole - monopole (real) =       -6611.27864771 eV
  Monopole - monopole (recip)=       -3169.57163043 eV
  Monopole - monopole (total)=       -9780.85027814 eV
  Neutralising energy        =          -6.45640956 eV
--------------------------------------------------------------------------------
  Total lattice energy       =       -7725.78537953 eV
--------------------------------------------------------------------------------
  Total lattice energy       =         -745420.1897 kJ/(mole unit cells)
--------------------------------------------------------------------------------

  Final fractional coordinates of atoms :

--------------------------------------------------------------------------------
   No.  Atomic        x           y          z          Radius
        Label       (Frac)      (Frac)     (Frac)       (Angs) 
--------------------------------------------------------------------------------
     1  Si    c     0.699600    0.375700    0.033890    0.000000
     2  Si    c     0.622300    0.327900    0.367173    0.000000
     3  Si    c     0.685521    0.303211    0.701941    0.000000
     4  Si    c     0.303196    0.625147    0.536915    0.000000
     5  Si    c     0.371679    0.683706    0.866597    0.000000
     6  Si    c     0.321185    0.703103    0.201876    0.000000
     7  Si    c     0.380393    0.706680    0.302798    0.000000
     8  Si    c     0.315190    0.615902    0.968738    0.000000
     9  Si    c     0.301531    0.678345    0.637604    0.000000
    10  Si    c     0.634038    0.306176    0.802250    0.000000
    11  Si    c     0.676281    0.377130    0.468575    0.000000
    12  Si    c     0.698773    0.320519    0.134733    0.000000
    13  Si    c     0.525417    0.410243    0.967477    0.000000
    14  Si    c     0.585043    0.118002    0.301890    0.000000
    15  Si    c     0.890575    0.469969    0.635362    0.000000
    16  Si    c     0.467876    0.582293    0.470584    0.000000
    17  Si    c     0.421919    0.902273    0.804465    0.000000
    18  Si    c     0.109890    0.527543    0.136689    0.000000
    19  Si    c     0.418450    0.534425    0.368353    0.000000
    20  Si    c     0.107875    0.577877    0.034692    0.000000
    21  Si    c     0.471225    0.891010    0.703288    0.000000
    22  Si    c     0.587048    0.471021    0.864548    0.000000
    23  Si    c     0.889746    0.419664    0.533617    0.000000
    24  Si    c     0.527127    0.112048    0.199923    0.000000
    25  Ge    c     0.313784    0.414649    0.859299    0.000000
    26  Si    c     0.598561    0.904236    0.186530    0.000000
    27  Si    c     0.101356    0.699874    0.520619    0.000000
    28  Si    c     0.699865    0.606681    0.354934    0.000000
    29  Si    c     0.406263    0.103572    0.687867    0.000000
    30  Si    c     0.899436    0.297740    0.019940    0.000000
    31  Si    c     0.398937    0.302419    0.483080    0.000000
    32  Si    c     0.900563    0.598397    0.149973    0.000000
    33  Si    c     0.705372    0.103120    0.818775    0.000000
    34  Si    c     0.597233    0.693951    0.983378    0.000000
    35  Si    c     0.099818    0.399338    0.651440    0.000000
    36  Si    c     0.304910    0.908351    0.316638    0.000000
    37  Si    c     0.240974    0.329025    0.954808    0.000000
    38  Si    c     0.661048    0.916207    0.287295    0.000000
    39  Si    c     0.091320    0.748265    0.621300    0.000000
    40  Si    c     0.745706    0.656826    0.456327    0.000000
    41  Si    c     0.347340    0.104516    0.788160    0.000000
    42  Si    c     0.908057    0.248701    0.120988    0.000000
    43  Si    c     0.341974    0.256131    0.381798    0.000000
    44  Si    c     0.907777    0.655918    0.049234    0.000000
    45  Si    c     0.751052    0.091655    0.718083    0.000000
    46  Si    c     0.658063    0.750946    0.881742    0.000000
    47  Si    c     0.093064    0.346019    0.550190    0.000000
    48  Si    c     0.248922    0.910924    0.215841    0.000000
    49  Si    c     0.966073    0.116327    0.971247    0.000000
    50  Si    c     0.877364    0.851836    0.301478    0.000000
    51  Ge    c     0.152815    0.031032    0.636993    0.000000
    52  Ge    c     0.029352    0.878642    0.468312    0.000000
    53  Si    c     0.127240    0.164168    0.805755    0.000000
    54  Si    c     0.844946    0.968903    0.136093    0.000000
    55  Si    c     0.124183    0.976955    0.365228    0.000000
    56  Si    c     0.844576    0.872480    0.035514    0.000000
    57  Si    c     0.029724    0.153506    0.704059    0.000000
    58  Si    c     0.882622    0.030627    0.868845    0.000000
    59  Si    c     0.151516    0.128153    0.533584    0.000000
    60  Si    c     0.966788    0.845954    0.200558    0.000000
    61  O2    c     0.921247    0.993554    0.003181    0.000000
    62  O2    c     0.006951    0.937604    0.329943    0.000000
    63  O3    c     0.064766    0.069855    0.671995    0.000000
    64  O3    c     0.070417    0.014237    0.498893    0.000000
    65  O2    c     0.004398    0.070523    0.837230    0.000000
    66  O2    c     0.926251    0.927096    0.168032    0.000000
    67  O2    c     0.343016    0.584770    0.335659    0.000000
    68  O2    c     0.422243    0.763858    0.671667    0.000000
    69  O2    c     0.233233    0.653928    0.002355    0.000000
    70  O2    c     0.675348    0.429844    0.835285    0.000000
    71  O2    c     0.575415    0.236103    0.166949    0.000000
    72  O2    c     0.764008    0.340682    0.500744    0.000000
    73  O2    c     0.576893    0.337252    0.000387    0.000000
    74  O2    c     0.766902    0.422906    0.668056    0.000000
    75  O2    c     0.661151    0.245034    0.333837    0.000000
    76  O2    c     0.424228    0.660941    0.503766    0.000000
    77  O2    c     0.235808    0.578431    0.169513    0.000000
    78  O2    c     0.342602    0.782012    0.838577    0.000000
    79  O2    c     0.119251    0.208867    0.980047    0.000000
    80  O2    c     0.787975    0.916377    0.307177    0.000000
    81  O3    c     0.087382    0.867510    0.643266    0.000000
    82  O3    c     0.867417    0.779214    0.478521    0.000000
    83  O2    c     0.225776    0.107764    0.809575    0.000000
    84  O2    c     0.908787    0.123051    0.140997    0.000000
    85  O2    c     0.215586    0.131111    0.360856    0.000000
    86  O2    c     0.908516    0.782900    0.029793    0.000000
    87  O2    c     0.875480    0.091148    0.697871    0.000000
    88  O2    c     0.784637    0.876914    0.862860    0.000000
    89  O2    c     0.093332    0.222977    0.528698    0.000000
    90  O2    c     0.121286    0.910013    0.196228    0.000000
    91  O2    c     0.919955    0.854366    0.250140    0.000000
    92  O3    c     0.131550    0.068871    0.582864    0.000000
    93  O2    c     0.930968    0.062969    0.920522    0.000000
    94  O2    c     0.069923    0.142695    0.754770    0.000000
    95  O2    c     0.855460    0.925605    0.085807    0.000000
    96  O3    c     0.060471    0.930038    0.413218    0.000000
    97  O2    c     0.895138    0.197585    0.981991    0.000000
    98  O2    c     0.797675    0.703408    0.316845    0.000000
    99  O3    c     0.315497    0.107460    0.648093    0.000000
   100  O3    c     0.108608    0.796870    0.481433    0.000000
   101  O3    c     0.198959    0.310069    0.817705    0.000000
   102  O2    c     0.693797    0.900900    0.148184    0.000000
   103  O2    c     0.208944    0.909216    0.354965    0.000000
   104  O2    c     0.692502    0.787651    0.022857    0.000000
   105  O2    c     0.101935    0.304174    0.689994    0.000000
   106  O2    c     0.803399    0.103408    0.857363    0.000000
   107  O2    c     0.304177    0.205528    0.521736    0.000000
   108  O2    c     0.898734    0.695039    0.187978    0.000000
   109  O2    c     0.322060    0.647920    0.252461    0.000000
   110  O2    c     0.361080    0.680117    0.587636    0.000000
   111  O2    c     0.316969    0.672942    0.918610    0.000000
   112  O2    c     0.691167    0.363205    0.752167    0.000000
   113  O2    c     0.641524    0.318988    0.083984    0.000000
   114  O2    c     0.677623    0.323811    0.417679    0.000000
   115  O2    c     0.369660    0.324344    0.970741    0.000000
   116  O2    c     0.672420    0.049313    0.305192    0.000000
   117  O2    c     0.958813    0.624823    0.638354    0.000000
   118  O2    c     0.623615    0.667660    0.473435    0.000000
   119  O2    c     0.336568    0.972089    0.806546    0.000000
   120  O2    c     0.040912    0.371599    0.139460    0.000000
   121  O2    c     0.331808    0.378617    0.363981    0.000000
   122  O2    c     0.039365    0.665137    0.030801    0.000000
   123  O2    c     0.627320    0.959261    0.700024    0.000000
   124  O2    c     0.667493    0.628267    0.864663    0.000000
   125  O2    c     0.960331    0.334671    0.531121    0.000000
   126  O2    c     0.370500    0.042692    0.196863    0.000000
   127  O2    c     0.766957    0.300521    0.011681    0.000000
   128  O2    c     0.697403    0.472203    0.346059    0.000000
   129  O2    c     0.541316    0.235379    0.680334    0.000000
   130  O2    c     0.235880    0.700446    0.514532    0.000000
   131  O3    c     0.296504    0.547828    0.842280    0.000000
   132  O2    c     0.463748    0.770427    0.179256    0.000000
   133  O2    c     0.306208    0.775604    0.324732    0.000000
   134  O2    c     0.461409    0.689281    0.989152    0.000000
   135  O2    c     0.232771    0.534832    0.659249    0.000000
   136  O2    c     0.707990    0.237991    0.825498    0.000000
   137  O2    c     0.532778    0.301400    0.490367    0.000000
   138  O2    c     0.766875    0.463963    0.156895    0.000000
   139  O2    c     0.779852    0.531683    0.029260    0.000000
   140  O2    c     0.466261    0.254552    0.361861    0.000000
   141  O2    c     0.756014    0.218773    0.697862    0.000000
   142  O2    c     0.220758    0.470209    0.531495    0.000000
   143  O2    c     0.528767    0.746665    0.864039    0.000000
   144  O2    c     0.246420    0.783989    0.196489    0.000000
   145  O2    c     0.536612    0.790442    0.307186    0.000000
   146  O2    c     0.248777    0.461431    0.972331    0.000000
   147  O2    c     0.219345    0.751385    0.640773    0.000000
   148  O2    c     0.478081    0.228150    0.806603    0.000000
   149  O2    c     0.748015    0.531688    0.474843    0.000000
   150  O2    c     0.782078    0.248299    0.140054    0.000000
   151  O3    c     0.211785    0.304266    0.902265    0.000000
   152  O2    c     0.676020    0.912254    0.232888    0.000000
   153  O2    c     0.094530    0.771896    0.566575    0.000000
   154  O2    c     0.770989    0.678200    0.401944    0.000000
   155  O2    c     0.328848    0.102069    0.733313    0.000000
   156  O2    c     0.904498    0.228948    0.066633    0.000000
   157  O2    c     0.324123    0.233158    0.436120    0.000000
   158  O2    c     0.906380    0.673346    0.103540    0.000000
   159  O2    c     0.772214    0.094381    0.772506    0.000000
   160  O2    c     0.666822    0.760773    0.936557    0.000000
   161  O2    c     0.096354    0.326863    0.604573    0.000000
   162  O2    c     0.232517    0.910798    0.270201    0.000000
   163  O2    c     0.576708    0.552203    0.988564    0.000000
   164  O2    c     0.444851    0.033719    0.325116    0.000000
   165  O2    c     0.973883    0.412402    0.658756    0.000000
   166  O2    c     0.411694    0.440473    0.492454    0.000000
   167  O2    c     0.564077    0.981202    0.828048    0.000000
   168  O2    c     0.025281    0.583667    0.159374    0.000000
   169  O2    c     0.560927    0.594730    0.346341    0.000000
   170  O2    c     0.025582    0.436703    0.011270    0.000000
   171  O2    c     0.414277    0.974684    0.679921    0.000000
   172  O3    c     0.451605    0.412373    0.838975    0.000000
   173  O2    c     0.973980    0.561347    0.511099    0.000000
   174  O2    c     0.584109    0.028536    0.176787    0.000000
   175  O2    c     0.582672    0.167760    0.250588    0.000000
   176  O2    c     0.835770    0.417168    0.584358    0.000000
   177  O2    c     0.577203    0.415785    0.916447    0.000000
   178  O2    c     0.419398    0.842282    0.754539    0.000000
   179  O2    c     0.162160    0.579856    0.085744    0.000000
   180  O2    c     0.414507    0.583512    0.419526    0.000000
   181  F     c     0.451651    0.906858    0.250931    0.000000
   182  F     c     0.099008    0.551497    0.585068    0.000000
   183  F     c     0.420703    0.518146    0.907696    0.000000
   184  F     c     0.554504    0.102747    0.753010    0.000000
   185  F     c     0.900712    0.449815    0.084087    0.000000
   186  F     c     0.547656    0.453556    0.418371    0.000000
   187  O2    s     0.917461    0.993433    0.003309    0.000000
   188  O2    s     0.005091    0.932181    0.330572    0.000000
   189  O3    s     0.068811    0.075357    0.672326    0.000000
   190  O3    s     0.075436    0.014361    0.499892    0.000000
   191  O2    s     0.003153    0.075542    0.837598    0.000000
   192  O2    s     0.921627    0.922776    0.168059    0.000000
   193  O2    s     0.354598    0.592225    0.335596    0.000000
   194  O2    s     0.414832    0.768064    0.671390    0.000000
   195  O2    s     0.228990    0.642208    0.002146    0.000000
   196  O2    s     0.662351    0.421654    0.834931    0.000000
   197  O2    s     0.583205    0.232137    0.166983    0.000000
   198  O2    s     0.767776    0.352451    0.500772    0.000000
   199  O2    s     0.584101    0.348832    0.000389    0.000000
   200  O2    s     0.771253    0.415318    0.668205    0.000000
   201  O2    s     0.649404    0.240385    0.333942    0.000000
   202  O2    s     0.416336    0.649166    0.503746    0.000000
   203  O2    s     0.231478    0.585855    0.169423    0.000000
   204  O2    s     0.353825    0.783921    0.838067    0.000000
   205  O2    s     0.115345    0.211174    0.976661    0.000000
   206  O2    s     0.784256    0.909570    0.304550    0.000000
   207  O3    s     0.093151    0.868904    0.640550    0.000000
   208  O3    s     0.868450    0.775039    0.475470    0.000000
   209  O2    s     0.228951    0.113021    0.806924    0.000000
   210  O2    s     0.901978    0.119731    0.138446    0.000000
   211  O2    s     0.219078    0.127839    0.363471    0.000000
   212  O2    s     0.901638    0.779372    0.032370    0.000000
   213  O2    s     0.878456    0.097782    0.700653    0.000000
   214  O2    s     0.781255    0.879345    0.865458    0.000000
   215  O2    s     0.099514    0.226103    0.531506    0.000000
   216  O2    s     0.118047    0.903299    0.198683    0.000000
   217  O2    s     0.920532    0.853120    0.250251    0.000000
   218  O3    s     0.135584    0.071948    0.582301    0.000000
   219  O2    s     0.929553    0.065429    0.920544    0.000000
   220  O2    s     0.071458    0.146241    0.754413    0.000000
   221  O2    s     0.853022    0.924390    0.085702    0.000000
   222  O3    s     0.064787    0.930711    0.412740    0.000000
   223  O2    s     0.903008    0.199328    0.984755    0.000000
   224  O2    s     0.796135    0.709354    0.319126    0.000000
   225  O3    s     0.310727    0.100731    0.651014    0.000000
   226  O3    s     0.101367    0.794390    0.484086    0.000000
   227  O3    s     0.198564    0.300608    0.819136    0.000000
   228  O2    s     0.700237    0.908499    0.150789    0.000000
   229  O2    s     0.210063    0.916162    0.352088    0.000000
   230  O2    s     0.698301    0.786572    0.019995    0.000000
   231  O2    s     0.094292    0.298542    0.687420    0.000000
   232  O2    s     0.801719    0.095701    0.854624    0.000000
   233  O2    s     0.298266    0.207519    0.518995    0.000000
   234  O2    s     0.906164    0.701067    0.185375    0.000000
   235  O2    s     0.327888    0.659526    0.252395    0.000000
   236  O2    s     0.349266    0.674380    0.587512    0.000000
   237  O2    s     0.322023    0.667984    0.918867    0.000000
   238  O2    s     0.684756    0.351250    0.752174    0.000000
   239  O2    s     0.653258    0.324931    0.084019    0.000000
   240  O2    s     0.671850    0.329622    0.417703    0.000000
   241  O2    s     0.373061    0.333788    0.968793    0.000000
   242  O2    s     0.662341    0.042519    0.302991    0.000000
   243  O2    s     0.965533    0.621354    0.636212    0.000000
   244  O2    s     0.620041    0.657451    0.471296    0.000000
   245  O2    s     0.346728    0.978480    0.804394    0.000000
   246  O2    s     0.034150    0.374779    0.137244    0.000000
   247  O2    s     0.341776    0.381868    0.366296    0.000000
   248  O2    s     0.032626    0.655231    0.033134    0.000000
   249  O2    s     0.624155    0.966077    0.702263    0.000000
   250  O2    s     0.658443    0.625568    0.866478    0.000000
   251  O2    s     0.966911    0.344724    0.533394    0.000000
   252  O2    s     0.373919    0.036114    0.199154    0.000000
   253  O2    s     0.773938    0.308021    0.014883    0.000000
   254  O2    s     0.689935    0.471347    0.349183    0.000000
   255  O2    s     0.542117    0.228457    0.683463    0.000000
   256  O2    s     0.228808    0.692492    0.517563    0.000000
   257  O3    s     0.305589    0.552829    0.846048    0.000000
   258  O2    s     0.463285    0.777583    0.182372    0.000000
   259  O2    s     0.313691    0.782434    0.321600    0.000000
   260  O2    s     0.460980    0.682242    0.986418    0.000000
   261  O2    s     0.225992    0.535488    0.656165    0.000000
   262  O2    s     0.700091    0.230743    0.822360    0.000000
   263  O2    s     0.533574    0.309281    0.487327    0.000000
   264  O2    s     0.773940    0.463352    0.153852    0.000000
   265  O2    s     0.785373    0.528946    0.031854    0.000000
   266  O2    s     0.469222    0.262505    0.364537    0.000000
   267  O2    s     0.747877    0.213864    0.700467    0.000000
   268  O2    s     0.215484    0.473127    0.534090    0.000000
   269  O2    s     0.527495    0.740796    0.866224    0.000000
   270  O2    s     0.254538    0.789333    0.199096    0.000000
   271  O2    s     0.533737    0.795408    0.304591    0.000000
   272  O2    s     0.255194    0.464450    0.970160    0.000000
   273  O2    s     0.214237    0.743204    0.638348    0.000000
   274  O2    s     0.480405    0.222888    0.804181    0.000000
   275  O2    s     0.740046    0.528785    0.472196    0.000000
   276  O2    s     0.787151    0.255957    0.137464    0.000000
   277  O3    s     0.221615    0.314135    0.905052    0.000000
   278  O2    s     0.666269    0.911848    0.233769    0.000000
   279  O2    s     0.094877    0.762393    0.567430    0.000000
   280  O2    s     0.761051    0.668569    0.402575    0.000000
   281  O2    s     0.338476    0.102407    0.734338    0.000000
   282  O2    s     0.904351    0.238277    0.067532    0.000000
   283  O2    s     0.333717    0.242684    0.435290    0.000000
   284  O2    s     0.905927    0.663596    0.102607    0.000000
   285  O2    s     0.762876    0.094998    0.771656    0.000000
   286  O2    s     0.658411    0.752544    0.935848    0.000000
   287  O2    s     0.096397    0.336392    0.603757    0.000000
   288  O2    s     0.241872    0.910560    0.269249    0.000000
   289  O2    s     0.573464    0.552936    0.985765    0.000000
   290  O2    s     0.444511    0.028887    0.321755    0.000000
   291  O2    s     0.978990    0.417181    0.655500    0.000000
   292  O2    s     0.416397    0.440501    0.489129    0.000000
   293  O2    s     0.564514    0.986244    0.824601    0.000000
   294  O2    s     0.020499    0.579202    0.155977    0.000000
   295  O2    s     0.560963    0.589565    0.349563    0.000000
   296  O2    s     0.020529    0.436567    0.014633    0.000000
   297  O2    s     0.419533    0.979716    0.683224    0.000000
   298  O3    s     0.455672    0.418814    0.843081    0.000000
   299  O2    s     0.978857    0.561315    0.514436    0.000000
   300  O2    s     0.579560    0.023690    0.180243    0.000000
   301  O2    s     0.577180    0.156863    0.250643    0.000000
   302  O2    s     0.846991    0.422864    0.584367    0.000000
   303  O2    s     0.572625    0.420561    0.916800    0.000000
   304  O2    s     0.424996    0.853413    0.754376    0.000000
   305  O2    s     0.151150    0.574274    0.085684    0.000000
   306  O2    s     0.420357    0.578309    0.419478    0.000000
   307  F     s     0.451460    0.906508    0.250855    0.000000
   308  F     s     0.099322    0.551817    0.584976    0.000000
   309  F     s     0.413576    0.511323    0.904623    0.000000
   310  F     s     0.554733    0.103031    0.753005    0.000000
   311  F     s     0.900329    0.449750    0.083983    0.000000
   312  F     s     0.547809    0.453361    0.418333    0.000000
--------------------------------------------------------------------------------

  Final Cartesian lattice vectors (Angstroms) :

       11.980346   -0.000413   -0.011959
       -6.038096   10.394827    0.002152
       -0.254257   -0.112684   29.414336


  Final cell parameters and derivatives :

--------------------------------------------------------------------------------
       a           11.980352 Angstrom     dE/de1(xx)     0.000502 eV/strain
       b           12.021274 Angstrom     dE/de2(yy)     0.000963 eV/strain
       c           29.415651 Angstrom     dE/de3(zz)     0.000453 eV/strain
       alpha       89.930783 Degrees      dE/de4(yz)    -0.000179 eV/strain
       beta        90.552433 Degrees      dE/de5(xz)     0.000087 eV/strain
       gamma      120.153207 Degrees      dE/de6(xy)    -0.000127 eV/strain
--------------------------------------------------------------------------------

  Primitive cell volume =          3662.963730 Angs**3

  Density of cell =      1.746698 g/cm**3

  Non-primitive cell volume =          3662.963730 Angs**3


  Final internal derivatives :

--------------------------------------------------------------------------------
   No.  Atomic          a             b             c           Radius
        Label          (eV)          (eV)          (eV)        (eV/Angs)
--------------------------------------------------------------------------------
      1 Si    c       0.000000      0.000000      0.000000      0.000000
      2 Si    c       0.000039      0.000081      0.000622      0.000000
      3 Si    c      -0.000047     -0.000030     -0.000071      0.000000
      4 Si    c      -0.000049      0.000007      0.000097      0.000000
      5 Si    c       0.000266     -0.000478      0.000729      0.000000
      6 Si    c      -0.000029      0.000142     -0.000354      0.000000
      7 Si    c      -0.000010      0.000062     -0.000114      0.000000
      8 Si    c       0.000042     -0.000041      0.000027      0.000000
      9 Si    c      -0.000031      0.000016     -0.000189      0.000000
     10 Si    c       0.000035     -0.000188     -0.000538      0.000000
     11 Si    c       0.000033      0.000014     -0.000109      0.000000
     12 Si    c       0.000011      0.000064      0.000447      0.000000
     13 Si    c      -0.000351      0.000357     -0.000375      0.000000
     14 Si    c       0.000126     -0.000238     -0.000183      0.000000
     15 Si    c       0.000003     -0.000011     -0.000116      0.000000
     16 Si    c       0.000079     -0.000062     -0.000188      0.000000
     17 Si    c      -0.000031      0.000266     -0.000093      0.000000
     18 Si    c       0.000014     -0.000081     -0.000239      0.000000
     19 Si    c       0.000093     -0.000107      0.000234      0.000000
     20 Si    c       0.000006      0.000026      0.000090      0.000000
     21 Si    c       0.000012      0.000111     -0.000042      0.000000
     22 Si    c      -0.000298      0.000306      0.000516      0.000000
     23 Si    c      -0.000007     -0.000035      0.000075      0.000000
     24 Si    c      -0.000006     -0.000282     -0.000072      0.000000
     25 Ge    c      -0.000001      0.000075      0.000232      0.000000
     26 Si    c      -0.000070      0.000073     -0.000072      0.000000
     27 Si    c      -0.000014      0.000040     -0.000121      0.000000
     28 Si    c       0.000029      0.000105      0.000389      0.000000
     29 Si    c      -0.000005      0.000010     -0.000004      0.000000
     30 Si    c       0.000060     -0.000000     -0.000511      0.000000
     31 Si    c      -0.000059     -0.000006     -0.000015      0.000000
     32 Si    c      -0.000003      0.000055      0.000217      0.000000
     33 Si    c      -0.000138      0.000021     -0.000341      0.000000
     34 Si    c       0.000045     -0.000006      0.000169      0.000000
     35 Si    c      -0.000071      0.000069     -0.000089      0.000000
     36 Si    c       0.000064     -0.000025     -0.000037      0.000000
     37 Si    c       0.000061     -0.000016     -0.000041      0.000000
     38 Si    c       0.000032     -0.000018      0.000006      0.000000
     39 Si    c       0.000031     -0.000018      0.000114      0.000000
     40 Si    c       0.000003     -0.000026     -0.000352      0.000000
     41 Si    c       0.000076      0.000004     -0.000189      0.000000
     42 Si    c       0.000047     -0.000024      0.000374      0.000000
     43 Si    c      -0.000017      0.000043      0.000142      0.000000
     44 Si    c       0.000108      0.000088      0.000023      0.000000
     45 Si    c      -0.000158      0.000066      0.000211      0.000000
     46 Si    c      -0.000037      0.000008      0.000091      0.000000
     47 Si    c      -0.000122      0.000046     -0.000001      0.000000
     48 Si    c       0.000134     -0.000050     -0.000188      0.000000
     49 Si    c      -0.000104      0.000100     -0.000048      0.000000
     50 Si    c       0.000296      0.000100      0.001482      0.000000
     51 Ge    c      -0.000178      0.000179      0.002989      0.000000
     52 Ge    c       0.000076      0.000174     -0.003294      0.000000
     53 Si    c      -0.000238     -0.000287     -0.001152      0.000000
     54 Si    c       0.000020     -0.000012      0.000238      0.000000
     55 Si    c      -0.001245      0.000033      0.002180      0.000000
     56 Si    c      -0.000042     -0.000071     -0.000078      0.000000
     57 Si    c       0.000749     -0.000985     -0.001320      0.000000
     58 Si    c       0.000319     -0.000111     -0.000665      0.000000
     59 Si    c      -0.000105      0.000808     -0.003799      0.000000
     60 Si    c      -0.000149      0.000089      0.000436      0.000000
     61 O2    c       0.000051      0.000041     -0.000131      0.000000
     62 O2    c       0.000254     -0.000360      0.000702      0.000000
     63 O3    c      -0.000087      0.000659      0.001623      0.000000
     64 O3    c       0.000015     -0.000129      0.000353      0.000000
     65 O2    c      -0.000036      0.000025      0.000089      0.000000
     66 O2    c      -0.000003      0.000002     -0.000060      0.000000
     67 O2    c      -0.000068     -0.000029      0.000038      0.000000
     68 O2    c       0.000036      0.000011      0.000054      0.000000
     69 O2    c      -0.000065      0.000046      0.000154      0.000000
     70 O2    c       0.000282     -0.000042     -0.000140      0.000000
     71 O2    c      -0.000116      0.000237     -0.000405      0.000000
     72 O2    c       0.000000     -0.000003      0.000006      0.000000
     73 O2    c       0.000264     -0.000386      0.000672      0.000000
     74 O2    c      -0.000013     -0.000005      0.000022      0.000000
     75 O2    c       0.000190     -0.000028     -0.000119      0.000000
     76 O2    c      -0.000025      0.000043      0.000080      0.000000
     77 O2    c       0.000076     -0.000086      0.000019      0.000000
     78 O2    c      -0.000342      0.000350     -0.000293      0.000000
     79 O2    c      -0.000014     -0.000056      0.000165      0.000000
     80 O2    c      -0.000173      0.000139     -0.000036      0.000000
     81 O3    c       0.000132     -0.000244      0.000413      0.000000
     82 O3    c       0.000066     -0.000060     -0.000391      0.000000
     83 O2    c       0.000179     -0.000107      0.000087      0.000000
     84 O2    c      -0.000001      0.000017      0.000009      0.000000
     85 O2    c       0.000112      0.000238      0.000291      0.000000
     86 O2    c       0.000012     -0.000002     -0.000102      0.000000
     87 O2    c       0.000056      0.000016      0.000053      0.000000
     88 O2    c      -0.000071     -0.000280     -0.000119      0.000000
     89 O2    c      -0.000163      0.000140     -0.000382      0.000000
     90 O2    c      -0.000154      0.000075     -0.000105      0.000000
     91 O2    c       0.000332     -0.000281     -0.002614      0.000000
     92 O3    c      -0.000016     -0.000833      0.004037      0.000000
     93 O2    c       0.000138     -0.000019      0.001361      0.000000
     94 O2    c       0.000198      0.000034      0.001394      0.000000
     95 O2    c       0.000019     -0.000000     -0.000012      0.000000
     96 O3    c       0.000755     -0.000268     -0.000344      0.000000
     97 O2    c      -0.000012     -0.000001      0.000004      0.000000
     98 O2    c      -0.000027     -0.000078      0.000235      0.000000
     99 O3    c      -0.000217      0.000035     -0.000153      0.000000
    100 O3    c      -0.000311      0.000223      0.000234      0.000000
    101 O3    c      -0.000132      0.000642      0.000235      0.000000
    102 O2    c      -0.000021     -0.000026     -0.000034      0.000000
    103 O2    c       0.000408     -0.000362     -0.000269      0.000000
    104 O2    c      -0.000021     -0.000010     -0.000053      0.000000
    105 O2    c      -0.000050      0.000128     -0.000180      0.000000
    106 O2    c      -0.000401      0.000446     -0.000040      0.000000
    107 O2    c       0.000274     -0.000088      0.000366      0.000000
    108 O2    c      -0.000014     -0.000048     -0.000052      0.000000
    109 O2    c       0.000036     -0.000117      0.000371      0.000000
    110 O2    c      -0.000005      0.000011      0.000039      0.000000
    111 O2    c      -0.000022      0.000047     -0.000089      0.000000
    112 O2    c       0.000016      0.000018     -0.000187      0.000000
    113 O2    c      -0.000227      0.000082     -0.000298      0.000000
    114 O2    c      -0.000012      0.000018     -0.000018      0.000000
    115 O2    c      -0.000042     -0.000043      0.000066      0.000000
    116 O2    c      -0.000018      0.000034     -0.000018      0.000000
    117 O2    c       0.000015     -0.000009      0.000007      0.000000
    118 O2    c      -0.000030      0.000001     -0.000002      0.000000
    119 O2    c      -0.000030      0.000009      0.000054      0.000000
    120 O2    c      -0.000001      0.000015      0.000042      0.000000
    121 O2    c       0.000011     -0.000009      0.000012      0.000000
    122 O2    c       0.000045     -0.000022      0.000010      0.000000
    123 O2    c      -0.000022      0.000018     -0.000020      0.000000
    124 O2    c      -0.000011      0.000015      0.000004      0.000000
    125 O2    c       0.000023     -0.000014      0.000009      0.000000
    126 O2    c       0.000003      0.000031     -0.000095      0.000000
    127 O2    c      -0.000127      0.000086     -0.000239      0.000000
    128 O2    c       0.000018      0.000029     -0.000038      0.000000
    129 O2    c      -0.000027     -0.000017      0.000000      0.000000
    130 O2    c       0.000004      0.000000      0.000030      0.000000
    131 O3    c      -0.000014      0.000021      0.000060      0.000000
    132 O2    c      -0.000054     -0.000061     -0.000013      0.000000
    133 O2    c       0.000019     -0.000047      0.000014      0.000000
    134 O2    c      -0.000084      0.000053      0.000026      0.000000
    135 O2    c      -0.000004     -0.000006      0.000027      0.000000
    136 O2    c       0.000045     -0.000030      0.000118      0.000000
    137 O2    c       0.000035     -0.000048      0.000088      0.000000
    138 O2    c      -0.000032     -0.000015      0.000105      0.000000
    139 O2    c      -0.000173     -0.000083     -0.000203      0.000000
    140 O2    c      -0.000143     -0.000064     -0.000193      0.000000
    141 O2    c       0.000026     -0.000040     -0.000059      0.000000
    142 O2    c       0.000023      0.000040     -0.000079      0.000000
    143 O2    c      -0.000037      0.000058     -0.000070      0.000000
    144 O2    c       0.000048     -0.000039     -0.000009      0.000000
    145 O2    c       0.000075     -0.000073      0.000146      0.000000
    146 O2    c      -0.000031      0.000035      0.000058      0.000000
    147 O2    c       0.000024     -0.000005      0.000012      0.000000
    148 O2    c      -0.000157      0.000077      0.000136      0.000000
    149 O2    c       0.000017     -0.000059     -0.000011      0.000000
    150 O2    c       0.000061     -0.000064      0.000086      0.000000
    151 O3    c       0.000045     -0.000161      0.000219      0.000000
    152 O2    c       0.000093     -0.000059      0.000057      0.000000
    153 O2    c       0.000009      0.000007      0.000032      0.000000
    154 O2    c       0.000042      0.000014     -0.000132      0.000000
    155 O2    c      -0.000031      0.000021      0.000026      0.000000
    156 O2    c       0.000063     -0.000111     -0.000042      0.000000
    157 O2    c       0.000001     -0.000010      0.000083      0.000000
    158 O2    c      -0.000021      0.000072      0.000177      0.000000
    159 O2    c       0.000075     -0.000030     -0.000178      0.000000
    160 O2    c       0.000016      0.000043     -0.000208      0.000000
    161 O2    c      -0.000044      0.000039     -0.000000      0.000000
    162 O2    c      -0.000084      0.000037      0.000059      0.000000
    163 O2    c       0.000049     -0.000086      0.000006      0.000000
    164 O2    c       0.000020      0.000028      0.000074      0.000000
    165 O2    c       0.000025     -0.000009     -0.000008      0.000000
    166 O2    c       0.000023     -0.000054      0.000014      0.000000
    167 O2    c       0.000104     -0.000018      0.000166      0.000000
    168 O2    c      -0.000081      0.000074      0.000121      0.000000
    169 O2    c       0.000059     -0.000004     -0.000031      0.000000
    170 O2    c       0.000002     -0.000056     -0.000096      0.000000
    171 O2    c       0.000007      0.000001     -0.000019      0.000000
    172 O3    c       0.000163     -0.000137     -0.000341      0.000000
    173 O2    c      -0.000005     -0.000002     -0.000008      0.000000
    174 O2    c      -0.000028      0.000023      0.000069      0.000000
    175 O2    c       0.000035      0.000110      0.000226      0.000000
    176 O2    c       0.000019     -0.000001     -0.000026      0.000000
    177 O2    c       0.000079     -0.000063     -0.000091      0.000000
    178 O2    c       0.000028     -0.000059     -0.000332      0.000000
    179 O2    c       0.000011      0.000005     -0.000004      0.000000
    180 O2    c       0.000022     -0.000020      0.000060      0.000000
    181 F     c      -0.000005     -0.000007     -0.000150      0.000000
    182 F     c      -0.000006      0.000006     -0.000038      0.000000
    183 F     c      -0.000007     -0.000003     -0.000048      0.000000
    184 F     c      -0.000039      0.000033      0.000249      0.000000
    185 F     c       0.000031      0.000026      0.000039      0.000000
    186 F     c       0.000030     -0.000019     -0.000057      0.000000
    187 O2    s      -0.000003      0.000006     -0.000062      0.000000
    188 O2    s       0.000108      0.000165      0.000713      0.000000
    189 O3    s      -0.000056     -0.000118     -0.000704      0.000000
    190 O3    s       0.000127     -0.000583     -0.001617      0.000000
    191 O2    s       0.000185     -0.000122     -0.000599      0.000000
    192 O2    s       0.000071     -0.000067      0.000204      0.000000
    193 O2    s       0.000073     -0.000007      0.000083      0.000000
    194 O2    s      -0.000007     -0.000008      0.000047      0.000000
    195 O2    s      -0.000016      0.000019     -0.000063      0.000000
    196 O2    s      -0.000170      0.000022      0.000185      0.000000
    197 O2    s       0.000066     -0.000065      0.000159      0.000000
    198 O2    s       0.000041      0.000006      0.000011      0.000000
    199 O2    s       0.000036      0.000087     -0.000157      0.000000
    200 O2    s       0.000033      0.000009     -0.000026      0.000000
    201 O2    s      -0.000098     -0.000006     -0.000179      0.000000
    202 O2    s       0.000017     -0.000036     -0.000045      0.000000
    203 O2    s      -0.000052     -0.000013      0.000049      0.000000
    204 O2    s       0.000175     -0.000140      0.000007      0.000000
    205 O2    s      -0.000007      0.000010     -0.000024      0.000000
    206 O2    s       0.000061      0.000205      0.000428      0.000000
    207 O3    s      -0.000165      0.000086     -0.000354      0.000000
    208 O3    s       0.000172      0.000132      0.000358      0.000000
    209 O2    s      -0.000055      0.000002      0.000033      0.000000
    210 O2    s      -0.000001      0.000016     -0.000005      0.000000
    211 O2    s      -0.000350     -0.000077      0.000025      0.000000
    212 O2    s       0.000027      0.000017      0.000105      0.000000
    213 O2    s       0.000246     -0.000192     -0.000072      0.000000
    214 O2    s       0.000092     -0.000228     -0.000239      0.000000
    215 O2    s      -0.000291      0.000451      0.000153      0.000000
    216 O2    s      -0.000051     -0.000023     -0.000048      0.000000
    217 O2    s      -0.000043      0.000052      0.000744      0.000000
    218 O3    s      -0.000266      0.000180     -0.000478      0.000000
    219 O2    s       0.000144     -0.000033     -0.000048      0.000000
    220 O2    s      -0.000256     -0.000020     -0.001141      0.000000
    221 O2    s      -0.000009     -0.000021      0.000125      0.000000
    222 O3    s      -0.000284      0.000159      0.000160      0.000000
    223 O2    s       0.000040     -0.000002     -0.000023      0.000000
    224 O2    s       0.000032     -0.000155     -0.000140      0.000000
    225 O3    s       0.000142     -0.000025      0.000198      0.000000
    226 O3    s      -0.000078      0.000156     -0.000549      0.000000
    227 O3    s       0.000014     -0.000185     -0.000130      0.000000
    228 O2    s       0.000006      0.000037     -0.000156      0.000000
    229 O2    s      -0.000177      0.000072      0.000256      0.000000
    230 O2    s      -0.000018      0.000010      0.000117      0.000000
    231 O2    s       0.000085     -0.000163      0.000159      0.000000
    232 O2    s      -0.000148      0.000206     -0.000139      0.000000
    233 O2    s       0.000181      0.000261     -0.000955      0.000000
    234 O2    s       0.000075      0.000015      0.000048      0.000000
    235 O2    s      -0.000033      0.000078     -0.000076      0.000000
    236 O2    s       0.000010     -0.000019     -0.000012      0.000000
    237 O2    s      -0.000043     -0.000015      0.000021      0.000000
    238 O2    s      -0.000010     -0.000159      0.000233      0.000000
    239 O2    s       0.000267     -0.000085     -0.000251      0.000000
    240 O2    s      -0.000030     -0.000018     -0.000064      0.000000
    241 O2    s      -0.000076      0.000056     -0.000083      0.000000
    242 O2    s       0.000049      0.000016      0.000039      0.000000
    243 O2    s      -0.000016      0.000029     -0.000049      0.000000
    244 O2    s      -0.000023      0.000063      0.000119      0.000000
    245 O2    s       0.000075     -0.000061     -0.000193      0.000000
    246 O2    s       0.000016     -0.000034     -0.000003      0.000000
    247 O2    s      -0.000030     -0.000002      0.000004      0.000000
    248 O2    s       0.000011      0.000014     -0.000251      0.000000
    249 O2    s       0.000043     -0.000112     -0.000069      0.000000
    250 O2    s       0.000036      0.000003     -0.000032      0.000000
    251 O2    s      -0.000030      0.000023      0.000023      0.000000
    252 O2    s      -0.000051      0.000045      0.000123      0.000000
    253 O2    s      -0.000102      0.000038      0.000400      0.000000
    254 O2    s      -0.000031     -0.000010     -0.000086      0.000000
    255 O2    s       0.000013      0.000084     -0.000100      0.000000
    256 O2    s      -0.000036      0.000027     -0.000097      0.000000
    257 O3    s      -0.000094     -0.000007     -0.000200      0.000000
    258 O2    s       0.000012     -0.000022     -0.000036      0.000000
    259 O2    s      -0.000044      0.000017      0.000094      0.000000
    260 O2    s       0.000005     -0.000009      0.000095      0.000000
    261 O2    s       0.000013     -0.000058      0.000008      0.000000
    262 O2    s      -0.000050      0.000070     -0.000113      0.000000
    263 O2    s       0.000020      0.000021     -0.000060      0.000000
    264 O2    s       0.000034      0.000054     -0.000126      0.000000
    265 O2    s       0.000067     -0.000072     -0.000088      0.000000
    266 O2    s       0.000006      0.000157      0.000390      0.000000
    267 O2    s       0.000039      0.000061      0.000060      0.000000
    268 O2    s       0.000024     -0.000007      0.000042      0.000000
    269 O2    s      -0.000018     -0.000058      0.000054      0.000000
    270 O2    s      -0.000081     -0.000035     -0.000034      0.000000
    271 O2    s      -0.000161      0.000094     -0.000077      0.000000
    272 O2    s       0.000012     -0.000011     -0.000036      0.000000
    273 O2    s      -0.000027     -0.000009     -0.000011      0.000000
    274 O2    s       0.000207     -0.000104     -0.000148      0.000000
    275 O2    s       0.000024      0.000035      0.000151      0.000000
    276 O2    s      -0.000032      0.000025     -0.000091      0.000000
    277 O3    s      -0.000112      0.000183     -0.000203      0.000000
    278 O2    s      -0.000045      0.000081      0.000088      0.000000
    279 O2    s      -0.000036     -0.000022     -0.000034      0.000000
    280 O2    s      -0.000145     -0.000074      0.000177      0.000000
    281 O2    s       0.000076     -0.000070      0.000062      0.000000
    282 O2    s      -0.000051      0.000073      0.000143      0.000000
    283 O2    s      -0.000013      0.000046     -0.000132      0.000000
    284 O2    s      -0.000005     -0.000078      0.000200      0.000000
    285 O2    s      -0.000097      0.000067      0.000111      0.000000
    286 O2    s       0.000028     -0.000034     -0.000044      0.000000
    287 O2    s       0.000082     -0.000035      0.000087      0.000000
    288 O2    s       0.000073     -0.000042      0.000227      0.000000
    289 O2    s      -0.000042      0.000053      0.000059      0.000000
    290 O2    s       0.000035      0.000016     -0.000076      0.000000
    291 O2    s       0.000017     -0.000020     -0.000025      0.000000
    292 O2    s      -0.000055      0.000073     -0.000073      0.000000
    293 O2    s      -0.000115      0.000009     -0.000233      0.000000
    294 O2    s      -0.000023     -0.000011     -0.000076      0.000000
    295 O2    s      -0.000092      0.000006      0.000055      0.000000
    296 O2    s       0.000026      0.000033     -0.000022      0.000000
    297 O2    s      -0.000009     -0.000049      0.000097      0.000000
    298 O3    s       0.000002      0.000091      0.000074      0.000000
    299 O2    s       0.000024      0.000029      0.000039      0.000000
    300 O2    s       0.000045      0.000045     -0.000217      0.000000
    301 O2    s       0.000009     -0.000026      0.000094      0.000000
    302 O2    s      -0.000001      0.000008      0.000030      0.000000
    303 O2    s       0.000090     -0.000016     -0.000135      0.000000
    304 O2    s      -0.000026      0.000087      0.000288      0.000000
    305 O2    s       0.000018     -0.000003     -0.000019      0.000000
    306 O2    s      -0.000007      0.000003     -0.000036      0.000000
    307 F     s       0.000006     -0.000008      0.000304      0.000000
    308 F     s       0.000003     -0.000003      0.000083      0.000000
    309 F     s      -0.000001      0.000029      0.000155      0.000000
    310 F     s       0.000067     -0.000004     -0.000402      0.000000
    311 F     s      -0.000093     -0.000049      0.000034      0.000000
    312 F     s      -0.000056      0.000013      0.000062      0.000000
--------------------------------------------------------------------------------
  Maximum abs         0.001245      0.000985      0.004037      0.000000
--------------------------------------------------------------------------------


  Time to end of optimisation =      10.1035 seconds


  Peak dynamic memory used =      19.13 MB 


  Timing analysis for GULP :

--------------------------------------------------------------------------------
  Task / Subroutine                                          Time (Seconds)
--------------------------------------------------------------------------------
  Calculation of reciprocal space energy and derivatives          0.3361
  Calculation of real space energy and derivatives                8.3783
  Calculation of three-body energy and derivatives                0.9354
  Calculation of matrix inversion                                 0.2604
--------------------------------------------------------------------------------
  Total CPU time                                                 10.1035
--------------------------------------------------------------------------------


  Dump file written as out.res                                                 
  CIF file written as out.cif                                                 


  Job Finished at 10:38.01 26th November   2016                               

