# vtk DataFile Version 1.0
Cube
ASCII

DATASET POLYDATA
POINTS 0 float
14.629660 9.917309 2.872465
15.946331 9.652843 2.747295
16.228674 8.726067 3.695456
15.128358 8.399884 4.422457
14.128842 9.147733 3.902391
15.461528 8.060523 4.944070
15.905467 10.651049 1.686597
15.928113 11.765137 2.138693
15.813620 11.584379 1.780645
16.291109 10.990256 0.683071
14.937097 9.516563 3.770083
15.868010 8.945130 3.492696
16.984261 8.604179 3.494016
16.986097 8.813390 3.657131
15.014917 9.077086 3.657932
15.070349 8.912828 2.931763
16.540440 7.556642 5.319575
14.691748 7.940017 4.166673
15.186692 7.843466 6.307197
14.654748 7.989158 5.160564
14.061899 7.132596 6.611625
14.422621 7.150694 6.252180
15.279548 7.668558 2.426878
15.707399 8.886632 2.189693
15.244096 9.855548 2.161811
0.257172 21.278748 12.136279
0.422768 19.995824 11.754288
-0.466369 19.791276 10.751673
-1.195468 20.907634 10.491328
-0.737757 21.837193 11.360350
0.249932 20.457351 11.988756
-0.079124 18.523382 11.652062
-0.102142 19.488836 11.656566
0.608112 19.438659 11.494223
0.036597 19.569539 11.493405
-1.243878 21.209536 10.658273
-0.158034 20.790773 11.254127
-1.011303 20.268263 11.687625
0.730851 21.186487 12.092078
0.873237 21.831981 12.986378
0.354788 22.331425 10.471968
-0.968508 20.600576 12.229795
-0.655265 20.714587 11.295409
-1.218055 20.209786 12.512138
-1.982397 19.496889 12.550105
-0.153009 20.185691 12.475854
-1.223850 20.933697 11.409585
1.036334 23.199206 10.321046
0.704203 23.153284 9.892595
1.408088 22.418898 10.982769
30.257172 21.278748 12.136279
30.422768 19.995824 11.754288
29.533631 19.791276 10.751673
28.804532 20.907634 10.491328
29.262243 21.837193 11.360350
30.249932 20.457351 11.988756
29.920876 18.523382 11.652062
29.897858 19.488836 11.656566
30.608112 19.438659 11.494223
30.036597 19.569539 11.493405
28.756122 21.209536 10.658273
29.841966 20.790773 11.254127
28.988697 20.268263 11.687625
30.730851 21.186487 12.092078
30.873237 21.831981 12.986378
30.354788 22.331425 10.471968
29.031492 20.600576 12.229795
29.344735 20.714587 11.295409
28.781945 20.209786 12.512138
28.017603 19.496889 12.550105
29.846991 20.185691 12.475854
28.776150 20.933697 11.409585
31.036334 23.199206 10.321046
30.704203 23.153284 9.892595
31.408088 22.418898 10.982769
10.683054 9.592973 9.170316
10.942410 9.940624 7.893169
10.723019 8.825075 7.154888
10.337351 7.777817 7.929570
10.312509 8.264037 9.191217
10.266096 8.512471 8.458506
10.123724 10.375456 6.526232
9.768952 10.479629 5.260375
9.152286 9.813177 6.730589
9.397776 10.852700 5.569394
11.732418 7.720995 7.743083
11.560657 7.614738 8.791572
10.658888 7.414938 9.446589
11.997796 7.845311 9.462761
10.731814 8.027532 7.661805
11.305436 8.934694 10.185669
11.141008 8.557221 7.626086
10.273428 8.787512 9.445174
9.469966 8.519260 7.158924
9.624201 9.606685 7.377809
9.227799 9.188225 7.971685
10.176623 7.777986 6.486427
10.471972 8.161081 9.987114
11.983722 10.022453 10.217864
10.772935 8.437107 9.455676
15.908664 1.360040 26.329845
15.850206 1.782832 25.050367
14.655464 2.410537 24.923017
13.952027 2.392237 26.085112
14.741685 1.734197 26.963862
13.441415 1.828214 24.380456
16.582434 2.823279 25.860225
17.658482 3.064095 25.933273
15.977873 3.255583 26.808414
16.614520 1.961909 26.454804
15.628305 2.765258 24.614066
15.063185 1.898728 25.061322
14.485833 1.506564 26.103585
14.968718 0.962491 24.247232
16.727781 0.187954 27.770736
15.410491 3.025604 26.841119
13.266812 1.201571 23.773864
13.853344 1.238231 23.642670
13.199655 0.218030 24.712066
13.872277 -0.627093 24.558109
14.078407 0.795643 24.680065
11.987118 0.054721 24.635879
15.539906 3.414377 27.595535
14.535864 2.897594 26.296268
14.684614 3.101304 26.824853
15.908664 31.360040 26.329845
15.850206 31.782832 25.050367
14.655464 32.410537 24.923017
13.952027 32.392237 26.085112
14.741685 31.734197 26.963862
13.441415 31.828214 24.380456
16.582434 32.823279 25.860225
17.658482 33.064095 25.933273
15.977873 33.255583 26.808414
16.614520 31.961909 26.454804
15.628305 32.765258 24.614066
15.063185 31.898728 25.061322
14.485833 31.506564 26.103585
14.968718 30.962491 24.247232
16.727781 30.187954 27.770736
15.410491 33.025604 26.841119
13.266812 31.201571 23.773864
13.853344 31.238231 23.642670
13.199655 30.218030 24.712066
13.872277 29.372907 24.558109
14.078407 30.795643 24.680065
11.987118 30.054721 24.635879
15.539906 33.414377 27.595535
14.535864 32.897594 26.296268
14.684614 33.101304 26.824853
11.151127 11.937067 -0.138016
12.448847 12.272288 -0.288957
12.984179 12.246648 0.956194
12.060088 11.910125 1.893440
10.913606 11.715890 1.203057
13.224454 13.092161 2.374662
13.692749 11.868811 -0.963298
12.828048 11.348172 -1.402820
14.258089 11.060905 -1.148503
13.167580 12.290166 -0.078195
12.526233 11.838254 0.886868
12.063007 12.796105 0.583273
11.000634 12.369690 0.760764
11.586034 13.767914 0.607394
8.018365 11.667845 -2.755310
12.285052 11.189595 1.043752
12.610680 13.617756 1.452053
12.186804 12.487768 2.217428
12.145697 12.068354 3.102496
11.023978 12.035893 2.778421
12.037010 11.131489 2.718798
12.735712 12.958461 3.604035
12.221807 12.118825 0.924158
11.793117 11.595526 2.308138
11.962656 10.916731 2.078241
11.151127 11.937067 29.861984
12.448847 12.272288 29.711043
12.984179 12.246648 30.956194
12.060088 11.910125 31.893440
10.913606 11.715890 31.203057
13.224454 13.092161 32.374662
13.692749 11.868811 29.036702
12.828048 11.348172 28.597180
14.258089 11.060905 28.851497
13.167580 12.290166 29.921805
12.526233 11.838254 30.886868
12.063007 12.796105 30.583273
11.000634 12.369690 30.760764
11.586034 13.767914 30.607394
8.018365 11.667845 27.244690
12.285052 11.189595 31.043752
12.610680 13.617756 31.452053
12.186804 12.487768 32.217428
12.145697 12.068354 33.102496
11.023978 12.035893 32.778421
12.037010 11.131489 32.718798
12.735712 12.958461 33.604035
12.221807 12.118825 30.924158
11.793117 11.595526 32.308138
11.962656 10.916731 32.078241
14.632100 -0.649408 18.740997
13.567814 -0.591681 19.567555
13.842324 0.395818 20.454758
15.054193 0.961979 20.217148
15.544627 0.304763 19.141825
13.225137 -0.752815 19.894072
12.116653 -0.854289 20.074974
11.334361 -0.090211 20.053209
12.070914 -1.356588 20.776864
13.294453 -1.479345 19.814626
13.539586 -0.613215 18.714929
13.778820 0.132712 19.619288
14.711802 0.539443 19.782532
12.990216 -0.086308 19.971552
14.711157 -0.242328 18.211760
14.257612 -0.175848 19.716341
12.113622 -0.555083 20.229907
13.496764 0.489527 19.913738
13.898461 0.524063 19.309386
13.860061 1.592938 18.849393
14.655372 -0.010758 18.836873
14.430100 -0.197995 18.547450
13.592520 -0.984865 19.145633
14.056901 0.741949 19.307550
13.148021 -0.703789 20.369225
14.632100 29.350592 18.740997
13.567814 29.408319 19.567555
13.842324 30.395818 20.454758
15.054193 30.961979 20.217148
15.544627 30.304763 19.141825
13.225137 29.247185 19.894072
12.116653 29.145711 20.074974
11.334361 29.909789 20.053209
12.070914 28.643412 20.776864
13.294453 28.520655 19.814626
13.539586 29.386785 18.714929
13.778820 30.132712 19.619288
14.711802 30.539443 19.782532
12.990216 29.913692 19.971552
14.711157 29.757672 18.211760
14.257612 29.824152 19.716341
12.113622 29.444917 20.229907
13.496764 30.489527 19.913738
13.898461 30.524063 19.309386
13.860061 31.592938 18.849393
14.655372 29.989242 18.836873
14.430100 29.802005 18.547450
13.592520 29.015135 19.145633
14.056901 30.741949 19.307550
13.148021 29.296211 20.369225
11.204208 21.753908 24.832848
26.210236 12.466699 1.155798
26.210236 12.466699 31.155798
6.334646 14.470836 9.064773
1.335654 14.016886 12.412336
31.335654 14.016886 12.412336
22.233131 16.481642 5.625386
25.179448 24.976174 9.031324
LINES 260 780
2 0 1
2 1 6
2 1 2
2 2 3
2 2 5
2 3 4
2 4 0
2 5 18
2 5 17
2 5 16
2 6 7
2 6 8
2 6 9
2 18 19
2 18 20
2 18 21
2 3 11
2 11 10
2 11 12
2 11 13
2 4 15
2 15 24
2 15 23
2 15 22
2 4 0
2 0 14
2 25 26
2 26 31
2 26 27
2 27 28
2 27 30
2 28 29
2 29 25
2 30 43
2 30 42
2 30 41
2 31 32
2 31 33
2 31 34
2 43 44
2 43 45
2 43 46
2 28 36
2 36 35
2 36 37
2 36 38
2 29 40
2 40 49
2 40 48
2 40 47
2 29 25
2 25 39
2 50 51
2 51 56
2 51 52
2 52 53
2 52 55
2 53 54
2 54 50
2 55 68
2 55 67
2 55 66
2 56 57
2 56 58
2 56 59
2 68 69
2 68 70
2 68 71
2 53 61
2 61 60
2 61 62
2 61 63
2 54 65
2 65 74
2 65 73
2 65 72
2 54 50
2 50 64
2 75 76
2 76 81
2 76 77
2 77 78
2 77 80
2 78 79
2 79 75
2 80 93
2 80 92
2 80 91
2 81 82
2 81 83
2 81 84
2 93 94
2 93 95
2 93 96
2 78 86
2 86 85
2 86 87
2 86 88
2 79 90
2 90 99
2 90 98
2 90 97
2 79 75
2 75 89
2 100 101
2 101 106
2 101 102
2 102 103
2 102 105
2 103 104
2 104 100
2 105 118
2 105 117
2 105 116
2 106 107
2 106 108
2 106 109
2 118 119
2 118 120
2 118 121
2 103 111
2 111 110
2 111 112
2 111 113
2 104 115
2 115 124
2 115 123
2 115 122
2 104 100
2 100 114
2 125 126
2 126 131
2 126 127
2 127 128
2 127 130
2 128 129
2 129 125
2 130 143
2 130 142
2 130 141
2 131 132
2 131 133
2 131 134
2 143 144
2 143 145
2 143 146
2 128 136
2 136 135
2 136 137
2 136 138
2 129 140
2 140 149
2 140 148
2 140 147
2 129 125
2 125 139
2 150 151
2 151 156
2 151 152
2 152 153
2 152 155
2 153 154
2 154 150
2 155 168
2 155 167
2 155 166
2 156 157
2 156 158
2 156 159
2 168 169
2 168 170
2 168 171
2 153 161
2 161 160
2 161 162
2 161 163
2 154 165
2 165 174
2 165 173
2 165 172
2 154 150
2 150 164
2 175 176
2 176 181
2 176 177
2 177 178
2 177 180
2 178 179
2 179 175
2 180 193
2 180 192
2 180 191
2 181 182
2 181 183
2 181 184
2 193 194
2 193 195
2 193 196
2 178 186
2 186 185
2 186 187
2 186 188
2 179 190
2 190 199
2 190 198
2 190 197
2 179 175
2 175 189
2 200 201
2 201 206
2 201 202
2 202 203
2 202 205
2 203 204
2 204 200
2 205 218
2 205 217
2 205 216
2 206 207
2 206 208
2 206 209
2 218 219
2 218 220
2 218 221
2 203 211
2 211 210
2 211 212
2 211 213
2 204 215
2 215 224
2 215 223
2 215 222
2 204 200
2 200 214
2 225 226
2 226 231
2 226 227
2 227 228
2 227 230
2 228 229
2 229 225
2 230 243
2 230 242
2 230 241
2 231 232
2 231 233
2 231 234
2 243 244
2 243 245
2 243 246
2 228 236
2 236 235
2 236 237
2 236 238
2 229 240
2 240 249
2 240 248
2 240 247
2 229 225
2 225 239
POINT_DATA 0
SCALARS my_scalars float
LOOKUP_TABLE default
1.7
1.55
1.7
1.55
1.7
1.7
1.7
1.09
1.09
1.09
1.09
1.7
1.09
1.09
1.09
1.7
1.09
1.09
1.7
1.09
1.09
1.09
1.09
1.09
1.09
1.7
1.55
1.7
1.55
1.7
1.7
1.7
1.09
1.09
1.09
1.09
1.7
1.09
1.09
1.09
1.7
1.09
1.09
1.7
1.09
1.09
1.09
1.09
1.09
1.09
1.7
1.55
1.7
1.55
1.7
1.7
1.7
1.09
1.09
1.09
1.09
1.7
1.09
1.09
1.09
1.7
1.09
1.09
1.7
1.09
1.09
1.09
1.09
1.09
1.09
1.7
1.55
1.7
1.55
1.7
1.7
1.7
1.09
1.09
1.09
1.09
1.7
1.09
1.09
1.09
1.7
1.09
1.09
1.7
1.09
1.09
1.09
1.09
1.09
1.09
1.7
1.55
1.7
1.55
1.7
1.7
1.7
1.09
1.09
1.09
1.09
1.7
1.09
1.09
1.09
1.7
1.09
1.09
1.7
1.09
1.09
1.09
1.09
1.09
1.09
1.7
1.55
1.7
1.55
1.7
1.7
1.7
1.09
1.09
1.09
1.09
1.7
1.09
1.09
1.09
1.7
1.09
1.09
1.7
1.09
1.09
1.09
1.09
1.09
1.09
1.7
1.55
1.7
1.55
1.7
1.7
1.7
1.09
1.09
1.09
1.09
1.7
1.09
1.09
1.09
1.7
1.09
1.09
1.7
1.09
1.09
1.09
1.09
1.09
1.09
1.7
1.55
1.7
1.55
1.7
1.7
1.7
1.09
1.09
1.09
1.09
1.7
1.09
1.09
1.09
1.7
1.09
1.09
1.7
1.09
1.09
1.09
1.09
1.09
1.09
1.7
1.55
1.7
1.55
1.7
1.7
1.7
1.09
1.09
1.09
1.09
1.7
1.09
1.09
1.09
1.7
1.09
1.09
1.7
1.09
1.09
1.09
1.09
1.09
1.09
1.7
1.55
1.7
1.55
1.7
1.7
1.7
1.09
1.09
1.09
1.09
1.7
1.09
1.09
1.09
1.7
1.09
1.09
1.7
1.09
1.09
1.09
1.09
1.09
1.09
1.47
1.47
1.47
1.47
1.47
1.47
1.47
1.47
VECTORS vectors float
0.3125 0 0
0 0 0
0.3125 0 0
0 0 0
0.3125 0 0
0.3125 0 0
0.3125 0 0
0.25 0 0
0.25 0 0
0.25 0 0
0.25 0 0
0.3125 0 0
0.25 0 0
0.25 0 0
0.25 0 0
0.3125 0 0
0.25 0 0
0.25 0 0
0.3125 0 0
0.25 0 0
0.25 0 0
0.25 0 0
0.25 0 0
0.25 0 0
0.25 0 0
0.3125 0 0
0 0 0
0.3125 0 0
0 0 0
0.3125 0 0
0.3125 0 0
0.3125 0 0
0.25 0 0
0.25 0 0
0.25 0 0
0.25 0 0
0.3125 0 0
0.25 0 0
0.25 0 0
0.25 0 0
0.3125 0 0
0.25 0 0
0.25 0 0
0.3125 0 0
0.25 0 0
0.25 0 0
0.25 0 0
0.25 0 0
0.25 0 0
0.25 0 0
0.3125 0 0
0 0 0
0.3125 0 0
0 0 0
0.3125 0 0
0.3125 0 0
0.3125 0 0
0.25 0 0
0.25 0 0
0.25 0 0
0.25 0 0
0.3125 0 0
0.25 0 0
0.25 0 0
0.25 0 0
0.3125 0 0
0.25 0 0
0.25 0 0
0.3125 0 0
0.25 0 0
0.25 0 0
0.25 0 0
0.25 0 0
0.25 0 0
0.25 0 0
0.3125 0 0
0 0 0
0.3125 0 0
0 0 0
0.3125 0 0
0.3125 0 0
0.3125 0 0
0.25 0 0
0.25 0 0
0.25 0 0
0.25 0 0
0.3125 0 0
0.25 0 0
0.25 0 0
0.25 0 0
0.3125 0 0
0.25 0 0
0.25 0 0
0.3125 0 0
0.25 0 0
0.25 0 0
0.25 0 0
0.25 0 0
0.25 0 0
0.25 0 0
0.3125 0 0
0 0 0
0.3125 0 0
0 0 0
0.3125 0 0
0.3125 0 0
0.3125 0 0
0.25 0 0
0.25 0 0
0.25 0 0
0.25 0 0
0.3125 0 0
0.25 0 0
0.25 0 0
0.25 0 0
0.3125 0 0
0.25 0 0
0.25 0 0
0.3125 0 0
0.25 0 0
0.25 0 0
0.25 0 0
0.25 0 0
0.25 0 0
0.25 0 0
0.3125 0 0
0 0 0
0.3125 0 0
0 0 0
0.3125 0 0
0.3125 0 0
0.3125 0 0
0.25 0 0
0.25 0 0
0.25 0 0
0.25 0 0
0.3125 0 0
0.25 0 0
0.25 0 0
0.25 0 0
0.3125 0 0
0.25 0 0
0.25 0 0
0.3125 0 0
0.25 0 0
0.25 0 0
0.25 0 0
0.25 0 0
0.25 0 0
0.25 0 0
0.3125 0 0
0 0 0
0.3125 0 0
0 0 0
0.3125 0 0
0.3125 0 0
0.3125 0 0
0.25 0 0
0.25 0 0
0.25 0 0
0.25 0 0
0.3125 0 0
0.25 0 0
0.25 0 0
0.25 0 0
0.3125 0 0
0.25 0 0
0.25 0 0
0.3125 0 0
0.25 0 0
0.25 0 0
0.25 0 0
0.25 0 0
0.25 0 0
0.25 0 0
0.3125 0 0
0 0 0
0.3125 0 0
0 0 0
0.3125 0 0
0.3125 0 0
0.3125 0 0
0.25 0 0
0.25 0 0
0.25 0 0
0.25 0 0
0.3125 0 0
0.25 0 0
0.25 0 0
0.25 0 0
0.3125 0 0
0.25 0 0
0.25 0 0
0.3125 0 0
0.25 0 0
0.25 0 0
0.25 0 0
0.25 0 0
0.25 0 0
0.25 0 0
0.3125 0 0
0 0 0
0.3125 0 0
0 0 0
0.3125 0 0
0.3125 0 0
0.3125 0 0
0.25 0 0
0.25 0 0
0.25 0 0
0.25 0 0
0.3125 0 0
0.25 0 0
0.25 0 0
0.25 0 0
0.3125 0 0
0.25 0 0
0.25 0 0
0.3125 0 0
0.25 0 0
0.25 0 0
0.25 0 0
0.25 0 0
0.25 0 0
0.25 0 0
0.3125 0 0
0 0 0
0.3125 0 0
0 0 0
0.3125 0 0
0.3125 0 0
0.3125 0 0
0.25 0 0
0.25 0 0
0.25 0 0
0.25 0 0
0.3125 0 0
0.25 0 0
0.25 0 0
0.25 0 0
0.3125 0 0
0.25 0 0
0.25 0 0
0.3125 0 0
0.25 0 0
0.25 0 0
0.25 0 0
0.25 0 0
0.25 0 0
0.25 0 0
0.4375 0 0
0.4375 0 0
0.4375 0 0
0.4375 0 0
0.4375 0 0
0.4375 0 0
0.4375 0 0
0.4375 0 0
