********************************************************************************
*                       GENERAL UTILITY LATTICE PROGRAM                        *
*                                 Julian Gale                                  *
*                      Nanochemistry Research Institute                        *
*                           Department of Chemistry                            *
*                    Curtin University, Western Australia                      *
********************************************************************************
* Version = 4.2.0 * Last modified =  20th January 2014                         *
********************************************************************************
*  optimise     - perform optimisation run                                     *
*  conp         - constant pressure calculation                                *
*  qok          - running with non charge neutral cell is OK                   *
*  rfo          - optimisation step to be determined by RFO method             *
********************************************************************************

  Job Started  at 08:18.33  6th December   2016                               

  Number of CPUs =     1


  Total number of configurations input =   1

********************************************************************************
*  Input for Configuration =   1                                               *
********************************************************************************

  Formula = Ge4Si56O120F6                                               

  Number of irreducible atoms/shells =     312


  Total number atoms/shells =     312

  Dimensionality = 3               :  Bulk   


  Charge on solid   =  -6.000000 =>neutralising background added


  Cartesian lattice vectors (Angstroms) :

       11.931567    0.000000    0.000000
       -5.967888   10.330774    0.000000
        0.000900    0.002517   29.671932

  Cell parameters (Angstroms/Degrees):

  a =      11.9316    alpha =  89.9967
  b =      11.9307    beta  =  89.9983
  c =      29.6719    gamma = 120.0142

  Initial cell volume =        3657.431126 Angs**3

  Temperature of configuration =  0.000     K 

  Pressure of configuration =         0.000 GPa 

  Fractional coordinates of asymmetric unit :

--------------------------------------------------------------------------------
   No.  Atomic       x           y          z         Charge      Occupancy
        Label      (Frac)      (Frac)     (Frac)        (e)         (Frac)  
--------------------------------------------------------------------------------
      1 Ge    c    0.699600    0.375700    0.033890     4.00000    1.000000    
      2 Si    c    0.622694 *  0.324464 *  0.367298 *   4.00000    1.000000    
      3 Si    c    0.677319 *  0.296444 *  0.698356 *   4.00000    1.000000    
      4 Si    c    0.299370 *  0.622168 *  0.533342 *   4.00000    1.000000    
      5 Si    c    0.377601 *  0.675375 *  0.865900 *   4.00000    1.000000    
      6 Si    c    0.323872 *  0.696966 *  0.201771 *   4.00000    1.000000    
      7 Si    c    0.376439 *  0.699008 *  0.301974 *   4.00000    1.000000    
      8 Si    c    0.330081 *  0.620297 *  0.965759 *   4.00000    1.000000    
      9 Si    c    0.298850 *  0.676402 *  0.633279 *   4.00000    1.000000    
     10 Si    c    0.623297 *  0.296810 *  0.798040 *   4.00000    1.000000    
     11 Si    c    0.677484 *  0.378670 *  0.467073 *   4.00000    1.000000    
     12 Si    c    0.694263 *  0.316488 *  0.135210 *   4.00000    1.000000    
     13 Si    c    0.534772 *  0.410406 *  0.963649 *   4.00000    1.000000    
     14 Si    c    0.581740 *  0.112631 *  0.302877 *   4.00000    1.000000    
     15 Si    c    0.885688 *  0.468542 *  0.633104 *   4.00000    1.000000    
     16 Si    c    0.469899 *  0.583774 *  0.467839 *   4.00000    1.000000    
     17 Si    c    0.416592 *  0.884485 *  0.800240 *   4.00000    1.000000    
     18 Si    c    0.119527 *  0.528263 *  0.135226 *   4.00000    1.000000    
     19 Si    c    0.417145 *  0.530216 *  0.367069 *   4.00000    1.000000    
     20 Si    c    0.126323 *  0.592165 *  0.032965 *   4.00000    1.000000    
     21 Si    c    0.469212 *  0.883873 *  0.699269 *   4.00000    1.000000    
     22 Si    c    0.582501 *  0.466330 *  0.862758 *   4.00000    1.000000    
     23 Si    c    0.886384 *  0.416204 *  0.532311 *   4.00000    1.000000    
     24 Si    c    0.528450 *  0.106747 *  0.202274 *   4.00000    1.000000    
     25 Si    c    0.299683 *  0.396484 *  0.850134 *   4.00000    1.000000    
     26 Si    c    0.604002 *  0.900292 *  0.188286 *   4.00000    1.000000    
     27 Si    c    0.096622 *  0.698123 *  0.518458 *   4.00000    1.000000    
     28 Si    c    0.699425 *  0.603408 *  0.352139 *   4.00000    1.000000    
     29 Si    c    0.397690 *  0.094082 *  0.684353 *   4.00000    1.000000    
     30 Si    c    0.910159 *  0.305047 *  0.015332 *   4.00000    1.000000    
     31 Si    c    0.398267 *  0.301578 *  0.481938 *   4.00000    1.000000    
     32 Ge    c    0.902398 *  0.600990 *  0.150679 *   4.00000    1.000000    
     33 Si    c    0.699428 *  0.094876 *  0.813895 *   4.00000    1.000000    
     34 Si    c    0.609365 *  0.694112 *  0.979199 *   4.00000    1.000000    
     35 Si    c    0.095849 *  0.397083 *  0.647565 *   4.00000    1.000000    
     36 Si    c    0.299399 *  0.901277 *  0.316400 *   4.00000    1.000000    
     37 Si    c    0.256507 *  0.339677 *  0.949797 *   4.00000    1.000000    
     38 Si    c    0.659057 *  0.910019 *  0.288294 *   4.00000    1.000000    
     39 Si    c    0.088406 *  0.747978 *  0.618227 *   4.00000    1.000000    
     40 Si    c    0.749304 *  0.660722 *  0.452130 *   4.00000    1.000000    
     41 Si    c    0.340569 *  0.087609 *  0.784216 *   4.00000    1.000000    
     42 Si    c    0.914146 *  0.247486 *  0.116182 *   4.00000    1.000000    
     43 Si    c    0.340579 *  0.251140 *  0.382151 *   4.00000    1.000000    
     44 Ge    c    0.914533 *  0.656155 *  0.050387 *   4.00000    1.000000    
     45 Si    c    0.748969 *  0.086551 *  0.713996 *   4.00000    1.000000    
     46 Si    c    0.659723 *  0.745614 *  0.878807 *   4.00000    1.000000    
     47 Si    c    0.089056 *  0.339730 *  0.547754 *   4.00000    1.000000    
     48 Si    c    0.248494 *  0.905214 *  0.216346 *   4.00000    1.000000    
     49 Ge    c    0.974781 *  0.119596 *  0.965294 *   4.00000    1.000000    
     50 Si    c    0.879531 *  0.852769 *  0.302637 *   4.00000    1.000000    
     51 Si    c    0.150754 *  0.028128 *  0.633275 *   4.00000    1.000000    
     52 Si    c    0.029518 *  0.878772 *  0.467961 *   4.00000    1.000000    
     53 Si    c    0.122172 *  0.149676 *  0.798570 *   4.00000    1.000000    
     54 Si    c    0.848072 *  0.964533 *  0.134893 *   4.00000    1.000000    
     55 Si    c    0.121797 *  0.971226 *  0.367633 *   4.00000    1.000000    
     56 Si    c    0.852226 *  0.874671 *  0.033892 *   4.00000    1.000000    
     57 Si    c    0.029362 *  0.149566 *  0.698240 *   4.00000    1.000000    
     58 Si    c    0.877971 *  0.023200 *  0.863015 *   4.00000    1.000000    
     59 Si    c    0.151005 *  0.121438 *  0.532908 *   4.00000    1.000000    
     60 Si    c    0.968569 *  0.848642 *  0.202665 *   4.00000    1.000000    
     61 O3    c    0.923323 *  0.007423 *  0.006703 *   1.33043    1.000000    
     62 O2    c    0.998783 *  0.930316 *  0.336158 *   0.87073    1.000000    
     63 O2    c    0.070085 *  0.069690 *  0.665374 *   0.87073    1.000000    
     64 O2    c    0.069766 *  0.999289 *  0.500802 *   0.87073    1.000000    
     65 O2    c    0.998940 *  0.067147 *  0.830015 *   0.87073    1.000000    
     66 O2    c    0.932296 *  0.930849 *  0.168525 *   0.87073    1.000000    
     67 O2    c    0.337790 *  0.576286 *  0.334756 *   0.87073    1.000000    
     68 O2    c    0.421024 *  0.758982 *  0.666552 *   0.87073    1.000000    
     69 O2    c    0.252947 *  0.661297 *  0.001065 *   0.87073    1.000000    
     70 O2    c    0.661273 *  0.421187 *  0.829879 *   0.87073    1.000000    
     71 O2    c    0.576444 *  0.229155 *  0.169040 *   0.87073    1.000000    
     72 O2    c    0.761230 *  0.339129 *  0.499757 *   0.87073    1.000000    
     73 O3    c    0.572329 *  0.327283 *  0.995437 *   1.33043    1.000000    
     74 O2    c    0.760058 *  0.419399 *  0.665423 *   0.87073    1.000000    
     75 O2    c    0.660453 *  0.238933 *  0.334736 *   0.87073    1.000000    
     76 O2    c    0.422428 *  0.661173 *  0.500495 *   0.87073    1.000000    
     77 O2    c    0.244508 *  0.574397 *  0.168048 *   0.87073    1.000000    
     78 O2    c    0.339018 *  0.760513 *  0.833295 *   0.87073    1.000000    
     79 O3    c    0.139313 *  0.212090 *  0.971412 *   1.33043    1.000000    
     80 O2    c    0.785598 *  0.912656 *  0.309380 *   0.87073    1.000000    
     81 O2    c    0.086645 *  0.873399 *  0.638440 *   0.87073    1.000000    
     82 O2    c    0.874674 *  0.787617 *  0.472472 *   0.87073    1.000000    
     83 O2    c    0.214351 *  0.087575 *  0.804532 *   0.87073    1.000000    
     84 O2    c    0.910744 *  0.120622 *  0.136470 *   0.87073    1.000000    
     85 O2    c    0.214186 *  0.125469 *  0.361730 *   0.87073    1.000000    
     86 O3    c    0.926169 *  0.798735 *  0.026740 *   1.33043    1.000000    
     87 O2    c    0.874432 *  0.084879 *  0.693771 *   0.87073    1.000000    
     88 O2    c    0.783859 *  0.869256 *  0.856416 *   0.87073    1.000000    
     89 O2    c    0.087879 *  0.212818 *  0.527539 *   0.87073    1.000000    
     90 O2    c    0.123017 *  0.904836 *  0.195590 *   0.87073    1.000000    
     91 O2    c    0.936603 *  0.876138 *  0.252710 *   0.87073    1.000000    
     92 O2    c    0.138847 *  0.068986 *  0.583106 *   0.87073    1.000000    
     93 O3    c    0.930097 *  0.050139 *  0.913299 *   1.33043    1.000000    
     94 O2    c    0.072403 *  0.137438 *  0.747998 *   0.87073    1.000000    
     95 O2    c    0.850246 *  0.914271 *  0.085729 *   0.87073    1.000000    
     96 O2    c    0.071590 *  0.933761 *  0.418134 *   0.87073    1.000000    
     97 O3    c    0.913212 *  0.221710 *  0.974023 *   1.33043    1.000000    
     98 O2    c    0.797428 *  0.699096 *  0.313461 *   0.87073    1.000000    
     99 O2    c    0.302560 *  0.097108 *  0.645782 *   0.87073    1.000000    
    100 O2    c    0.099152 *  0.796345 *  0.479994 *   0.87073    1.000000    
    101 O2    c    0.201387 *  0.301416 *  0.811495 *   0.87073    1.000000    
    102 O2    c    0.698230 *  0.896919 *  0.149777 *   0.87073    1.000000    
    103 O2    c    0.201331 *  0.898986 *  0.354813 *   0.87073    1.000000    
    104 O2    c    0.701403 *  0.788228 *  0.018594 *   0.87073    1.000000    
    105 O2    c    0.098239 *  0.301587 *  0.686084 *   0.87073    1.000000    
    106 O2    c    0.797566 *  0.096693 *  0.852531 *   0.87073    1.000000    
    107 O2    c    0.303013 *  0.203409 *  0.520467 *   0.87073    1.000000    
    108 O3    c    0.896574 *  0.697354 *  0.194722 *   1.33043    1.000000    
    109 O2    c    0.321721 *  0.639974 *  0.251911 *   0.87073    1.000000    
    110 O2    c    0.357343 *  0.678653 *  0.583313 *   0.87073    1.000000    
    111 O2    c    0.322102 *  0.676535 *  0.916215 *   0.87073    1.000000    
    112 O2    c    0.680123 *  0.355101 *  0.748218 *   0.87073    1.000000    
    113 O3    c    0.632922 *  0.316637 *  0.086931 *   1.33043    1.000000    
    114 O2    c    0.679653 *  0.322763 *  0.417095 *   0.87073    1.000000    
    115 O2    c    0.378447 *  0.326949 *  0.965391 *   0.87073    1.000000    
    116 O2    c    0.669505 *  0.043774 *  0.305499 *   0.87073    1.000000    
    117 O2    c    0.954843 *  0.625319 *  0.636077 *   0.87073    1.000000    
    118 O2    c    0.626742 *  0.671259 *  0.470237 *   0.87073    1.000000    
    119 O2    c    0.329574 *  0.954347 *  0.802486 *   0.87073    1.000000    
    120 O2    c    0.044308 *  0.370950 *  0.135403 *   0.87073    1.000000    
    121 O2    c    0.329551 *  0.373496 *  0.364203 *   0.87073    1.000000    
    122 O3    c    0.066037 *  0.684203 *  0.031501 *   1.33043    1.000000    
    123 O2    c    0.625988 *  0.952887 *  0.696397 *   0.87073    1.000000    
    124 O2    c    0.667829 *  0.622933 *  0.859745 *   0.87073    1.000000    
    125 O2    c    0.955891 *  0.328968 *  0.529520 *   0.87073    1.000000    
    126 O2    c    0.372004 *  0.037338 *  0.198040 *   0.87073    1.000000    
    127 O3    c    0.771406 *  0.292267 *  0.012580 *   1.33043    1.000000    
    128 O2    c    0.698343 *  0.468143 *  0.344957 *   0.87073    1.000000    
    129 O2    c    0.532862 *  0.227772 *  0.676759 *   0.87073    1.000000    
    130 O2    c    0.230966 *  0.697673 *  0.511301 *   0.87073    1.000000    
    131 O2    c    0.302000 *  0.532364 *  0.842985 *   0.87073    1.000000    
    132 O2    c    0.468445 *  0.767242 *  0.180429 *   0.87073    1.000000    
    133 O2    c    0.299658 *  0.766803 *  0.323339 *   0.87073    1.000000    
    134 O2    c    0.475103 *  0.694972 *  0.986335 *   0.87073    1.000000    
    135 O2    c    0.230028 *  0.531949 *  0.654862 *   0.87073    1.000000    
    136 O2    c    0.699220 *  0.229499 *  0.820816 *   0.87073    1.000000    
    137 O2    c    0.533458 *  0.302854 *  0.489011 *   0.87073    1.000000    
    138 O3    c    0.760057 *  0.455474 *  0.158938 *   1.33043    1.000000    
    139 O1    c    0.776385 *  0.539785 *  0.024289 *   1.73396    1.000000    
    140 O2    c    0.465987 *  0.249367 *  0.362709 *   0.87073    1.000000    
    141 O2    c    0.751241 *  0.213631 *  0.694060 *   0.87073    1.000000    
    142 O2    c    0.216922 *  0.465409 *  0.528744 *   0.87073    1.000000    
    143 O2    c    0.534159 *  0.750542 *  0.861427 *   0.87073    1.000000    
    144 O2    c    0.247203 *  0.777233 *  0.197436 *   0.87073    1.000000    
    145 O2    c    0.532757 *  0.783047 *  0.307304 *   0.87073    1.000000    
    146 O2    c    0.252068 *  0.463382 *  0.970362 *   0.87073    1.000000    
    147 O2    c    0.215933 *  0.750178 *  0.637615 *   0.87073    1.000000    
    148 O2    c    0.466653 *  0.214923 *  0.803142 *   0.87073    1.000000    
    149 O2    c    0.751398 *  0.535382 *  0.471490 *   0.87073    1.000000    
    150 O2    c    0.788777 *  0.254626 *  0.131736 *   0.87073    1.000000    
    151 O2    c    0.226461 *  0.321223 *  0.895952 *   0.87073    1.000000    
    152 O2    c    0.677983 *  0.904393 *  0.234502 *   0.87073    1.000000    
    153 O2    c    0.091345 *  0.768911 *  0.564316 *   0.87073    1.000000    
    154 O2    c    0.769939 *  0.678619 *  0.398168 *   0.87073    1.000000    
    155 O2    c    0.322373 *  0.089707 *  0.730278 *   0.87073    1.000000    
    156 O2    c    0.922863 *  0.240420 *  0.062099 *   0.87073    1.000000    
    157 O2    c    0.322537 *  0.230528 *  0.436070 *   0.87073    1.000000    
    158 O1    c    0.908517 *  0.695109 *  0.106471 *   1.73396    1.000000    
    159 O2    c    0.770211 *  0.089996 *  0.767949 *   0.87073    1.000000    
    160 O2    c    0.683015 *  0.765504 *  0.932761 *   0.87073    1.000000    
    161 O2    c    0.090976 *  0.321398 *  0.601662 *   0.87073    1.000000    
    162 O2    c    0.228811 *  0.905085 *  0.270294 *   0.87073    1.000000    
    163 O2    c    0.593326 *  0.553028 *  0.986476 *   0.87073    1.000000    
    164 O2    c    0.439353 *  0.027387 *  0.325294 *   0.87073    1.000000    
    165 O2    c    0.969720 *  0.410804 *  0.656013 *   0.87073    1.000000    
    166 O2    c    0.412103 *  0.441570 *  0.490440 *   0.87073    1.000000    
    167 O2    c    0.559126 *  0.969298 *  0.822617 *   0.87073    1.000000    
    168 O3    c    0.036099 *  0.582574 *  0.158645 *   1.33043    1.000000    
    169 O2    c    0.558938 *  0.588878 *  0.343892 *   0.87073    1.000000    
    170 O2    c    0.026123 *  0.452702 *  0.010949 *   0.87073    1.000000    
    171 O2    c    0.411082 *  0.967576 *  0.676329 *   0.87073    1.000000    
    172 O2    c    0.438412 *  0.407129 *  0.841513 *   0.87073    1.000000    
    173 O2    c    0.970365 *  0.558377 *  0.509622 *   0.87073    1.000000    
    174 O2    c    0.593084 *  0.028120 *  0.179901 *   0.87073    1.000000    
    175 O2    c    0.581080 *  0.165223 *  0.252327 *   0.87073    1.000000    
    176 O2    c    0.831813 *  0.415277 *  0.582665 *   0.87073    1.000000    
    177 O2    c    0.588227 *  0.414312 *  0.912758 *   0.87073    1.000000    
    178 O2    c    0.416000 *  0.830147 *  0.749786 *   0.87073    1.000000    
    179 O2    c    0.168941 *  0.580809 *  0.084437 *   0.87073    1.000000    
    180 O2    c    0.416377 *  0.584151 *  0.417393 *   0.87073    1.000000    
    181 F     c    0.451936 *  0.903176 *  0.251530 *   0.56000    1.000000    
    182 F     c    0.095154 *  0.547385 *  0.582844 *   0.56000    1.000000    
    183 F     c    0.449813 *  0.544813 *  0.914078 *   0.56000    1.000000    
    184 F     c    0.549249 *  0.094627 *  0.749123 *   0.56000    1.000000    
    185 F     c    0.894273 *  0.483867 *  0.081912 *   0.56000    1.000000    
    186 F     c    0.548109 *  0.452345 *  0.416871 *   0.56000    1.000000    
    187 O3    s    0.920603 *  0.003809 *  0.005722 *  -3.33043    1.000000    
    188 O2    s    0.999275 *  0.926170 *  0.335949 *  -2.87073    1.000000    
    189 O2    s    0.074626 *  0.074021 *  0.665458 *  -2.87073    1.000000    
    190 O2    s    0.074404 *  0.999475 *  0.500723 *  -2.87073    1.000000    
    191 O2    s    0.999297 *  0.071570 *  0.830167 *  -2.87073    1.000000    
    192 O2    s    0.926854 *  0.925722 *  0.168480 *  -2.87073    1.000000    
    193 O2    s    0.350005 *  0.584336 *  0.334666 *  -2.87073    1.000000    
    194 O2    s    0.413346 *  0.763340 *  0.666486 *  -2.87073    1.000000    
    195 O2    s    0.247525 *  0.649732 *  0.000789 *  -2.87073    1.000000    
    196 O2    s    0.649139 *  0.412896 *  0.829957 *  -2.87073    1.000000    
    197 O2    s    0.583773 *  0.225226 *  0.168990 *  -2.87073    1.000000    
    198 O2    s    0.765508 *  0.351207 *  0.499721 *  -2.87073    1.000000    
    199 O3    s    0.577972 *  0.339354 *  0.995105 *  -3.33043    1.000000    
    200 O2    s    0.764538 *  0.411749 *  0.665484 *  -2.87073    1.000000    
    201 O2    s    0.648371 *  0.234631 *  0.334786 *  -2.87073    1.000000    
    202 O2    s    0.414651 *  0.649142 *  0.500526 *  -2.87073    1.000000    
    203 O2    s    0.239880 *  0.582098 *  0.168154 *  -2.87073    1.000000    
    204 O2    s    0.350969 *  0.764613 *  0.833239 *  -2.87073    1.000000    
    205 O3    s    0.137164 *  0.217045 *  0.968741 *  -3.33043    1.000000    
    206 O2    s    0.782301 *  0.905989 *  0.306502 *  -2.87073    1.000000    
    207 O2    s    0.093711 *  0.876881 *  0.635829 *  -2.87073    1.000000    
    208 O2    s    0.878176 *  0.784125 *  0.469907 *  -2.87073    1.000000    
    209 O2    s    0.217689 *  0.094210 *  0.801824 *  -2.87073    1.000000    
    210 O2    s    0.904582 *  0.118163 *  0.134144 *  -2.87073    1.000000    
    211 O2    s    0.217504 *  0.122066 *  0.364452 *  -2.87073    1.000000    
    212 O3    s    0.917281 *  0.797327 *  0.029112 *  -3.33043    1.000000    
    213 O2    s    0.877950 *  0.091997 *  0.696313 *  -2.87073    1.000000    
    214 O2    s    0.780895 *  0.872723 *  0.859405 *  -2.87073    1.000000    
    215 O2    s    0.094774 *  0.216288 *  0.530177 *  -2.87073    1.000000    
    216 O2    s    0.120568 *  0.899127 *  0.198448 *  -2.87073    1.000000    
    217 O2    s    0.933641 *  0.870494 *  0.252903 *  -2.87073    1.000000    
    218 O2    s    0.141595 *  0.070319 *  0.583094 *  -2.87073    1.000000    
    219 O3    s    0.928493 *  0.053404 *  0.912538 *  -3.33043    1.000000    
    220 O2    s    0.073153 *  0.140213 *  0.748096 *  -2.87073    1.000000    
    221 O2    s    0.850190 *  0.915976 *  0.085985 *  -2.87073    1.000000    
    222 O2    s    0.072535 *  0.931756 *  0.418049 *  -2.87073    1.000000    
    223 O3    s    0.917882 *  0.222033 *  0.977467 *  -3.33043    1.000000    
    224 O2    s    0.796030 *  0.705396 *  0.316240 *  -2.87073    1.000000    
    225 O2    s    0.296164 *  0.089409 *  0.648404 *  -2.87073    1.000000    
    226 O2    s    0.091466 *  0.795020 *  0.482658 *  -2.87073    1.000000    
    227 O2    s    0.203006 *  0.294974 *  0.814063 *  -2.87073    1.000000    
    228 O2    s    0.704345 *  0.904543 *  0.152246 *  -2.87073    1.000000    
    229 O2    s    0.203009 *  0.906896 *  0.352229 *  -2.87073    1.000000    
    230 O2    s    0.706927 *  0.786970 *  0.015975 *  -2.87073    1.000000    
    231 O2    s    0.090613 *  0.295224 *  0.683422 *  -2.87073    1.000000    
    232 O2    s    0.796043 *  0.088925 *  0.849772 *  -2.87073    1.000000    
    233 O2    s    0.296654 *  0.204810 *  0.517832 *  -2.87073    1.000000    
    234 O3    s    0.904464 *  0.706097 *  0.192391 *  -3.33043    1.000000    
    235 O2    s    0.327466 *  0.651766 *  0.251861 *  -2.87073    1.000000    
    236 O2    s    0.345512 *  0.672684 *  0.583313 *  -2.87073    1.000000    
    237 O2    s    0.328439 *  0.670782 *  0.916112 *  -2.87073    1.000000    
    238 O2    s    0.674009 *  0.343078 *  0.748205 *  -2.87073    1.000000    
    239 O3    s    0.643941 *  0.321232 *  0.087479 *  -3.33043    1.000000    
    240 O2    s    0.673609 *  0.328648 *  0.417091 *  -2.87073    1.000000    
    241 O2    s    0.381581 *  0.337316 *  0.963452 *  -2.87073    1.000000    
    242 O2    s    0.659257 *  0.036754 *  0.303408 *  -2.87073    1.000000    
    243 O2    s    0.961741 *  0.621986 *  0.633897 *  -2.87073    1.000000    
    244 O2    s    0.623395 *  0.661054 *  0.468086 *  -2.87073    1.000000    
    245 O2    s    0.339730 *  0.961149 *  0.800341 *  -2.87073    1.000000    
    246 O2    s    0.038350 *  0.374104 *  0.133377 *  -2.87073    1.000000    
    247 O2    s    0.339847 *  0.376836 *  0.366397 *  -2.87073    1.000000    
    248 O3    s    0.061004 *  0.672560 *  0.033100 *  -3.33043    1.000000    
    249 O2    s    0.622703 *  0.959815 *  0.698546 *  -2.87073    1.000000    
    250 O2    s    0.657988 *  0.619629 *  0.862089 *  -2.87073    1.000000    
    251 O2    s    0.962720 *  0.339149 *  0.531719 *  -2.87073    1.000000    
    252 O2    s    0.375246 *  0.030598 *  0.200409 *  -2.87073    1.000000    
    253 O3    s    0.779933 *  0.300390 *  0.014647 *  -3.33043    1.000000    
    254 O2    s    0.690649 *  0.467526 *  0.348027 *  -2.87073    1.000000    
    255 O2    s    0.533531 *  0.220702 *  0.679818 *  -2.87073    1.000000    
    256 O2    s    0.223856 *  0.689877 *  0.514358 *  -2.87073    1.000000    
    257 O2    s    0.309546 *  0.532791 *  0.846119 *  -2.87073    1.000000    
    258 O2    s    0.467698 *  0.774031 *  0.183514 *  -2.87073    1.000000    
    259 O2    s    0.307624 *  0.773978 *  0.320368 *  -2.87073    1.000000    
    260 O2    s    0.473859 *  0.686967 *  0.983372 *  -2.87073    1.000000    
    261 O2    s    0.222924 *  0.532654 *  0.651833 *  -2.87073    1.000000    
    262 O2    s    0.691434 *  0.222221 *  0.817738 *  -2.87073    1.000000    
    263 O2    s    0.534081 *  0.310586 *  0.485970 *  -2.87073    1.000000    
    264 O3    s    0.764900 *  0.453278 *  0.155899 *  -3.33043    1.000000    
    265 O1    s    0.781285 *  0.536175 *  0.027030 *  -3.73396    1.000000    
    266 O2    s    0.468784 *  0.257517 *  0.365252 *  -2.87073    1.000000    
    267 O2    s    0.743185 *  0.208434 *  0.696620 *  -2.87073    1.000000    
    268 O2    s    0.211595 *  0.468167 *  0.531242 *  -2.87073    1.000000    
    269 O2    s    0.531296 *  0.741984 *  0.863762 *  -2.87073    1.000000    
    270 O2    s    0.255350 *  0.782587 *  0.199855 *  -2.87073    1.000000    
    271 O2    s    0.530098 *  0.788144 *  0.304723 *  -2.87073    1.000000    
    272 O2    s    0.260614 *  0.466593 *  0.967759 *  -2.87073    1.000000    
    273 O2    s    0.210690 *  0.742135 *  0.635105 *  -2.87073    1.000000    
    274 O2    s    0.469278 *  0.209510 *  0.800595 *  -2.87073    1.000000    
    275 O2    s    0.743328 *  0.532567 *  0.468969 *  -2.87073    1.000000    
    276 O2    s    0.792967 *  0.260246 *  0.130384 *  -2.87073    1.000000    
    277 O2    s    0.236961 *  0.330840 *  0.896697 *  -2.87073    1.000000    
    278 O2    s    0.668189 *  0.904524 *  0.235307 *  -2.87073    1.000000    
    279 O2    s    0.091584 *  0.759267 *  0.565214 *  -2.87073    1.000000    
    280 O2    s    0.760381 *  0.668864 *  0.399033 *  -2.87073    1.000000    
    281 O2    s    0.332202 *  0.089928 *  0.731157 *  -2.87073    1.000000    
    282 O2    s    0.920784 *  0.247631 *  0.063133 *  -2.87073    1.000000    
    283 O2    s    0.332387 *  0.240168 *  0.435176 *  -2.87073    1.000000    
    284 O1    s    0.908418 *  0.684912 *  0.105963 *  -3.73396    1.000000    
    285 O2    s    0.760570 *  0.090136 *  0.767077 *  -2.87073    1.000000    
    286 O2    s    0.673130 *  0.756206 *  0.931902 *  -2.87073    1.000000    
    287 O2    s    0.091272 *  0.331278 *  0.600768 *  -2.87073    1.000000    
    288 O2    s    0.238295 *  0.904699 *  0.269448 *  -2.87073    1.000000    
    289 O2    s    0.588872 *  0.553684 *  0.983360 *  -2.87073    1.000000    
    290 O2    s    0.439237 *  0.022587 *  0.322004 *  -2.87073    1.000000    
    291 O2    s    0.974695 *  0.415548 *  0.652709 *  -2.87073    1.000000    
    292 O2    s    0.416828 *  0.441384 *  0.487169 *  -2.87073    1.000000    
    293 O2    s    0.559347 *  0.974160 *  0.819350 *  -2.87073    1.000000    
    294 O3    s    0.033700 *  0.578382 *  0.155596 *  -3.33043    1.000000    
    295 O2    s    0.559256 *  0.584173 *  0.347177 *  -2.87073    1.000000    
    296 O2    s    0.023866 *  0.451319 *  0.013708 *  -2.87073    1.000000    
    297 O2    s    0.415890 *  0.972631 *  0.679587 *  -2.87073    1.000000    
    298 O2    s    0.438599 *  0.412322 *  0.844653 *  -2.87073    1.000000    
    299 O2    s    0.975361 *  0.558542 *  0.512936 *  -2.87073    1.000000    
    300 O2    s    0.587433 *  0.022421 *  0.183128 *  -2.87073    1.000000    
    301 O2    s    0.575684 *  0.153721 *  0.252375 *  -2.87073    1.000000    
    302 O2    s    0.843034 *  0.420884 *  0.582665 *  -2.87073    1.000000    
    303 O2    s    0.582230 *  0.419344 *  0.912723 *  -2.87073    1.000000    
    304 O2    s    0.421532 *  0.841236 *  0.749774 *  -2.87073    1.000000    
    305 O2    s    0.159606 *  0.576508 *  0.084558 *  -2.87073    1.000000    
    306 O2    s    0.421985 *  0.578550 *  0.417412 *  -2.87073    1.000000    
    307 F     s    0.451876 *  0.903086 *  0.251451 *  -1.56000    1.000000    
    308 F     s    0.095454 *  0.547560 *  0.582824 *  -1.56000    1.000000    
    309 F     s    0.449066 *  0.544914 *  0.914040 *  -1.56000    1.000000    
    310 F     s    0.549549 *  0.095123 *  0.749137 *  -1.56000    1.000000    
    311 F     s    0.892837 *  0.488723 *  0.081326 *  -1.56000    1.000000    
    312 F     s    0.548257 *  0.452105 *  0.416835 *  -1.56000    1.000000    
--------------------------------------------------------------------------------



********************************************************************************
*  General input information                                                   *
********************************************************************************

  Species output for all configurations : 

--------------------------------------------------------------------------------
  Species    Type    Atomic    Atomic    Charge       Radii (Angs)     Library
                     Number     Mass       (e)     Cova   Ionic  VDW   Symbol
--------------------------------------------------------------------------------
    Si       Core       14      28.09   4.000000   1.200  0.000  2.100          
    O1       Core        8      16.00   1.733957   0.730  0.000  1.360          
    O1       Shell       8       0.00  -3.733957   0.730  0.000  1.360          
    O2       Core        8      16.00   0.870733   0.730  0.000  1.360          
    O2       Shell       8       0.00  -2.870733   0.730  0.000  1.360          
    O3       Core        8      16.00   1.330431   0.730  0.000  1.360          
    O3       Shell       8       0.00  -3.330431   0.730  0.000  1.360          
    F        Core        9      19.00   0.560000   0.710  0.000  1.300          
    F        Shell       9       0.00  -1.560000   0.710  0.000  1.300          
    Ge       Core       32      72.61   4.000000   1.170  0.000  1.750          
--------------------------------------------------------------------------------


  Lattice summation method               =    Ewald          (3-D)
                                         =    Parry          (2-D)
                                         =    Saunders et al (1-D)
  Accuracy factor for lattice sums       =   12.000


  Time limit = Infinity

  Maximum range for interatomic potentials =        16.000000 Angstroms

  Taper potentials to zero over   1.0000 Angstroms using polynomial

  General interatomic potentials :

--------------------------------------------------------------------------------
Atom  Types   Potential         A         B         C         D     Cutoffs(Ang)
  1     2                                                            Min    Max 
--------------------------------------------------------------------------------
Si   c O1   s Buckingham    0.132E+04 0.318      10.1      0.00     0.000 16.000
Si   c O2   s Buckingham    0.132E+04 0.318      10.1      0.00     0.000 16.000
Si   c O3   s Buckingham    0.132E+04 0.318      10.1      0.00     0.000 16.000
Ge   c O1   s Buckingham    0.150E+04 0.326      16.8      0.00     0.000 16.000
Ge   c O2   s Buckingham    0.150E+04 0.326      16.8      0.00     0.000 16.000
Ge   c O3   s Buckingham    0.150E+04 0.326      16.8      0.00     0.000 16.000
O1   s O1   s Buckingham    0.228E+05 0.149      10.9      0.00     0.000 16.000
O1   s O2   s Buckingham    0.228E+05 0.149      10.9      0.00     0.000 16.000
O1   s O3   s Buckingham    0.228E+05 0.149      10.9      0.00     0.000 16.000
O2   s O2   s Buckingham    0.228E+05 0.149      10.9      0.00     0.000 16.000
O2   s O3   s Buckingham    0.228E+05 0.149      10.9      0.00     0.000 16.000
O3   s O3   s Buckingham    0.228E+05 0.149      10.9      0.00     0.000 16.000
Si   c F    s Buckingham     977.     0.282      0.00      0.00     0.000 16.000
Ge   c F    s Buckingham     681.     0.320      0.00      0.00     0.000 16.000
F    s F    s Buckingham     540.     0.262      0.00      0.00     0.000 16.000
O1   s F    s Buckingham    0.168E+04 0.268      0.00      0.00     0.000 16.000
O2   s F    s Buckingham    0.168E+04 0.268      0.00      0.00     0.000 16.000
O3   s F    s Buckingham    0.168E+04 0.268      0.00      0.00     0.000 16.000
O2   c O2   s Spring (c-s)   76.0      0.00      0.00      0.00     0.000  0.800
O3   c O3   s Spring (c-s)   128.      0.00      0.00      0.00     0.000  0.800
O1   c O1   s Spring (c-s)   180.      0.00      0.00      0.00     0.000  0.800
F    c F    s Spring (c-s)   33.5      0.00      0.00      0.00     0.000  0.800
--------------------------------------------------------------------------------

  General Three-body potentials :

  Harmonic form:

--------------------------------------------------------------------------------
Atom    Atom    Atom           Force Constants            Theta     Cutoffs  
  1       2       3     (eVrad**-2/eVrad**-3/eVrad**-4)   (deg)  1-2  1-3  2-3
--------------------------------------------------------------------------------
Si    c O1    s O1    s  1.261        0.0000    0.0000   109.470 0.00 0.00 0.00
                                                                 1.90 1.90 3.50
Si    c O1    s O2    s  1.261        0.0000    0.0000   109.470 0.00 0.00 0.00
                                                                 1.90 1.90 3.50
Si    c O2    s O2    s  1.261        0.0000    0.0000   109.470 0.00 0.00 0.00
                                                                 1.90 1.90 3.50
--------------------------------------------------------------------------------

********************************************************************************
*  Output for configuration   1                                                *
********************************************************************************


  Components of energy : 

--------------------------------------------------------------------------------
  Interatomic potentials     =        2061.67498806 eV
  Three-body potentials      =           0.40611901 eV
  Monopole - monopole (real) =       -6579.30999143 eV
  Monopole - monopole (recip)=       -3195.14187241 eV
  Monopole - monopole (total)=       -9774.45186385 eV
  Neutralising energy        =          -6.45966347 eV
--------------------------------------------------------------------------------
  Total lattice energy       =       -7718.83042024 eV
--------------------------------------------------------------------------------
  Total lattice energy       =         -744749.1424 kJ/(mole unit cells)
--------------------------------------------------------------------------------


  Number of variables =      939

  Maximum number of calculations  =          1000
  Maximum Hessian update interval =            10
  Maximum step size               =   0.010000000
  Maximum parameter tolerance     =   0.000010000
  Maximum function  tolerance     =   0.000010000
  Maximum gradient  tolerance     =   0.001000000
  Maximum gradient  component     =   0.010000000

  Symmetry not applied to optimisation

  Cell parameters to be optimised using strains

  RFO method to be used

  DFP hessian update to be used

  Dumpfile to be written after every cycle

  Start of bulk optimisation :

  Cycle:      0 Energy:     -7718.830420  Gnorm:      0.016261  CPU:    1.050
  ** Hessian has required structure
  Cycle:      1 Energy:     -7718.833385  Gnorm:      0.015967  CPU:    4.097
  ** Hessian has required structure
  Cycle:      2 Energy:     -7718.838265  Gnorm:      0.015476  CPU:    7.471
  ** Hessian has required structure
  Cycle:      3 Energy:     -7718.845477  Gnorm:      0.014728  CPU:   10.844
  ** Hessian has required structure
  Cycle:      4 Energy:     -7718.852269  Gnorm:      0.013996  CPU:   13.888
  ** Hessian has required structure
  Cycle:      5 Energy:     -7718.858473  Gnorm:      0.013300  CPU:   16.932
  ** Hessian has required structure
  Cycle:      6 Energy:     -7718.864136  Gnorm:      0.012638  CPU:   19.975
  ** Hessian has required structure
  Cycle:      7 Energy:     -7718.869302  Gnorm:      0.012009  CPU:   23.018
  ** Hessian has required structure
  Cycle:      8 Energy:     -7718.874014  Gnorm:      0.011411  CPU:   26.062
  ** Hessian has required structure
  Cycle:      9 Energy:     -7718.878307  Gnorm:      0.010843  CPU:   29.107
  ** Hessian has required structure
  Cycle:     10 Energy:     -7718.882218  Gnorm:      0.010303  CPU:   32.152
  ** Hessian has required structure
  Cycle:     11 Energy:     -7718.885776  Gnorm:      0.009789  CPU:   35.859
  ** Hessian has required structure
  Cycle:     12 Energy:     -7718.889015  Gnorm:      0.009302  CPU:   38.905
  ** Hessian has required structure
  Cycle:     13 Energy:     -7718.891960  Gnorm:      0.008839  CPU:   41.951
  ** Hessian has required structure
  Cycle:     14 Energy:     -7718.894637  Gnorm:      0.008398  CPU:   44.997
  ** Hessian has required structure
  Cycle:     15 Energy:     -7718.897068  Gnorm:      0.007980  CPU:   48.044
  ** Hessian has required structure
  Cycle:     16 Energy:     -7718.899274  Gnorm:      0.007582  CPU:   51.089
  ** Hessian has required structure
  Cycle:     17 Energy:     -7718.901277  Gnorm:      0.007204  CPU:   54.136
  ** Hessian has required structure
  Cycle:     18 Energy:     -7718.903093  Gnorm:      0.006845  CPU:   57.184
  ** Hessian has required structure
  Cycle:     19 Energy:     -7718.904740  Gnorm:      0.006504  CPU:   60.230
  ** Hessian has required structure
  Cycle:     20 Energy:     -7718.906232  Gnorm:      0.006179  CPU:   63.276
  ** Hessian has required structure
  Cycle:     21 Energy:     -7718.907583  Gnorm:      0.005871  CPU:   66.984
  ** Hessian has required structure
  Cycle:     22 Energy:     -7718.908807  Gnorm:      0.005578  CPU:   70.031
  ** Hessian has required structure
  Cycle:     23 Energy:     -7718.909915  Gnorm:      0.005300  CPU:   73.078
  ** Hessian has required structure
  Cycle:     24 Energy:     -7718.910918  Gnorm:      0.005036  CPU:   76.122
  ** Hessian has required structure
  Cycle:     25 Energy:     -7718.911826  Gnorm:      0.004784  CPU:   79.170
  ** Hessian has required structure
  Cycle:     26 Energy:     -7718.912647  Gnorm:      0.004546  CPU:   82.218
  ** Hessian has required structure
  Cycle:     27 Energy:     -7718.913389  Gnorm:      0.004319  CPU:   85.265
  ** Hessian has required structure
  Cycle:     28 Energy:     -7718.914060  Gnorm:      0.004103  CPU:   88.310
  ** Hessian has required structure
  Cycle:     29 Energy:     -7718.914666  Gnorm:      0.003899  CPU:   91.358
  ** Hessian has required structure
  Cycle:     30 Energy:     -7718.915215  Gnorm:      0.003704  CPU:   94.421
  ** Hessian has required structure
  Cycle:     31 Energy:     -7718.915710  Gnorm:      0.003519  CPU:   98.130
  ** Hessian has required structure
  Cycle:     32 Energy:     -7718.916157  Gnorm:      0.003343  CPU:  101.178
  ** Hessian has required structure
  Cycle:     33 Energy:     -7718.916562  Gnorm:      0.003176  CPU:  104.285
  ** Hessian has required structure
  Cycle:     34 Energy:     -7718.916927  Gnorm:      0.003018  CPU:  107.334
  ** Hessian has required structure
  Cycle:     35 Energy:     -7718.917257  Gnorm:      0.002867  CPU:  110.383
  ** Hessian has required structure
  Cycle:     36 Energy:     -7718.917555  Gnorm:      0.002724  CPU:  113.432
  ** Hessian has required structure
  Cycle:     37 Energy:     -7718.917824  Gnorm:      0.002588  CPU:  116.480
  ** Hessian has required structure
  Cycle:     38 Energy:     -7718.918066  Gnorm:      0.002459  CPU:  119.528
  ** Hessian has required structure
  Cycle:     39 Energy:     -7718.918286  Gnorm:      0.002336  CPU:  122.576
  ** Hessian has required structure
  Cycle:     40 Energy:     -7718.918484  Gnorm:      0.002219  CPU:  125.625
  ** Hessian has required structure
  Cycle:     41 Energy:     -7718.918662  Gnorm:      0.002109  CPU:  129.335
  ** Hessian has required structure
  Cycle:     42 Energy:     -7718.918824  Gnorm:      0.002003  CPU:  132.384
  ** Hessian has required structure
  Cycle:     43 Energy:     -7718.918969  Gnorm:      0.001903  CPU:  135.434
  ** Hessian has required structure
  Cycle:     44 Energy:     -7718.919101  Gnorm:      0.001808  CPU:  138.490
  ** Hessian has required structure
  Cycle:     45 Energy:     -7718.919220  Gnorm:      0.001718  CPU:  141.541
  ** Hessian has required structure
  Cycle:     46 Energy:     -7718.919327  Gnorm:      0.001632  CPU:  144.591
  ** Hessian has required structure
  Cycle:     47 Energy:     -7718.919423  Gnorm:      0.001550  CPU:  147.641
  ** Hessian has required structure
  Cycle:     48 Energy:     -7718.919511  Gnorm:      0.001473  CPU:  150.693
  ** Hessian has required structure
  Cycle:     49 Energy:     -7718.919589  Gnorm:      0.001399  CPU:  153.744
  ** Hessian has required structure
  Cycle:     50 Energy:     -7718.919660  Gnorm:      0.001329  CPU:  156.794
  ** Hessian has required structure
  Cycle:     51 Energy:     -7718.919725  Gnorm:      0.001263  CPU:  160.519
  ** Hessian has required structure
  Cycle:     52 Energy:     -7718.919783  Gnorm:      0.001200  CPU:  163.568
  ** Hessian has required structure
  Cycle:     53 Energy:     -7718.919835  Gnorm:      0.001140  CPU:  166.618
  ** Hessian has required structure
  Cycle:     54 Energy:     -7718.919863  Gnorm:      0.001106  CPU:  169.011
  ** Hessian has required structure
  Cycle:     55 Energy:     -7718.919886  Gnorm:      0.001078  CPU:  171.403
  ** Hessian has required structure
  Cycle:     56 Energy:     -7718.919906  Gnorm:      0.001053  CPU:  173.794
  ** Hessian has required structure
  Cycle:     57 Energy:     -7718.919924  Gnorm:      0.001030  CPU:  176.185
  ** Hessian has required structure
  Cycle:     58 Energy:     -7718.919940  Gnorm:      0.001008  CPU:  178.576
  ** Hessian has required structure
  Cycle:     59 Energy:     -7718.919956  Gnorm:      0.000987  CPU:  180.968
  ** Hessian has required structure
  Cycle:     60 Energy:     -7718.919971  Gnorm:      0.000967  CPU:  183.358
  ** Hessian has required structure
  Cycle:     61 Energy:     -7718.919991  Gnorm:      0.000938  CPU:  186.409
  ** Hessian has required structure
  Cycle:     62 Energy:     -7718.920008  Gnorm:      0.000914  CPU:  188.802
  ** Hessian has required structure
  Cycle:     63 Energy:     -7718.920022  Gnorm:      0.000893  CPU:  191.193
  ** Hessian has required structure
  Cycle:     64 Energy:     -7718.920035  Gnorm:      0.000873  CPU:  193.586
  ** Hessian has required structure
  Cycle:     65 Energy:     -7718.920046  Gnorm:      0.000855  CPU:  195.980
  ** Hessian has required structure
  Cycle:     66 Energy:     -7718.920058  Gnorm:      0.000837  CPU:  198.373
  ** Hessian has required structure
  Cycle:     67 Energy:     -7718.920068  Gnorm:      0.000820  CPU:  200.764
  ** Hessian has required structure
  Cycle:     68 Energy:     -7718.920078  Gnorm:      0.000803  CPU:  203.157
  ** Hessian has required structure
  Cycle:     69 Energy:     -7718.920088  Gnorm:      0.000787  CPU:  205.604
  ** Hessian has required structure
  Cycle:     70 Energy:     -7718.920097  Gnorm:      0.000771  CPU:  207.997
  ** Hessian has required structure
  Cycle:     71 Energy:     -7718.920111  Gnorm:      0.000747  CPU:  211.047
  ** Hessian has required structure
  Cycle:     72 Energy:     -7718.920121  Gnorm:      0.000728  CPU:  213.440
  ** Hessian has required structure
  Cycle:     73 Energy:     -7718.920130  Gnorm:      0.000712  CPU:  215.833
  ** Hessian has required structure
  Cycle:     74 Energy:     -7718.920138  Gnorm:      0.000696  CPU:  218.225
  ** Hessian has required structure
  Cycle:     75 Energy:     -7718.920146  Gnorm:      0.000681  CPU:  220.618
  ** Hessian has required structure
  Cycle:     76 Energy:     -7718.920153  Gnorm:      0.000667  CPU:  223.009
  ** Hessian has required structure
  Cycle:     77 Energy:     -7718.920159  Gnorm:      0.000653  CPU:  225.401
  ** Hessian has required structure
  Cycle:     78 Energy:     -7718.920166  Gnorm:      0.000640  CPU:  227.794
  ** Hessian has required structure
  Cycle:     79 Energy:     -7718.920172  Gnorm:      0.000627  CPU:  230.232
  ** Hessian has required structure
  Cycle:     80 Energy:     -7718.920178  Gnorm:      0.000614  CPU:  232.625
  ** Hessian has required structure
  Cycle:     81 Energy:     -7718.920186  Gnorm:      0.000596  CPU:  235.675
  ** Hessian has required structure
  Cycle:     82 Energy:     -7718.920193  Gnorm:      0.000581  CPU:  238.068
  ** Hessian has required structure
  Cycle:     83 Energy:     -7718.920199  Gnorm:      0.000567  CPU:  240.459
  ** Hessian has required structure
  Cycle:     84 Energy:     -7718.920204  Gnorm:      0.000555  CPU:  242.850
  ** Hessian has required structure
  Cycle:     85 Energy:     -7718.920209  Gnorm:      0.000543  CPU:  245.242
  ** Hessian has required structure
  Cycle:     86 Energy:     -7718.920213  Gnorm:      0.000532  CPU:  247.633
  ** Hessian has required structure
  Cycle:     87 Energy:     -7718.920217  Gnorm:      0.000521  CPU:  250.024
  ** Hessian has required structure
  Cycle:     88 Energy:     -7718.920221  Gnorm:      0.000510  CPU:  252.417
  ** Hessian has required structure
  Cycle:     89 Energy:     -7718.920225  Gnorm:      0.000500  CPU:  254.809
  ** Hessian has required structure
  Cycle:     90 Energy:     -7718.920229  Gnorm:      0.000489  CPU:  257.201
  ** Hessian has required structure
  Cycle:     91 Energy:     -7718.920234  Gnorm:      0.000475  CPU:  260.253
  ** Hessian has required structure
  Cycle:     92 Energy:     -7718.920239  Gnorm:      0.000463  CPU:  262.645
  ** Hessian has required structure
  Cycle:     93 Energy:     -7718.920242  Gnorm:      0.000452  CPU:  265.037
  ** Hessian has required structure
  Cycle:     94 Energy:     -7718.920246  Gnorm:      0.000442  CPU:  267.429
  ** Hessian has required structure
  Cycle:     95 Energy:     -7718.920249  Gnorm:      0.000433  CPU:  269.821
  ** Hessian has required structure
  Cycle:     96 Energy:     -7718.920251  Gnorm:      0.000424  CPU:  272.212
  ** Hessian has required structure
  Cycle:     97 Energy:     -7718.920254  Gnorm:      0.000415  CPU:  274.605
  ** Hessian has required structure
  Cycle:     98 Energy:     -7718.920257  Gnorm:      0.000407  CPU:  276.997
  ** Hessian has required structure
  Cycle:     99 Energy:     -7718.920259  Gnorm:      0.000398  CPU:  279.389
  ** Hessian has required structure
  Cycle:    100 Energy:     -7718.920262  Gnorm:      0.000390  CPU:  281.781
  ** Hessian has required structure
  Cycle:    101 Energy:     -7718.920265  Gnorm:      0.000378  CPU:  284.833
  ** Hessian has required structure
  Cycle:    102 Energy:     -7718.920268  Gnorm:      0.000369  CPU:  287.225
  ** Hessian has required structure
  Cycle:    103 Energy:     -7718.920270  Gnorm:      0.000360  CPU:  289.652
  ** Hessian has required structure
  Cycle:    104 Energy:     -7718.920272  Gnorm:      0.000352  CPU:  292.043
  ** Hessian has required structure
  Cycle:    105 Energy:     -7718.920274  Gnorm:      0.000345  CPU:  294.436
  ** Hessian has required structure
  Cycle:    106 Energy:     -7718.920276  Gnorm:      0.000338  CPU:  296.827
  ** Hessian has required structure
  Cycle:    107 Energy:     -7718.920278  Gnorm:      0.000331  CPU:  299.218
  ** Hessian has required structure
  Cycle:    108 Energy:     -7718.920279  Gnorm:      0.000324  CPU:  301.610
  ** Hessian has required structure
  Cycle:    109 Energy:     -7718.920281  Gnorm:      0.000317  CPU:  304.002
  ** Hessian has required structure
  Cycle:    110 Energy:     -7718.920282  Gnorm:      0.000311  CPU:  306.394
  ** Hessian has required structure
  Cycle:    111 Energy:     -7718.920284  Gnorm:      0.000302  CPU:  309.448
  ** Hessian has required structure
  Cycle:    112 Energy:     -7718.920286  Gnorm:      0.000294  CPU:  311.839
  ** Hessian has required structure
  Cycle:    113 Energy:     -7718.920288  Gnorm:      0.000287  CPU:  314.393
  ** Hessian has required structure
  Cycle:    114 Energy:     -7718.920289  Gnorm:      0.000281  CPU:  316.805
  ** Hessian has required structure
  Cycle:    115 Energy:     -7718.920290  Gnorm:      0.000275  CPU:  319.249
  ** Hessian has required structure
  Cycle:    116 Energy:     -7718.920291  Gnorm:      0.000269  CPU:  321.640
  ** Hessian has required structure
  Cycle:    117 Energy:     -7718.920292  Gnorm:      0.000264  CPU:  324.033
  ** Hessian has required structure
  Cycle:    118 Energy:     -7718.920293  Gnorm:      0.000258  CPU:  326.425
  ** Hessian has required structure
  Cycle:    119 Energy:     -7718.920294  Gnorm:      0.000253  CPU:  328.818
  ** Hessian has required structure
  Cycle:    120 Energy:     -7718.920295  Gnorm:      0.000248  CPU:  331.210
  ** Hessian has required structure
  Cycle:    121 Energy:     -7718.920297  Gnorm:      0.000240  CPU:  334.261
  ** Hessian has required structure
  Cycle:    122 Energy:     -7718.920298  Gnorm:      0.000234  CPU:  336.653
  ** Hessian has required structure
  Cycle:    123 Energy:     -7718.920299  Gnorm:      0.000229  CPU:  339.046
  ** Hessian has required structure
  Cycle:    124 Energy:     -7718.920300  Gnorm:      0.000224  CPU:  341.503
  ** Hessian has required structure
  Cycle:    125 Energy:     -7718.920300  Gnorm:      0.000219  CPU:  343.896
  ** Hessian has required structure
  Cycle:    126 Energy:     -7718.920301  Gnorm:      0.000215  CPU:  346.287
  ** Hessian has required structure
  Cycle:    127 Energy:     -7718.920302  Gnorm:      0.000210  CPU:  348.697
  ** Hessian has required structure
  Cycle:    128 Energy:     -7718.920302  Gnorm:      0.000206  CPU:  351.089
  ** Hessian has required structure
  Cycle:    129 Energy:     -7718.920303  Gnorm:      0.000202  CPU:  353.481
  ** Hessian has required structure
  Cycle:    130 Energy:     -7718.920304  Gnorm:      0.000197  CPU:  355.873
  ** Hessian has required structure
  Cycle:    131 Energy:     -7718.920305  Gnorm:      0.000192  CPU:  358.990
  ** Hessian has required structure
  Cycle:    132 Energy:     -7718.920305  Gnorm:      0.000187  CPU:  361.383
  ** Hessian has required structure
  Cycle:    133 Energy:     -7718.920306  Gnorm:      0.000182  CPU:  363.776
  ** Hessian has required structure
  Cycle:    134 Energy:     -7718.920306  Gnorm:      0.000178  CPU:  366.168
  ** Hessian has required structure
  Cycle:    135 Energy:     -7718.920307  Gnorm:      0.000175  CPU:  368.561
  ** Hessian has required structure
  Cycle:    136 Energy:     -7718.920307  Gnorm:      0.000171  CPU:  370.954
  ** Hessian has required structure
  Cycle:    137 Energy:     -7718.920308  Gnorm:      0.000167  CPU:  373.345
  ** Hessian has required structure
  Cycle:    138 Energy:     -7718.920308  Gnorm:      0.000164  CPU:  375.737
  ** Hessian has required structure
  Cycle:    139 Energy:     -7718.920309  Gnorm:      0.000161  CPU:  378.129
  ** Hessian has required structure
  Cycle:    140 Energy:     -7718.920309  Gnorm:      0.000157  CPU:  380.521
  ** Hessian has required structure
  Cycle:    141 Energy:     -7718.920310  Gnorm:      0.000153  CPU:  383.623
  ** Hessian has required structure
  Cycle:    142 Energy:     -7718.920310  Gnorm:      0.000149  CPU:  386.017
  ** Hessian has required structure
  Cycle:    143 Energy:     -7718.920310  Gnorm:      0.000145  CPU:  388.409
  ** Hessian has required structure
  Cycle:    144 Energy:     -7718.920311  Gnorm:      0.000142  CPU:  390.804
  ** Hessian has required structure
  Cycle:    145 Energy:     -7718.920311  Gnorm:      0.000139  CPU:  393.197
  ** Hessian has required structure
  Cycle:    146 Energy:     -7718.920311  Gnorm:      0.000136  CPU:  395.590
  ** Hessian has required structure
  Cycle:    147 Energy:     -7718.920312  Gnorm:      0.000133  CPU:  397.983
  ** Hessian has required structure
  Cycle:    148 Energy:     -7718.920312  Gnorm:      0.000131  CPU:  400.378
  ** Hessian has required structure
  Cycle:    149 Energy:     -7718.920312  Gnorm:      0.000128  CPU:  402.772
  ** Hessian has required structure
  Cycle:    150 Energy:     -7718.920312  Gnorm:      0.000125  CPU:  405.165
  ** Hessian has required structure
  Cycle:    151 Energy:     -7718.920313  Gnorm:      0.000122  CPU:  408.261
  ** Hessian has required structure
  Cycle:    152 Energy:     -7718.920313  Gnorm:      0.000119  CPU:  410.720
  ** Hessian has required structure
  Cycle:    153 Energy:     -7718.920313  Gnorm:      0.000116  CPU:  413.272
  ** Hessian has required structure
  Cycle:    154 Energy:     -7718.920313  Gnorm:      0.000113  CPU:  415.670
  ** Hessian has required structure
  Cycle:    155 Energy:     -7718.920314  Gnorm:      0.000111  CPU:  418.064
  ** Hessian has required structure
  Cycle:    156 Energy:     -7718.920314  Gnorm:      0.000109  CPU:  420.457
  ** Hessian has required structure
  Cycle:    157 Energy:     -7718.920314  Gnorm:      0.000106  CPU:  422.850
  ** Hessian has required structure
  Cycle:    158 Energy:     -7718.920314  Gnorm:      0.000104  CPU:  425.242
  ** Hessian has required structure
  Cycle:    159 Energy:     -7718.920314  Gnorm:      0.000102  CPU:  427.636
  ** Hessian has required structure
  Cycle:    160 Energy:     -7718.920314  Gnorm:      0.000100  CPU:  430.029
  ** Hessian has required structure
  Cycle:    161 Energy:     -7718.920315  Gnorm:      0.000097  CPU:  433.081
  ** Hessian has required structure
  Cycle:    162 Energy:     -7718.920315  Gnorm:      0.000094  CPU:  435.476
  ** Hessian has required structure
  Cycle:    163 Energy:     -7718.920315  Gnorm:      0.000092  CPU:  437.868
  ** Hessian has required structure
  Cycle:    164 Energy:     -7718.920315  Gnorm:      0.000090  CPU:  440.260
  ** Hessian has required structure
  Cycle:    165 Energy:     -7718.920315  Gnorm:      0.000088  CPU:  442.652
  ** Hessian has required structure
  Cycle:    166 Energy:     -7718.920315  Gnorm:      0.000087  CPU:  445.044
  ** Hessian has required structure
  Cycle:    167 Energy:     -7718.920315  Gnorm:      0.000085  CPU:  447.438
  ** Hessian has required structure
  Cycle:    168 Energy:     -7718.920316  Gnorm:      0.000083  CPU:  449.830
  ** Hessian has required structure
  Cycle:    169 Energy:     -7718.920316  Gnorm:      0.000081  CPU:  452.251
  ** Hessian has required structure
  Cycle:    170 Energy:     -7718.920316  Gnorm:      0.000080  CPU:  454.644
  ** Hessian has required structure
  Cycle:    171 Energy:     -7718.920316  Gnorm:      0.000077  CPU:  457.699
  ** Hessian has required structure
  Cycle:    172 Energy:     -7718.920316  Gnorm:      0.000075  CPU:  460.092
  ** Hessian has required structure
  Cycle:    173 Energy:     -7718.920316  Gnorm:      0.000074  CPU:  462.658
  ** Hessian has required structure
  Cycle:    174 Energy:     -7718.920316  Gnorm:      0.000072  CPU:  465.051
  ** Hessian has required structure
  Cycle:    175 Energy:     -7718.920316  Gnorm:      0.000070  CPU:  467.445
  ** Hessian has required structure
  Cycle:    176 Energy:     -7718.920316  Gnorm:      0.000069  CPU:  469.837
  ** Hessian has required structure
  Cycle:    177 Energy:     -7718.920316  Gnorm:      0.000068  CPU:  472.230
  ** Hessian has required structure
  Cycle:    178 Energy:     -7718.920317  Gnorm:      0.000066  CPU:  474.648
  ** Hessian has required structure
  Cycle:    179 Energy:     -7718.920317  Gnorm:      0.000065  CPU:  477.043
  ** Hessian has required structure
  Cycle:    180 Energy:     -7718.920317  Gnorm:      0.000063  CPU:  479.436
  ** Hessian has required structure
  Cycle:    181 Energy:     -7718.920317  Gnorm:      0.000062  CPU:  482.489
  ** Hessian has required structure
  Cycle:    182 Energy:     -7718.920317  Gnorm:      0.000060  CPU:  484.881
  ** Hessian has required structure
  Cycle:    183 Energy:     -7718.920317  Gnorm:      0.000059  CPU:  487.272
  ** Hessian has required structure
  Cycle:    184 Energy:     -7718.920317  Gnorm:      0.000057  CPU:  489.664
  ** Hessian has required structure
  Cycle:    185 Energy:     -7718.920317  Gnorm:      0.000056  CPU:  492.058
  ** Hessian has required structure
  Cycle:    186 Energy:     -7718.920317  Gnorm:      0.000055  CPU:  494.450
  ** Hessian has required structure
  Cycle:    187 Energy:     -7718.920317  Gnorm:      0.000054  CPU:  496.843
  ** Hessian has required structure
  Cycle:    188 Energy:     -7718.920317  Gnorm:      0.000053  CPU:  499.300
  ** Hessian has required structure
  Cycle:    189 Energy:     -7718.920317  Gnorm:      0.000052  CPU:  501.693
  ** Hessian has required structure
  Cycle:    190 Energy:     -7718.920317  Gnorm:      0.000051  CPU:  504.086
  ** Hessian has required structure
  Cycle:    191 Energy:     -7718.920317  Gnorm:      0.000049  CPU:  507.140
  ** Hessian has required structure
  Cycle:    192 Energy:     -7718.920317  Gnorm:      0.000048  CPU:  509.681
  ** Hessian has required structure
  Cycle:    193 Energy:     -7718.920317  Gnorm:      0.000047  CPU:  512.074
  ** Hessian has required structure
  Cycle:    194 Energy:     -7718.920317  Gnorm:      0.000046  CPU:  514.468
  ** Hessian has required structure
  Cycle:    195 Energy:     -7718.920317  Gnorm:      0.000045  CPU:  516.861
  ** Hessian has required structure
  Cycle:    196 Energy:     -7718.920317  Gnorm:      0.000044  CPU:  519.254
  ** Hessian has required structure
  Cycle:    197 Energy:     -7718.920317  Gnorm:      0.000043  CPU:  521.646
  ** Hessian has required structure
  Cycle:    198 Energy:     -7718.920318  Gnorm:      0.000042  CPU:  524.085
  ** Hessian has required structure
  Cycle:    199 Energy:     -7718.920318  Gnorm:      0.000041  CPU:  526.478
  ** Hessian has required structure
  Cycle:    200 Energy:     -7718.920318  Gnorm:      0.000040  CPU:  528.871
  ** Hessian has required structure
  Cycle:    201 Energy:     -7718.920318  Gnorm:      0.000039  CPU:  531.988
  ** Hessian has required structure
  Cycle:    202 Energy:     -7718.920318  Gnorm:      0.000038  CPU:  534.382
  ** Hessian has required structure
  Cycle:    203 Energy:     -7718.920318  Gnorm:      0.000037  CPU:  536.775
  ** Hessian has required structure
  Cycle:    204 Energy:     -7718.920318  Gnorm:      0.000036  CPU:  539.167
  ** Hessian has required structure
  Cycle:    205 Energy:     -7718.920318  Gnorm:      0.000036  CPU:  541.560
  ** Hessian has required structure
  Cycle:    206 Energy:     -7718.920318  Gnorm:      0.000035  CPU:  543.952
  ** Hessian has required structure
  Cycle:    207 Energy:     -7718.920318  Gnorm:      0.000034  CPU:  546.345
  ** Hessian has required structure
  Cycle:    208 Energy:     -7718.920318  Gnorm:      0.000034  CPU:  548.738
  ** Hessian has required structure
  Cycle:    209 Energy:     -7718.920318  Gnorm:      0.000033  CPU:  551.130
  ** Hessian has required structure
  Cycle:    210 Energy:     -7718.920318  Gnorm:      0.000032  CPU:  553.523
  ** Hessian has required structure
  Cycle:    211 Energy:     -7718.920318  Gnorm:      0.000031  CPU:  556.574
  ** Hessian has required structure


  **** Optimisation achieved ****


  Final energy =   -7718.92031782 eV
  Final Gnorm  =       0.00003040

  Components of energy : 

--------------------------------------------------------------------------------
  Interatomic potentials     =        2059.59435247 eV
  Three-body potentials      =           0.43539668 eV
  Monopole - monopole (real) =       -6579.64853315 eV
  Monopole - monopole (recip)=       -3192.84651445 eV
  Monopole - monopole (total)=       -9772.49504760 eV
  Neutralising energy        =          -6.45501936 eV
--------------------------------------------------------------------------------
  Total lattice energy       =       -7718.92031782 eV
--------------------------------------------------------------------------------
  Total lattice energy       =         -744757.8162 kJ/(mole unit cells)
--------------------------------------------------------------------------------

  Final fractional coordinates of atoms :

--------------------------------------------------------------------------------
   No.  Atomic        x           y          z          Radius
        Label       (Frac)      (Frac)     (Frac)       (Angs) 
--------------------------------------------------------------------------------
     1  Ge    c     0.699600    0.375700    0.033890    0.000000
     2  Si    c     0.611207    0.310071    0.367344    0.000000
     3  Si    c     0.663545    0.272865    0.698326    0.000000
     4  Si    c     0.287322    0.602515    0.534325    0.000000
     5  Si    c     0.368177    0.655737    0.866921    0.000000
     6  Si    c     0.315226    0.684570    0.202992    0.000000
     7  Si    c     0.368439    0.687172    0.303742    0.000000
     8  Si    c     0.322745    0.601923    0.967717    0.000000
     9  Si    c     0.283769    0.654512    0.634905    0.000000
    10  Si    c     0.609757    0.275168    0.798671    0.000000
    11  Si    c     0.666880    0.361997    0.467757    0.000000
    12  Si    c     0.687530    0.306356    0.135433    0.000000
    13  Si    c     0.523724    0.392915    0.964209    0.000000
    14  Si    c     0.571146    0.097975    0.303206    0.000000
    15  Si    c     0.873964    0.447363    0.633628    0.000000
    16  Si    c     0.461047    0.565955    0.469783    0.000000
    17  Si    c     0.404919    0.865840    0.801871    0.000000
    18  Si    c     0.109894    0.514965    0.137209    0.000000
    19  Si    c     0.408151    0.515504    0.368259    0.000000
    20  Si    c     0.121314    0.582567    0.034385    0.000000
    21  Si    c     0.456005    0.863020    0.700243    0.000000
    22  Si    c     0.570555    0.447463    0.862614    0.000000
    23  Si    c     0.877061    0.397771    0.532069    0.000000
    24  Si    c     0.518511    0.092494    0.201723    0.000000
    25  Si    c     0.289232    0.377880    0.850895    0.000000
    26  Si    c     0.593573    0.886574    0.188971    0.000000
    27  Si    c     0.086343    0.678850    0.518856    0.000000
    28  Si    c     0.688897    0.588632    0.352945    0.000000
    29  Si    c     0.384864    0.071974    0.685054    0.000000
    30  Si    c     0.905302    0.299322    0.015535    0.000000
    31  Si    c     0.389104    0.284773    0.483348    0.000000
    32  Ge    c     0.895139    0.588356    0.151130    0.000000
    33  Si    c     0.686123    0.074671    0.814885    0.000000
    34  Si    c     0.600893    0.674962    0.980674    0.000000
    35  Si    c     0.082233    0.375722    0.648470    0.000000
    36  Si    c     0.290499    0.887753    0.317188    0.000000
    37  Si    c     0.247126    0.322014    0.951510    0.000000
    38  Si    c     0.649602    0.896864    0.289603    0.000000
    39  Si    c     0.075305    0.726593    0.619391    0.000000
    40  Si    c     0.739398    0.643419    0.453709    0.000000
    41  Si    c     0.328019    0.067168    0.785641    0.000000
    42  Si    c     0.905371    0.236100    0.116747    0.000000
    43  Si    c     0.330534    0.236591    0.382821    0.000000
    44  Ge    c     0.915154    0.654105    0.050704    0.000000
    45  Si    c     0.735198    0.064218    0.714336    0.000000
    46  Si    c     0.649415    0.725912    0.879295    0.000000
    47  Si    c     0.078126    0.320729    0.547888    0.000000
    48  Si    c     0.239212    0.891397    0.216417    0.000000
    49  Ge    c     0.963893    0.108907    0.966278    0.000000
    50  Si    c     0.869527    0.839130    0.303529    0.000000
    51  Si    c     0.137587    0.006393    0.634465    0.000000
    52  Si    c     0.019529    0.860575    0.469001    0.000000
    53  Si    c     0.110722    0.130475    0.800011    0.000000
    54  Si    c     0.838752    0.952620    0.135933    0.000000
    55  Si    c     0.112171    0.957037    0.368325    0.000000
    56  Si    c     0.842633    0.863118    0.034648    0.000000
    57  Si    c     0.015378    0.127468    0.699281    0.000000
    58  Si    c     0.865427    0.004584    0.864331    0.000000
    59  Si    c     0.140946    0.103427    0.533812    0.000000
    60  Si    c     0.959616    0.835453    0.203005    0.000000
    61  O3    c     0.901854    0.995959    0.007839    0.000000
    62  O2    c     0.988987    0.916230    0.337009    0.000000
    63  O2    c     0.057477    0.047529    0.667058    0.000000
    64  O2    c     0.060779    0.980902    0.501929    0.000000
    65  O2    c     0.988737    0.049730    0.832275    0.000000
    66  O2    c     0.923793    0.919885    0.169572    0.000000
    67  O2    c     0.330259    0.564297    0.336532    0.000000
    68  O2    c     0.405577    0.737095    0.668166    0.000000
    69  O2    c     0.248730    0.646767    0.002891    0.000000
    70  O2    c     0.647577    0.400542    0.829749    0.000000
    71  O2    c     0.567975    0.215261    0.168370    0.000000
    72  O2    c     0.752017    0.322312    0.499597    0.000000
    73  O3    c     0.569523    0.317667    0.996330    0.000000
    74  O2    c     0.746994    0.395861    0.665403    0.000000
    75  O2    c     0.648478    0.224886    0.334604    0.000000
    76  O2    c     0.412037    0.641839    0.502357    0.000000
    77  O2    c     0.234430    0.560799    0.170015    0.000000
    78  O2    c     0.329131    0.741581    0.835009    0.000000
    79  O3    c     0.128141    0.194569    0.972666    0.000000
    80  O2    c     0.776145    0.899234    0.310256    0.000000
    81  O2    c     0.073374    0.851911    0.639257    0.000000
    82  O2    c     0.865334    0.769244    0.473934    0.000000
    83  O2    c     0.202523    0.068375    0.805755    0.000000
    84  O2    c     0.900154    0.108119    0.136635    0.000000
    85  O2    c     0.204064    0.111071    0.362739    0.000000
    86  O3    c     0.925024    0.795938    0.027223    0.000000
    87  O2    c     0.860953    0.062763    0.694527    0.000000
    88  O2    c     0.773134    0.851022    0.857343    0.000000
    89  O2    c     0.078533    0.194857    0.527849    0.000000
    90  O2    c     0.113615    0.890453    0.195872    0.000000
    91  O2    c     0.927169    0.861658    0.253446    0.000000
    92  O2    c     0.126904    0.050407    0.584368    0.000000
    93  O3    c     0.915027    0.033938    0.915075    0.000000
    94  O2    c     0.058317    0.116982    0.749523    0.000000
    95  O2    c     0.839942    0.900147    0.086900    0.000000
    96  O2    c     0.061358    0.916884    0.418996    0.000000
    97  O3    c     0.910994    0.217737    0.973883    0.000000
    98  O2    c     0.786961    0.686167    0.314493    0.000000
    99  O2    c     0.288621    0.073757    0.646740    0.000000
   100  O2    c     0.088746    0.778031    0.480652    0.000000
   101  O2    c     0.190664    0.281749    0.812565    0.000000
   102  O2    c     0.689559    0.884817    0.150831    0.000000
   103  O2    c     0.192204    0.886270    0.355362    0.000000
   104  O2    c     0.693563    0.767483    0.020127    0.000000
   105  O2    c     0.083219    0.278599    0.686751    0.000000
   106  O2    c     0.784758    0.076675    0.853249    0.000000
   107  O2    c     0.292605    0.185479    0.521677    0.000000
   108  O3    c     0.887720    0.685200    0.194861    0.000000
   109  O2    c     0.313770    0.628363    0.253508    0.000000
   110  O2    c     0.342875    0.657542    0.584779    0.000000
   111  O2    c     0.313991    0.656116    0.917690    0.000000
   112  O2    c     0.666018    0.331438    0.748332    0.000000
   113  O3    c     0.630729    0.314448    0.087038    0.000000
   114  O2    c     0.667934    0.307396    0.417292    0.000000
   115  O2    c     0.368057    0.307913    0.967140    0.000000
   116  O2    c     0.659031    0.029902    0.306566    0.000000
   117  O2    c     0.942336    0.603490    0.637227    0.000000
   118  O2    c     0.617285    0.653135    0.472480    0.000000
   119  O2    c     0.317698    0.934895    0.804526    0.000000
   120  O2    c     0.033548    0.358142    0.137366    0.000000
   121  O2    c     0.320544    0.359376    0.364929    0.000000
   122  O3    c     0.065113    0.678056    0.032644    0.000000
   123  O2    c     0.612167    0.931257    0.696827    0.000000
   124  O2    c     0.656249    0.603683    0.859388    0.000000
   125  O2    c     0.946244    0.310752    0.529089    0.000000
   126  O2    c     0.362619    0.022681    0.197548    0.000000
   127  O3    c     0.769138    0.289793    0.012662    0.000000
   128  O2    c     0.686968    0.453749    0.345007    0.000000
   129  O2    c     0.519673    0.204593    0.676680    0.000000
   130  O2    c     0.220245    0.678461    0.511764    0.000000
   131  O2    c     0.292488    0.513700    0.843642    0.000000
   132  O2    c     0.458817    0.753888    0.180939    0.000000
   133  O2    c     0.291467    0.754337    0.325140    0.000000
   134  O2    c     0.467439    0.676029    0.987957    0.000000
   135  O2    c     0.215079    0.510239    0.656608    0.000000
   136  O2    c     0.685650    0.208666    0.821842    0.000000
   137  O2    c     0.523734    0.285867    0.490348    0.000000
   138  O3    c     0.754102    0.443250    0.160494    0.000000
   139  O1    c     0.778603    0.538264    0.023638    0.000000
   140  O2    c     0.455270    0.235770    0.362661    0.000000
   141  O2    c     0.736625    0.189958    0.693810    0.000000
   142  O2    c     0.205315    0.446634    0.528938    0.000000
   143  O2    c     0.523886    0.729912    0.862018    0.000000
   144  O2    c     0.238851    0.764309    0.197721    0.000000
   145  O2    c     0.523984    0.771046    0.309388    0.000000
   146  O2    c     0.244843    0.445577    0.972922    0.000000
   147  O2    c     0.201153    0.727863    0.639486    0.000000
   148  O2    c     0.453961    0.193630    0.804473    0.000000
   149  O2    c     0.740712    0.517875    0.472955    0.000000
   150  O2    c     0.779919    0.242824    0.131671    0.000000
   151  O2    c     0.217188    0.304151    0.897390    0.000000
   152  O2    c     0.666956    0.890952    0.235493    0.000000
   153  O2    c     0.079642    0.747481    0.565170    0.000000
   154  O2    c     0.758754    0.661789    0.399426    0.000000
   155  O2    c     0.310601    0.068277    0.731384    0.000000
   156  O2    c     0.918176    0.233669    0.062364    0.000000
   157  O2    c     0.313900    0.215879    0.437072    0.000000
   158  O1    c     0.905291    0.686862    0.107227    0.000000
   159  O2    c     0.755510    0.068534    0.768593    0.000000
   160  O2    c     0.672829    0.744005    0.933488    0.000000
   161  O2    c     0.078599    0.302031    0.602122    0.000000
   162  O2    c     0.220787    0.891391    0.270701    0.000000
   163  O2    c     0.582697    0.533815    0.988088    0.000000
   164  O2    c     0.429714    0.013210    0.326117    0.000000
   165  O2    c     0.956669    0.389276    0.657046    0.000000
   166  O2    c     0.403856    0.424188    0.492607    0.000000
   167  O2    c     0.546501    0.950288    0.824476    0.000000
   168  O3    c     0.027441    0.569799    0.160636    0.000000
   169  O2    c     0.549079    0.573989    0.344670    0.000000
   170  O2    c     0.020403    0.446608    0.011217    0.000000
   171  O2    c     0.398412    0.946273    0.676880    0.000000
   172  O2    c     0.427164    0.389005    0.841386    0.000000
   173  O2    c     0.961728    0.539593    0.509321    0.000000
   174  O2    c     0.581911    0.013093    0.179663    0.000000
   175  O2    c     0.570130    0.149135    0.252169    0.000000
   176  O2    c     0.822533    0.396098    0.582703    0.000000
   177  O2    c     0.575678    0.395653    0.912955    0.000000
   178  O2    c     0.403939    0.811318    0.751299    0.000000
   179  O2    c     0.160097    0.568147    0.086207    0.000000
   180  O2    c     0.408166    0.567252    0.419147    0.000000
   181  F     c     0.441868    0.887846    0.252384    0.000000
   182  F     c     0.083657    0.527229    0.583692    0.000000
   183  F     c     0.439641    0.523526    0.915285    0.000000
   184  F     c     0.535883    0.073153    0.750067    0.000000
   185  F     c     0.889182    0.476820    0.083097    0.000000
   186  F     c     0.538571    0.436299    0.418067    0.000000
   187  O3    s     0.901239    0.992183    0.006865    0.000000
   188  O2    s     0.989508    0.912197    0.336792    0.000000
   189  O2    s     0.061719    0.051872    0.667019    0.000000
   190  O2    s     0.065158    0.981168    0.501817    0.000000
   191  O2    s     0.988719    0.053794    0.832210    0.000000
   192  O2    s     0.918277    0.914534    0.169434    0.000000
   193  O2    s     0.342213    0.571989    0.336394    0.000000
   194  O2    s     0.398259    0.741590    0.668044    0.000000
   195  O2    s     0.242839    0.635352    0.002596    0.000000
   196  O2    s     0.635719    0.392422    0.829921    0.000000
   197  O2    s     0.575206    0.211710    0.168446    0.000000
   198  O2    s     0.756158    0.334165    0.499663    0.000000
   199  O3    s     0.574412    0.329731    0.995818    0.000000
   200  O2    s     0.751498    0.388479    0.665529    0.000000
   201  O2    s     0.636641    0.220498    0.334722    0.000000
   202  O2    s     0.404280    0.629997    0.502297    0.000000
   203  O2    s     0.229962    0.568542    0.170015    0.000000
   204  O2    s     0.340909    0.745597    0.834872    0.000000
   205  O3    s     0.126137    0.199925    0.970067    0.000000
   206  O2    s     0.772821    0.892666    0.307435    0.000000
   207  O2    s     0.080385    0.855368    0.636724    0.000000
   208  O2    s     0.868690    0.765928    0.471342    0.000000
   209  O2    s     0.205794    0.074815    0.803094    0.000000
   210  O2    s     0.894384    0.105838    0.134443    0.000000
   211  O2    s     0.207402    0.107709    0.365386    0.000000
   212  O3    s     0.915624    0.793537    0.029569    0.000000
   213  O2    s     0.864346    0.069762    0.697047    0.000000
   214  O2    s     0.770052    0.854255    0.860321    0.000000
   215  O2    s     0.085112    0.198181    0.530526    0.000000
   216  O2    s     0.111374    0.885053    0.198703    0.000000
   217  O2    s     0.924170    0.856294    0.253658    0.000000
   218  O2    s     0.129703    0.051415    0.584322    0.000000
   219  O3    s     0.914058    0.037405    0.914166    0.000000
   220  O2    s     0.059399    0.119699    0.749563    0.000000
   221  O2    s     0.840094    0.902361    0.087057    0.000000
   222  O2    s     0.062374    0.915035    0.418925    0.000000
   223  O3    s     0.914698    0.217169    0.977410    0.000000
   224  O2    s     0.785618    0.692211    0.317245    0.000000
   225  O2    s     0.282402    0.066376    0.649373    0.000000
   226  O2    s     0.081155    0.776644    0.483323    0.000000
   227  O2    s     0.192195    0.275476    0.815126    0.000000
   228  O2    s     0.695471    0.892288    0.153263    0.000000
   229  O2    s     0.193809    0.893963    0.352806    0.000000
   230  O2    s     0.698854    0.767334    0.017400    0.000000
   231  O2    s     0.075857    0.272427    0.684151    0.000000
   232  O2    s     0.783218    0.069016    0.850554    0.000000
   233  O2    s     0.286383    0.186915    0.519054    0.000000
   234  O3    s     0.895768    0.694072    0.192638    0.000000
   235  O2    s     0.319455    0.640081    0.253426    0.000000
   236  O2    s     0.331178    0.651624    0.584740    0.000000
   237  O2    s     0.320323    0.650593    0.917578    0.000000
   238  O2    s     0.659974    0.319605    0.748380    0.000000
   239  O3    s     0.641487    0.318400    0.087739    0.000000
   240  O2    s     0.662015    0.313266    0.417343    0.000000
   241  O2    s     0.371263    0.318425    0.965096    0.000000
   242  O2    s     0.648983    0.022947    0.304427    0.000000
   243  O2    s     0.949204    0.600312    0.634985    0.000000
   244  O2    s     0.613974    0.643154    0.470232    0.000000
   245  O2    s     0.327700    0.941592    0.802279    0.000000
   246  O2    s     0.028012    0.361430    0.135200    0.000000
   247  O2    s     0.330616    0.362570    0.367158    0.000000
   248  O3    s     0.059607    0.666597    0.034197    0.000000
   249  O2    s     0.609006    0.938148    0.699017    0.000000
   250  O2    s     0.646655    0.600437    0.861831    0.000000
   251  O2    s     0.952904    0.320726    0.531365    0.000000
   252  O2    s     0.365865    0.016205    0.199954    0.000000
   253  O3    s     0.778053    0.297607    0.014692    0.000000
   254  O2    s     0.679412    0.453135    0.348155    0.000000
   255  O2    s     0.520285    0.197635    0.679827    0.000000
   256  O2    s     0.213062    0.670707    0.514856    0.000000
   257  O2    s     0.299880    0.513964    0.846813    0.000000
   258  O2    s     0.458159    0.760712    0.184102    0.000000
   259  O2    s     0.299297    0.761424    0.322063    0.000000
   260  O2    s     0.466156    0.668077    0.985000    0.000000
   261  O2    s     0.208150    0.510928    0.653479    0.000000
   262  O2    s     0.677963    0.201423    0.818724    0.000000
   263  O2    s     0.524269    0.293564    0.487263    0.000000
   264  O3    s     0.758772    0.441353    0.157249    0.000000
   265  O1    s     0.782883    0.534295    0.026471    0.000000
   266  O2    s     0.458032    0.243705    0.365304    0.000000
   267  O2    s     0.728767    0.184901    0.696469    0.000000
   268  O2    s     0.199988    0.449231    0.531521    0.000000
   269  O2    s     0.521124    0.721580    0.864395    0.000000
   270  O2    s     0.246847    0.769658    0.200218    0.000000
   271  O2    s     0.521366    0.776038    0.306684    0.000000
   272  O2    s     0.253085    0.448742    0.970181    0.000000
   273  O2    s     0.196062    0.719991    0.636865    0.000000
   274  O2    s     0.456489    0.188271    0.801856    0.000000
   275  O2    s     0.732774    0.515198    0.470360    0.000000
   276  O2    s     0.784368    0.248628    0.130405    0.000000
   277  O2    s     0.227545    0.313558    0.898096    0.000000
   278  O2    s     0.657369    0.891093    0.236325    0.000000
   279  O2    s     0.079881    0.738063    0.566073    0.000000
   280  O2    s     0.749393    0.652188    0.400301    0.000000
   281  O2    s     0.320239    0.068538    0.732284    0.000000
   282  O2    s     0.915641    0.240413    0.063438    0.000000
   283  O2    s     0.323550    0.225305    0.436175    0.000000
   284  O1    s     0.905183    0.676855    0.106473    0.000000
   285  O2    s     0.746092    0.068717    0.767707    0.000000
   286  O2    s     0.663057    0.735086    0.932670    0.000000
   287  O2    s     0.078924    0.311760    0.601237    0.000000
   288  O2    s     0.230073    0.891015    0.269845    0.000000
   289  O2    s     0.578516    0.534896    0.984868    0.000000
   290  O2    s     0.429557    0.008431    0.322759    0.000000
   291  O2    s     0.961752    0.394051    0.653673    0.000000
   292  O2    s     0.408407    0.423968    0.489226    0.000000
   293  O2    s     0.546787    0.955073    0.821078    0.000000
   294  O3    s     0.025021    0.565569    0.157456    0.000000
   295  O2    s     0.549438    0.569310    0.348009    0.000000
   296  O2    s     0.018482    0.445080    0.014123    0.000000
   297  O2    s     0.403138    0.951322    0.680209    0.000000
   298  O2    s     0.427352    0.394078    0.844629    0.000000
   299  O2    s     0.966480    0.539771    0.512730    0.000000
   300  O2    s     0.576445    0.007648    0.182981    0.000000
   301  O2    s     0.564872    0.137953    0.252229    0.000000
   302  O2    s     0.833558    0.401614    0.582743    0.000000
   303  O2    s     0.569836    0.400817    0.912923    0.000000
   304  O2    s     0.409430    0.822292    0.751236    0.000000
   305  O2    s     0.150993    0.564112    0.086230    0.000000
   306  O2    s     0.413655    0.561738    0.419112    0.000000
   307  F     s     0.441746    0.887546    0.252321    0.000000
   308  F     s     0.084010    0.527417    0.583691    0.000000
   309  F     s     0.438895    0.523389    0.915273    0.000000
[...]
     58 Si    c       0.000279      0.000112     -0.001275      0.000000
     59 Si    c      -0.000484     -0.000050     -0.000545      0.000000
     60 Si    c       0.000251     -0.000391      0.000965      0.000000
     61 O3    c      -0.000165      0.000985     -0.002148      0.000000
     62 O2    c      -0.000037      0.000181     -0.000672      0.000000
     63 O2    c      -0.000195     -0.000171     -0.000483      0.000000
     64 O2    c      -0.000237     -0.000033     -0.000744      0.000000
     65 O2    c      -0.000090     -0.000179     -0.000414      0.000000
     66 O2    c       0.000115      0.000357     -0.000219      0.000000
     67 O2    c      -0.000832     -0.000049     -0.001063      0.000000
     68 O2    c       0.000980     -0.000799     -0.001151      0.000000
     69 O2    c       0.000015      0.000816     -0.001009      0.000000
     70 O2    c       0.000756      0.000210      0.000580      0.000000
     71 O2    c      -0.000689      0.000819     -0.000308      0.000000
     72 O2    c       0.000182     -0.000937      0.000780      0.000000
     73 O3    c       0.000594     -0.001356     -0.003647      0.000000
     74 O2    c      -0.000834      0.001015      0.000664      0.000000
     75 O2    c       0.000921     -0.000100      0.000877      0.000000
     76 O2    c       0.000161      0.000770     -0.001085      0.000000
     77 O2    c       0.000850     -0.000988     -0.000970      0.000000
     78 O2    c      -0.000942      0.000284     -0.001334      0.000000
     79 O3    c       0.000326     -0.000343      0.003294      0.000000
     80 O2    c       0.000518     -0.000142     -0.000925      0.000000
     81 O2    c      -0.000454      0.000301     -0.000923      0.000000
     82 O2    c      -0.000370      0.000197     -0.000655      0.000000
     83 O2    c      -0.000485      0.000155     -0.000528      0.000000
     84 O2    c       0.000555     -0.000298     -0.000476      0.000000
     85 O2    c      -0.000185      0.000323      0.000448      0.000000
     86 O3    c       0.000249     -0.000221     -0.002664      0.000000
     87 O2    c       0.000243     -0.000411      0.000679      0.000000
     88 O2    c       0.000116     -0.000330      0.000503      0.000000
     89 O2    c       0.000093     -0.000510      0.000372      0.000000
     90 O2    c      -0.000274      0.000526      0.000669      0.000000
     91 O2    c      -0.000031      0.000169     -0.000363      0.000000
     92 O2    c      -0.000109      0.000082     -0.000653      0.000000
     93 O3    c       0.000239     -0.000189      0.002245      0.000000
     94 O2    c       0.000073      0.000002     -0.000613      0.000000
     95 O2    c       0.000074     -0.000057     -0.000495      0.000000
     96 O2    c      -0.000110      0.000144     -0.000663      0.000000
     97 O3    c      -0.000335     -0.000168      0.004520      0.000000
     98 O2    c       0.000352     -0.000611     -0.000173      0.000000
     99 O2    c      -0.000320      0.000687     -0.000163      0.000000
    100 O2    c      -0.000101      0.000491     -0.001062      0.000000
    101 O2    c      -0.000408      0.000637     -0.000627      0.000000
    102 O2    c       0.000373     -0.000617     -0.000773      0.000000
    103 O2    c      -0.000352      0.000011     -0.000399      0.000000
    104 O2    c      -0.000997      0.000442     -0.001319      0.000000
    105 O2    c       0.000637     -0.000278     -0.000197      0.000000
    106 O2    c       0.000454     -0.000073      0.000425      0.000000
    107 O2    c       0.000576     -0.000334      0.000092      0.000000
    108 O3    c      -0.000413      0.000954      0.004318      0.000000
    109 O2    c      -0.000048     -0.000125     -0.001238      0.000000
    110 O2    c       0.000168      0.000050     -0.001135      0.000000
    111 O2    c      -0.000173      0.000283     -0.001138      0.000000
    112 O2    c       0.000016      0.000219      0.000696      0.000000
    113 O3    c       0.000018     -0.000453      0.005094      0.000000
    114 O2    c       0.000086     -0.000073      0.000912      0.000000
    115 O2    c       0.000149     -0.000535      0.000044      0.000000
    116 O2    c      -0.000119      0.000689     -0.000451      0.000000
    117 O2    c      -0.000289      0.000279     -0.000653      0.000000
    118 O2    c      -0.000138      0.000596     -0.000788      0.000000
    119 O2    c       0.000168     -0.000658     -0.000622      0.000000
    120 O2    c       0.000317     -0.000233     -0.000623      0.000000
    121 O2    c      -0.000596      0.000146      0.000329      0.000000
    122 O3    c       0.000369     -0.000280     -0.004012      0.000000
    123 O2    c       0.000210     -0.000223      0.000500      0.000000
    124 O2    c       0.000609     -0.000176      0.000646      0.000000
    125 O2    c      -0.000652      0.000141      0.000731      0.000000
    126 O2    c      -0.000224      0.000310      0.000307      0.000000
    127 O3    c       0.000710     -0.000554     -0.002200      0.000000
    128 O2    c       0.000113     -0.000003      0.000870      0.000000
    129 O2    c      -0.000294      0.000639      0.000627      0.000000
    130 O2    c      -0.000336      0.000525      0.000497      0.000000
    131 O2    c      -0.000103      0.000049     -0.000093      0.000000
    132 O2    c       0.000288     -0.000536      0.000003      0.000000
    133 O2    c      -0.000492      0.000325     -0.000967      0.000000
    134 O2    c       0.000021      0.000181     -0.000486      0.000000
    135 O2    c       0.000640     -0.000244     -0.000817      0.000000
    136 O2    c       0.000519     -0.000287     -0.000436      0.000000
    137 O2    c      -0.000037     -0.000085     -0.000565      0.000000
    138 O3    c      -0.000599      0.000461     -0.002383      0.000000
    139 O1    c      -0.000823      0.000479     -0.005930      0.000000
    140 O2    c       0.000001     -0.000345      0.000645      0.000000
    141 O2    c      -0.000246      0.000531      0.000638      0.000000
    142 O2    c       0.000024     -0.000253      0.000553      0.000000
    143 O2    c      -0.000006      0.000386      0.000103      0.000000
    144 O2    c       0.000242     -0.000440      0.000253      0.000000
    145 O2    c       0.000261     -0.000040     -0.000799      0.000000
    146 O2    c      -0.000486      0.000310      0.000225      0.000000
    147 O2    c       0.000465     -0.000182     -0.000817      0.000000
    148 O2    c      -0.000229      0.000092     -0.000404      0.000000
    149 O2    c       0.000333     -0.000017     -0.000508      0.000000
    150 O2    c      -0.000467      0.000292     -0.000245      0.000000
    151 O2    c      -0.000091      0.000112     -0.001503      0.000000
    152 O2    c       0.000250     -0.000111     -0.000424      0.000000
    153 O2    c      -0.000028      0.000118     -0.000723      0.000000
    154 O2    c       0.000107     -0.000073     -0.000466      0.000000
    155 O2    c      -0.000178      0.000179     -0.000810      0.000000
    156 O2    c      -0.000142     -0.000128     -0.001430      0.000000
    157 O2    c       0.000044     -0.000102      0.000508      0.000000
    158 O1    c       0.000021     -0.000322     -0.006302      0.000000
    159 O2    c       0.000095      0.000021      0.000636      0.000000
    160 O2    c      -0.000035      0.000172      0.000597      0.000000
    161 O2    c       0.000127     -0.000147      0.000175      0.000000
    162 O2    c      -0.000132      0.000072      0.000197      0.000000
    163 O2    c       0.000013      0.000006     -0.000342      0.000000
    164 O2    c      -0.000077      0.000362     -0.000394      0.000000
    165 O2    c       0.000408     -0.000347     -0.000416      0.000000
    166 O2    c       0.000095      0.000077     -0.000850      0.000000
    167 O2    c       0.000093     -0.000304     -0.000965      0.000000
    168 O3    c      -0.000613      0.000318      0.000817      0.000000
    169 O2    c      -0.000005     -0.000150      0.000265      0.000000
    170 O2    c       0.000324     -0.000422     -0.000135      0.000000
    171 O2    c      -0.000387      0.000452      0.000357      0.000000
    172 O2    c       0.000037      0.000132      0.000380      0.000000
    173 O2    c      -0.000381      0.000106      0.000877      0.000000
    174 O2    c       0.000441     -0.000361      0.000314      0.000000
    175 O2    c       0.000094      0.000161      0.000821      0.000000
    176 O2    c      -0.000144      0.000019      0.001176      0.000000
    177 O2    c       0.000094     -0.000003      0.000520      0.000000
    178 O2    c       0.000007     -0.000085     -0.001111      0.000000
    179 O2    c       0.000122     -0.000000     -0.001429      0.000000
    180 O2    c      -0.000065      0.000025     -0.001294      0.000000
    181 F     c       0.000024      0.000062     -0.000016      0.000000
    182 F     c      -0.000031      0.000035      0.000048      0.000000
    183 F     c       0.000122      0.000039      0.000001      0.000000
    184 F     c      -0.000002      0.000003     -0.000027      0.000000
    185 F     c       0.000225     -0.000542      0.000449      0.000000
    186 F     c      -0.000037      0.000030     -0.000005      0.000000
    187 O3    s       0.000148      0.000086      0.002394      0.000000
    188 O2    s      -0.000092     -0.000042      0.000914      0.000000
    189 O2    s       0.000087      0.000094      0.000335      0.000000
    190 O2    s       0.000041     -0.000060      0.000626      0.000000
    191 O2    s      -0.000079      0.000110      0.000690      0.000000
    192 O2    s       0.000037     -0.000237     -0.000016      0.000000
    193 O2    s      -0.000533      0.000117      0.000996      0.000000
    194 O2    s       0.000058     -0.000174      0.001288      0.000000
    195 O2    s       0.000091      0.000344      0.001123      0.000000
    196 O2    s       0.000441      0.000073     -0.000765      0.000000
    197 O2    s      -0.000067      0.000229      0.000328      0.000000
    198 O2    s      -0.000085     -0.000328     -0.000811      0.000000
    199 O3    s      -0.000889     -0.000041      0.004520      0.000000
    200 O2    s      -0.000226      0.000121     -0.000866      0.000000
    201 O2    s       0.000371      0.000216     -0.000957      0.000000
    202 O2    s       0.000037      0.000375      0.001013      0.000000
    203 O2    s      -0.000007      0.000023      0.000534      0.000000
    204 O2    s      -0.000421     -0.000006      0.001443      0.000000
    205 O3    s       0.000396      0.000038     -0.005395      0.000000
    206 O2    s      -0.000191      0.000462      0.000413      0.000000
    207 O2    s      -0.000243     -0.000228      0.000265      0.000000
    208 O2    s      -0.000439      0.000390     -0.000094      0.000000
    209 O2    s       0.000105     -0.000404     -0.000133      0.000000
    210 O2    s       0.000160      0.000376     -0.000026      0.000000
    211 O2    s      -0.000349      0.000381      0.000413      0.000000
    212 O3    s       0.000293      0.000248      0.004831      0.000000
    213 O2    s      -0.000276     -0.000167     -0.000063      0.000000
    214 O2    s       0.000371     -0.000213      0.000463      0.000000
    215 O2    s      -0.000480      0.000155      0.000174      0.000000
    216 O2    s       0.000315      0.000244     -0.000275      0.000000
    217 O2    s      -0.000044      0.000577      0.000460      0.000000
    218 O2    s      -0.000362      0.000018      0.000120      0.000000
    219 O3    s       0.000580     -0.000228     -0.002771      0.000000
    220 O2    s       0.000118     -0.000288      0.000544      0.000000
    221 O2    s       0.000301     -0.000110      0.000455      0.000000
    222 O2    s      -0.000270      0.000319      0.000304      0.000000
    223 O3    s      -0.000669      0.000660     -0.005182      0.000000
    224 O2    s       0.000294     -0.000489     -0.000329      0.000000
    225 O2    s       0.000546      0.000262     -0.000892      0.000000
    226 O2    s       0.000639     -0.000281      0.000078      0.000000
    227 O2    s      -0.000339      0.000501      0.000150      0.000000
    228 O2    s      -0.000434     -0.000175      0.000013      0.000000
    229 O2    s       0.000333     -0.000704      0.001632      0.000000
    230 O2    s      -0.000463      0.000266      0.002321      0.000000
    231 O2    s       0.000218      0.000647      0.001189      0.000000
    232 O2    s      -0.000265      0.000732      0.000752      0.000000
    233 O2    s       0.000470     -0.000266      0.000421      0.000000
    234 O3    s      -0.000480     -0.000996     -0.004379      0.000000
    235 O2    s       0.000060     -0.000362      0.000510      0.000000
    236 O2    s       0.000496     -0.000140      0.001001      0.000000
    237 O2    s      -0.000627      0.000609      0.000629      0.000000
    238 O2    s      -0.000122      0.000475     -0.000866      0.000000
    239 O3    s      -0.000532      0.000486     -0.003710      0.000000
    240 O2    s       0.000672     -0.000604     -0.000749      0.000000
    241 O2    s      -0.000400     -0.000144     -0.001443      0.000000
    242 O2    s       0.000650     -0.000146     -0.000566      0.000000
    243 O2    s      -0.000695      0.000607     -0.000327      0.000000
    244 O2    s       0.000117      0.000339     -0.000209      0.000000
    245 O2    s      -0.000697      0.000239     -0.000410      0.000000
    246 O2    s       0.000673     -0.000421     -0.000433      0.000000
    247 O2    s      -0.000348     -0.000145      0.000724      0.000000
    248 O3    s       0.000189      0.000459      0.006484      0.000000
    249 O2    s       0.000576     -0.000634      0.000459      0.000000
    250 O2    s       0.000252      0.000319      0.000249      0.000000
    251 O2    s       0.000119     -0.000590      0.000110      0.000000
    252 O2    s      -0.000483      0.000717      0.000854      0.000000
    253 O3    s      -0.000994     -0.000548      0.003402      0.000000
    254 O2    s       0.000916     -0.000520     -0.000386      0.000000
    255 O2    s      -0.000119      0.000525     -0.000242      0.000000
    256 O2    s       0.000706     -0.000050      0.000282      0.000000
    257 O2    s      -0.000936      0.000493      0.001157      0.000000
    258 O2    s       0.000129     -0.000367      0.000650      0.000000
    259 O2    s       0.000088     -0.000757      0.000205      0.000000
    260 O2    s      -0.000582      0.001008     -0.000266      0.000000
    261 O2    s       0.000483     -0.000037      0.000442      0.000000
    262 O2    s      -0.000056      0.000744     -0.000504      0.000000
    263 O2    s       0.000466     -0.000859     -0.000089      0.000000
    264 O3    s      -0.000237     -0.000026      0.001732      0.000000
    265 O1    s       0.000634     -0.000510      0.009921      0.000000
    266 O2    s      -0.000170     -0.000226      0.000175      0.000000
    267 O2    s       0.000629     -0.000127      0.000060      0.000000
    268 O2    s       0.000676     -0.000423      0.000366      0.000000
    269 O2    s       0.000029      0.000408      0.000955      0.000000
    270 O2    s      -0.000571      0.000172      0.000354      0.000000
    271 O2    s       0.000421     -0.000614     -0.000198      0.000000
    272 O2    s      -0.000325     -0.000256     -0.001780      0.000000
    273 O2    s      -0.000150      0.000647      0.000181      0.000000
    274 O2    s      -0.000455      0.000664     -0.000781      0.000000
    275 O2    s       0.000233      0.000201     -0.000452      0.000000
    276 O2    s       0.000219     -0.000478     -0.000428      0.000000
    277 O2    s      -0.000480     -0.000334      0.001590      0.000000
    278 O2    s       0.000507     -0.000187      0.000139      0.000000
    279 O2    s      -0.000434      0.000729      0.000507      0.000000
    280 O2    s       0.000233      0.000433      0.000239      0.000000
    281 O2    s      -0.000526      0.000302      0.000507      0.000000
    282 O2    s       0.000217     -0.000548      0.001505      0.000000
    283 O2    s      -0.000468     -0.000212     -0.000586      0.000000
    284 O1    s      -0.000591      0.001374      0.005877      0.000000
    285 O2    s       0.000666     -0.000313     -0.000520      0.000000
    286 O2    s       0.000314      0.000405     -0.000882      0.000000
    287 O2    s       0.000279     -0.000498     -0.000122      0.000000
    288 O2    s      -0.000593      0.000416     -0.000507      0.000000
    289 O2    s       0.000473     -0.000190     -0.000134      0.000000
    290 O2    s      -0.000071      0.000463     -0.000315      0.000000
    291 O2    s      -0.000725      0.000224     -0.000240      0.000000
    292 O2    s      -0.000932      0.000453      0.000351      0.000000
    293 O2    s       0.000064     -0.000416      0.000507      0.000000
    294 O3    s       0.000905     -0.000138     -0.001997      0.000000
    295 O2    s      -0.000416      0.000894      0.000298      0.000000
    296 O2    s       0.000205      0.000130      0.000962      0.000000
    297 O2    s       0.000153     -0.000674      0.000235      0.000000
    298 O2    s       0.000268     -0.000784      0.000101      0.000000
    299 O2    s      -0.000500      0.000093     -0.000429      0.000000
    300 O2    s      -0.000095      0.000794      0.000503      0.000000
    301 O2    s      -0.000109      0.000519     -0.000822      0.000000
    302 O2    s      -0.000513      0.000180     -0.000839      0.000000
    303 O2    s       0.000424     -0.000372     -0.001096      0.000000
    304 O2    s       0.000108     -0.000415      0.000561      0.000000
    305 O2    s      -0.000021      0.000210      0.001507      0.000000
    306 O2    s      -0.000697      0.000641      0.000849      0.000000
    307 F     s       0.000060      0.000086     -0.000139      0.000000
    308 F     s      -0.000052     -0.000002     -0.000056      0.000000
    309 F     s      -0.000093      0.000098     -0.000117      0.000000
    310 F     s      -0.000050      0.000011     -0.000058      0.000000
    311 F     s      -0.000443      0.000132     -0.000955      0.000000
    312 F     s      -0.000066      0.000054     -0.000067      0.000000
--------------------------------------------------------------------------------
  Maximum abs         0.001069      0.001374      0.009921      0.000000
--------------------------------------------------------------------------------


  Time to end of optimisation =     558.9695 seconds


  Peak dynamic memory used =      19.13 MB 


  Timing analysis for GULP :

--------------------------------------------------------------------------------
  Task / Subroutine                                          Time (Seconds)
--------------------------------------------------------------------------------
  Calculation of reciprocal space energy and derivatives         10.1189
  Calculation of real space energy and derivatives              297.9465
  Calculation of three-body energy and derivatives               33.4398
  Global summation overhead                                       0.0002
--------------------------------------------------------------------------------
  Total CPU time                                                558.9695
--------------------------------------------------------------------------------


  Dump file written as out.res                                                 
  CIF file written as out.cif                                                 


  Job Finished at 08:27.52  6th December   2016                               

