********************************************************************************
*                       GENERAL UTILITY LATTICE PROGRAM                        *
*                                 Julian Gale                                  *
*                      Nanochemistry Research Institute                        *
*                           Department of Chemistry                            *
*                    Curtin University, Western Australia                      *
********************************************************************************
* Version = 4.2.0 * Last modified =  20th January 2014                         *
********************************************************************************
*  optimise     - perform optimisation run                                     *
*  conp         - constant pressure calculation                                *
*  qok          - running with non charge neutral cell is OK                   *
*  rfo          - optimisation step to be determined by RFO method             *
********************************************************************************

  Job Started  at 08:45.38  6th December   2016                               

  Number of CPUs =     1


  Total number of configurations input =   1

********************************************************************************
*  Input for Configuration =   1                                               *
********************************************************************************

  Formula = Ge4Si56O120F6                                               

  Number of irreducible atoms/shells =     312


  Total number atoms/shells =     312

  Dimensionality = 3               :  Bulk   


  Charge on solid   =  -6.000000 =>neutralising background added


  Cartesian lattice vectors (Angstroms) :

       11.983407    0.000000    0.000000
       -6.006103   10.372027    0.000000
        0.015769    0.057194   29.530393

  Cell parameters (Angstroms/Degrees):

  a =      11.9834    alpha =  89.9193
  b =      11.9855    beta  =  89.9694
  c =      29.5305    gamma = 120.0737

  Initial cell volume =        3670.398113 Angs**3

  Temperature of configuration =  0.000     K 

  Pressure of configuration =         0.000 GPa 

  Fractional coordinates of asymmetric unit :

--------------------------------------------------------------------------------
   No.  Atomic       x           y          z         Charge      Occupancy
        Label      (Frac)      (Frac)     (Frac)        (e)         (Frac)  
--------------------------------------------------------------------------------
      1 Ge    c    0.699600    0.375700    0.033890     4.00000    1.000000    
      2 Si    c    0.621297 *  0.325558 *  0.368396 *   4.00000    1.000000    
      3 Si    c    0.675882 *  0.295138 *  0.698994 *   4.00000    1.000000    
      4 Si    c    0.297477 *  0.620879 *  0.534466 *   4.00000    1.000000    
      5 Si    c    0.383842 *  0.677216 *  0.866584 *   4.00000    1.000000    
      6 Si    c    0.325156 *  0.700749 *  0.203646 *   4.00000    1.000000    
      7 Si    c    0.377708 *  0.701900 *  0.304229 *   4.00000    1.000000    
      8 Si    c    0.329796 *  0.615022 *  0.966283 *   4.00000    1.000000    
      9 Si    c    0.296568 *  0.675186 *  0.634837 *   4.00000    1.000000    
     10 Si    c    0.622496 *  0.296756 *  0.799361 *   4.00000    1.000000    
     11 Si    c    0.676773 *  0.379426 *  0.468712 *   4.00000    1.000000    
     12 Si    c    0.693680 *  0.320028 *  0.137222 *   4.00000    1.000000    
     13 Si    c    0.529539 *  0.405605 *  0.964543 *   4.00000    1.000000    
     14 Si    c    0.580795 *  0.112716 *  0.304494 *   4.00000    1.000000    
     15 Si    c    0.886810 *  0.468559 *  0.634626 *   4.00000    1.000000    
     16 Si    c    0.470221 *  0.582885 *  0.469882 *   4.00000    1.000000    
     17 Si    c    0.418079 *  0.886708 *  0.801349 *   4.00000    1.000000    
     18 Si    c    0.118992 *  0.530926 *  0.137885 *   4.00000    1.000000    
     19 Si    c    0.417588 *  0.530401 *  0.368486 *   4.00000    1.000000    
     20 Si    c    0.127217 *  0.586184 *  0.034273 *   4.00000    1.000000    
     21 Si    c    0.468794 *  0.885146 *  0.699731 *   4.00000    1.000000    
     22 Si    c    0.585446 *  0.469592 *  0.863602 *   4.00000    1.000000    
     23 Si    c    0.887427 *  0.416740 *  0.533191 *   4.00000    1.000000    
     24 Si    c    0.527468 *  0.106709 *  0.203186 *   4.00000    1.000000    
     25 Si    c    0.305885 *  0.400132 *  0.848774 *   4.00000    1.000000    
     26 Si    c    0.603883 *  0.902054 *  0.189401 *   4.00000    1.000000    
     27 Si    c    0.096628 *  0.697378 *  0.519606 *   4.00000    1.000000    
     28 Si    c    0.698268 *  0.603415 *  0.353608 *   4.00000    1.000000    
     29 Si    c    0.397764 *  0.094080 *  0.685300 *   4.00000    1.000000    
     30 Si    c    0.909207 *  0.300417 *  0.019403 *   4.00000    1.000000    
     31 Si    c    0.398553 *  0.301959 *  0.483732 *   4.00000    1.000000    
     32 Ge    c    0.901765 *  0.604048 *  0.152580 *   4.00000    1.000000    
     33 Si    c    0.699213 *  0.095944 *  0.814288 *   4.00000    1.000000    
     34 Si    c    0.606024 *  0.687164 *  0.982393 *   4.00000    1.000000    
     35 Si    c    0.095265 *  0.396656 *  0.649204 *   4.00000    1.000000    
     36 Si    c    0.299760 *  0.902308 *  0.318354 *   4.00000    1.000000    
     37 Si    c    0.253913 *  0.336144 *  0.948497 *   4.00000    1.000000    
     38 Si    c    0.659011 *  0.911793 *  0.290166 *   4.00000    1.000000    
     39 Si    c    0.088116 *  0.747577 *  0.619948 *   4.00000    1.000000    
     40 Si    c    0.748943 *  0.660506 *  0.454168 *   4.00000    1.000000    
     41 Si    c    0.340646 *  0.087906 *  0.785819 *   4.00000    1.000000    
     42 Si    c    0.912703 *  0.250747 *  0.121688 *   4.00000    1.000000    
     43 Si    c    0.340497 *  0.252086 *  0.383309 *   4.00000    1.000000    
     44 Ge    c    0.918150 *  0.650262 *  0.051305 *   4.00000    1.000000    
     45 Si    c    0.747965 *  0.086768 *  0.713834 *   4.00000    1.000000    
     46 Si    c    0.664821 *  0.747490 *  0.882021 *   4.00000    1.000000    
     47 Si    c    0.088542 *  0.339616 *  0.548686 *   4.00000    1.000000    
     48 Si    c    0.248482 *  0.906245 *  0.217732 *   4.00000    1.000000    
     49 Si    c    0.975528 *  0.122637 *  0.966142 *   4.00000    1.000000    
     50 Si    c    0.878698 *  0.854040 *  0.304766 *   4.00000    1.000000    
     51 Si    c    0.149969 *  0.027305 *  0.635021 *   4.00000    1.000000    
     52 Si    c    0.028992 *  0.878338 *  0.469844 *   4.00000    1.000000    
     53 Si    c    0.123181 *  0.151012 *  0.800187 *   4.00000    1.000000    
     54 Si    c    0.850549 *  0.970955 *  0.137515 *   4.00000    1.000000    
     55 Si    c    0.122029 *  0.972544 *  0.369269 *   4.00000    1.000000    
     56 Ge    c    0.856877 *  0.874081 *  0.034015 *   4.00000    1.000000    
     57 Si    c    0.027610 *  0.148432 *  0.699694 *   4.00000    1.000000    
     58 Si    c    0.879540 *  0.029103 *  0.865522 *   4.00000    1.000000    
     59 Si    c    0.150400 *  0.121741 *  0.534406 *   4.00000    1.000000    
     60 Si    c    0.969325 *  0.851134 *  0.204619 *   4.00000    1.000000    
     61 O3    c    0.934239 *  0.007583 *  0.999672 *   1.33043    1.000000    
     62 O2    c    0.998051 *  0.930960 *  0.338268 *   0.87073    1.000000    
     63 O2    c    0.070164 *  0.068626 *  0.667624 *   0.87073    1.000000    
     64 O2    c    0.069355 *  0.998728 *  0.502706 *   0.87073    1.000000    
     65 O2    c    0.003154 *  0.072842 *  0.833690 *   0.87073    1.000000    
     66 O2    c    0.932483 *  0.932220 *  0.170449 *   0.87073    1.000000    
     67 O2    c    0.339568 *  0.578720 *  0.336662 *   0.87073    1.000000    
     68 O2    c    0.419165 *  0.759279 *  0.667632 *   0.87073    1.000000    
     69 O2    c    0.252434 *  0.653791 *  0.002030 *   0.87073    1.000000    
     70 O2    c    0.662293 *  0.421719 *  0.830972 *   0.87073    1.000000    
     71 O2    c    0.574518 *  0.229998 *  0.170292 *   0.87073    1.000000    
     72 O2    c    0.761792 *  0.340687 *  0.500918 *   0.87073    1.000000    
     73 O3    c    0.570553 *  0.324403 *  0.996156 *   1.33043    1.000000    
     74 O2    c    0.760382 *  0.418664 *  0.666483 *   0.87073    1.000000    
     75 O2    c    0.658347 *  0.239525 *  0.335964 *   0.87073    1.000000    
     76 O2    c    0.421317 *  0.659290 *  0.502145 *   0.87073    1.000000    
     77 O2    c    0.243922 *  0.577843 *  0.170468 *   0.87073    1.000000    
     78 O2    c    0.344854 *  0.762614 *  0.834535 *   0.87073    1.000000    
     79 O2    c    0.130061 *  0.209677 *  0.968663 *   0.87073    1.000000    
     80 O2    c    0.785067 *  0.913804 *  0.311121 *   0.87073    1.000000    
     81 O2    c    0.086730 *  0.873016 *  0.639908 *   0.87073    1.000000    
     82 O2    c    0.874641 *  0.786824 *  0.474316 *   0.87073    1.000000    
     83 O2    c    0.214298 *  0.088006 *  0.805700 *   0.87073    1.000000    
     84 O2    c    0.907950 *  0.125470 *  0.143632 *   0.87073    1.000000    
     85 O2    c    0.214387 *  0.126217 *  0.363117 *   0.87073    1.000000    
     86 O1    c    0.933890 *  0.792881 *  0.027413 *   1.73396    1.000000    
     87 O2    c    0.873631 *  0.085603 *  0.693802 *   0.87073    1.000000    
     88 O2    c    0.790284 *  0.874322 *  0.861592 *   0.87073    1.000000    
     89 O2    c    0.088125 *  0.213273 *  0.528677 *   0.87073    1.000000    
     90 O2    c    0.122859 *  0.905394 *  0.197218 *   0.87073    1.000000    
     91 O2    c    0.937168 *  0.877741 *  0.254827 *   0.87073    1.000000    
     92 O2    c    0.137531 *  0.069570 *  0.584912 *   0.87073    1.000000    
     93 O2    c    0.927694 *  0.070033 *  0.916121 *   0.87073    1.000000    
     94 O2    c    0.066277 *  0.134283 *  0.750200 *   0.87073    1.000000    
     95 O3    c    0.864381 *  0.938488 *  0.087216 *   1.33043    1.000000    
     96 O2    c    0.071951 *  0.934711 *  0.419985 *   0.87073    1.000000    
     97 O2    c    0.913417 *  0.210301 *  0.979989 *   0.87073    1.000000    
     98 O2    c    0.796449 *  0.700931 *  0.315209 *   0.87073    1.000000    
     99 O2    c    0.301270 *  0.095921 *  0.647072 *   0.87073    1.000000    
    100 O2    c    0.098244 *  0.796046 *  0.481472 *   0.87073    1.000000    
    101 O2    c    0.207342 *  0.303837 *  0.810336 *   0.87073    1.000000    
    102 O2    c    0.699282 *  0.898787 *  0.151167 *   0.87073    1.000000    
    103 O2    c    0.201430 *  0.900906 *  0.356468 *   0.87073    1.000000    
    104 O3    c    0.693710 *  0.778242 *  0.022387 *   1.33043    1.000000    
    105 O2    c    0.097005 *  0.300009 *  0.687490 *   0.87073    1.000000    
    106 O2    c    0.797253 *  0.097280 *  0.852395 *   0.87073    1.000000    
    107 O2    c    0.301874 *  0.203278 *  0.521989 *   0.87073    1.000000    
    108 O3    c    0.896864 *  0.700325 *  0.196501 *   1.33043    1.000000    
    109 O2    c    0.323132 *  0.643744 *  0.253957 *   0.87073    1.000000    
    110 O2    c    0.354600 *  0.677143 *  0.584648 *   0.87073    1.000000    
    111 O2    c    0.324666 *  0.673732 *  0.916793 *   0.87073    1.000000    
    112 O2    c    0.678074 *  0.353224 *  0.749034 *   0.87073    1.000000    
    113 O3    c    0.636518 *  0.318629 *  0.087829 *   1.33043    1.000000    
    114 O2    c    0.678157 *  0.324099 *  0.418393 *   0.87073    1.000000    
    115 O2    c    0.373209 *  0.321239 *  0.965884 *   0.87073    1.000000    
    116 O2    c    0.668392 *  0.044389 *  0.307547 *   0.87073    1.000000    
    117 O2    c    0.955419 *  0.624670 *  0.637898 *   0.87073    1.000000    
    118 O2    c    0.626507 *  0.670106 *  0.472561 *   0.87073    1.000000    
    119 O2    c    0.330719 *  0.955553 *  0.804360 *   0.87073    1.000000    
    120 O2    c    0.043618 *  0.374427 *  0.139530 *   0.87073    1.000000    
    121 O2    c    0.330163 *  0.374305 *  0.365150 *   0.87073    1.000000    
    122 O3    c    0.067884 *  0.677884 *  0.031180 *   1.33043    1.000000    
    123 O2    c    0.624985 *  0.953797 *  0.696253 *   0.87073    1.000000    
    124 O2    c    0.672655 *  0.625996 *  0.861545 *   0.87073    1.000000    
    125 O2    c    0.956469 *  0.329682 *  0.530096 *   0.87073    1.000000    
    126 O2    c    0.371619 *  0.037456 *  0.199002 *   0.87073    1.000000    
    127 O3    c    0.774364 *  0.293414 *  0.013687 *   1.33043    1.000000    
    128 O2    c    0.696965 *  0.468805 *  0.345791 *   0.87073    1.000000    
    129 O2    c    0.532223 *  0.227238 *  0.677070 *   0.87073    1.000000    
    130 O2    c    0.230146 *  0.696537 *  0.511947 *   0.87073    1.000000    
    131 O2    c    0.309973 *  0.536378 *  0.842267 *   0.87073    1.000000    
    132 O2    c    0.468629 *  0.769627 *  0.181539 *   0.87073    1.000000    
    133 O2    c    0.300982 *  0.769004 *  0.325882 *   0.87073    1.000000    
    134 O2    c    0.472359 *  0.688438 *  0.988047 *   0.87073    1.000000    
    135 O2    c    0.228502 *  0.531353 *  0.656769 *   0.87073    1.000000    
    136 O2    c    0.698242 *  0.229385 *  0.821769 *   0.87073    1.000000    
    137 O2    c    0.533299 *  0.303436 *  0.490975 *   0.87073    1.000000    
    138 O3    c    0.758348 *  0.459637 *  0.160091 *   1.33043    1.000000    
    139 O1    c    0.778291 *  0.537919 *  0.024196 *   1.73396    1.000000    
    140 O2    c    0.465342 *  0.250897 *  0.363465 *   0.87073    1.000000    
    141 O2    c    0.749306 *  0.212749 *  0.693806 *   0.87073    1.000000    
    142 O2    c    0.215528 *  0.464919 *  0.529365 *   0.87073    1.000000    
    143 O2    c    0.540291 *  0.752733 *  0.863906 *   0.87073    1.000000    
    144 O2    c    0.247838 *  0.779523 *  0.198612 *   0.87073    1.000000    
    145 O2    c    0.533291 *  0.785803 *  0.309658 *   0.87073    1.000000    
    146 O2    c    0.251184 *  0.458852 *  0.969833 *   0.87073    1.000000    
    147 O2    c    0.214184 *  0.748636 *  0.639639 *   0.87073    1.000000    
    148 O2    c    0.466513 *  0.214271 *  0.804958 *   0.87073    1.000000    
    149 O2    c    0.750130 *  0.535286 *  0.473606 *   0.87073    1.000000    
    150 O2    c    0.790230 *  0.261708 *  0.137055 *   0.87073    1.000000    
    151 O2    c    0.232973 *  0.322723 *  0.894330 *   0.87073    1.000000    
    152 O2    c    0.676886 *  0.906720 *  0.236067 *   0.87073    1.000000    
    153 O2    c    0.091393 *  0.767412 *  0.565747 *   0.87073    1.000000    
    154 O2    c    0.768289 *  0.677715 *  0.399916 *   0.87073    1.000000    
    155 O2    c    0.323298 *  0.089648 *  0.731617 *   0.87073    1.000000    
    156 O2    c    0.916321 *  0.238593 *  0.067473 *   0.87073    1.000000    
    157 O2    c    0.323578 *  0.232274 *  0.437501 *   0.87073    1.000000    
    158 O1    c    0.907816 *  0.694554 *  0.107116 *   1.73396    1.000000    
    159 O2    c    0.768738 *  0.090872 *  0.767967 *   0.87073    1.000000    
    160 O2    c    0.684943 *  0.760217 *  0.936415 *   0.87073    1.000000    
    161 O2    c    0.090224 *  0.322188 *  0.602883 *   0.87073    1.000000    
    162 O2    c    0.229734 *  0.905721 *  0.271947 *   0.87073    1.000000    
    163 O2    c    0.586549 *  0.544902 *  0.989329 *   0.87073    1.000000    
    164 O2    c    0.439232 *  0.027579 *  0.327234 *   0.87073    1.000000    
    165 O2    c    0.970340 *  0.411248 *  0.657887 *   0.87073    1.000000    
    166 O2    c    0.413240 *  0.441390 *  0.492696 *   0.87073    1.000000    
    167 O2    c    0.559976 *  0.971058 *  0.823573 *   0.87073    1.000000    
    168 O3    c    0.034838 *  0.585453 *  0.160338 *   1.33043    1.000000    
    169 O2    c    0.558542 *  0.588711 *  0.344952 *   0.87073    1.000000    
    170 O2    c    0.028244 *  0.444858 *  0.013642 *   0.87073    1.000000    
    171 O2    c    0.411112 *  0.968466 *  0.676574 *   0.87073    1.000000    
    172 O2    c    0.445005 *  0.413601 *  0.840074 *   0.87073    1.000000    
    173 O2    c    0.971384 *  0.558264 *  0.510286 *   0.87073    1.000000    
    174 O2    c    0.591207 *  0.028237 *  0.180409 *   0.87073    1.000000    
    175 O2    c    0.579894 *  0.163698 *  0.253507 *   0.87073    1.000000    
    176 O2    c    0.834249 *  0.416051 *  0.583884 *   0.87073    1.000000    
    177 O2    c    0.585481 *  0.413167 *  0.913633 *   0.87073    1.000000    
    178 O2    c    0.416460 *  0.832816 *  0.750641 *   0.87073    1.000000    
    179 O2    c    0.168729 *  0.579288 *  0.086573 *   0.87073    1.000000    
    180 O2    c    0.417405 *  0.582961 *  0.419173 *   0.87073    1.000000    
    181 F     c    0.451081 *  0.903146 *  0.252941 *   0.56000    1.000000    
    182 F     c    0.095791 *  0.547515 *  0.583968 *   0.56000    1.000000    
    183 F     c    0.453238 *  0.543692 *  0.914945 *   0.56000    1.000000    
    184 F     c    0.548365 *  0.094889 *  0.749593 *   0.56000    1.000000    
    185 F     c    0.898142 *  0.487618 *  0.082786 *   0.56000    1.000000    
    186 F     c    0.548200 *  0.452310 *  0.418226 *   0.56000    1.000000    
    187 O3    s    0.932352 *  0.009426 *  0.998748 *  -3.33043    1.000000    
    188 O2    s    0.998609 *  0.926996 *  0.337994 *  -2.87073    1.000000    
    189 O2    s    0.074339 *  0.072923 *  0.667560 *  -2.87073    1.000000    
    190 O2    s    0.073900 *  0.999013 *  0.502573 *  -2.87073    1.000000    
    191 O2    s    0.002761 *  0.076660 *  0.833499 *  -2.87073    1.000000    
    192 O2    s    0.927546 *  0.927630 *  0.170576 *  -2.87073    1.000000    
    193 O2    s    0.351532 *  0.586538 *  0.336557 *  -2.87073    1.000000    
    194 O2    s    0.411642 *  0.763560 *  0.667548 *  -2.87073    1.000000    
    195 O2    s    0.247070 *  0.642495 *  0.001758 *  -2.87073    1.000000    
    196 O2    s    0.650326 *  0.413758 *  0.831053 *  -2.87073    1.000000    
    197 O2    s    0.582071 *  0.226434 *  0.170266 *  -2.87073    1.000000    
    198 O2    s    0.765949 *  0.352489 *  0.500909 *  -2.87073    1.000000    
    199 O3    s    0.576037 *  0.336248 *  0.995831 *  -3.33043    1.000000    
    200 O2    s    0.764758 *  0.411095 *  0.666543 *  -2.87073    1.000000    
    201 O2    s    0.646531 *  0.235208 *  0.336031 *  -2.87073    1.000000    
    202 O2    s    0.413689 *  0.647470 *  0.502133 *  -2.87073    1.000000    
    203 O2    s    0.239436 *  0.585479 *  0.170517 *  -2.87073    1.000000    
    204 O2    s    0.356406 *  0.766711 *  0.834396 *  -2.87073    1.000000    
    205 O2    s    0.126618 *  0.213812 *  0.966250 *  -2.87073    1.000000    
    206 O2    s    0.781862 *  0.907282 *  0.308302 *  -2.87073    1.000000    
    207 O2    s    0.093572 *  0.876406 *  0.637353 *  -2.87073    1.000000    
    208 O2    s    0.878013 *  0.783455 *  0.471778 *  -2.87073    1.000000    
    209 O2    s    0.217724 *  0.094634 *  0.803097 *  -2.87073    1.000000    
    210 O2    s    0.902678 *  0.123442 *  0.140678 *  -2.87073    1.000000    
    211 O2    s    0.217621 *  0.122904 *  0.365833 *  -2.87073    1.000000    
    212 O1    s    0.925988 *  0.790896 *  0.029537 *  -3.73396    1.000000    
    213 O2    s    0.876980 *  0.092367 *  0.696463 *  -2.87073    1.000000    
    214 O2    s    0.786861 *  0.877678 *  0.864081 *  -2.87073    1.000000    
    215 O2    s    0.094773 *  0.216604 *  0.531321 *  -2.87073    1.000000    
    216 O2    s    0.120502 *  0.899999 *  0.200077 *  -2.87073    1.000000    
    217 O2    s    0.934114 *  0.872158 *  0.254949 *  -2.87073    1.000000    
    218 O2    s    0.140399 *  0.070701 *  0.584852 *  -2.87073    1.000000    
    219 O2    s    0.927537 *  0.071231 *  0.915914 *  -2.87073    1.000000    
    220 O2    s    0.068320 *  0.137760 *  0.750128 *  -2.87073    1.000000    
    221 O3    s    0.862198 *  0.936885 *  0.088561 *  -3.33043    1.000000    
    222 O2    s    0.072779 *  0.932609 *  0.419862 *  -2.87073    1.000000    
    223 O2    s    0.919529 *  0.210830 *  0.982787 *  -2.87073    1.000000    
    224 O2    s    0.795126 *  0.707063 *  0.317988 *  -2.87073    1.000000    
    225 O2    s    0.294989 *  0.088391 *  0.649702 *  -2.87073    1.000000    
    226 O2    s    0.090700 *  0.794720 *  0.484134 *  -2.87073    1.000000    
    227 O2    s    0.208448 *  0.297509 *  0.813143 *  -2.87073    1.000000    
    228 O2    s    0.705106 *  0.906585 *  0.153704 *  -2.87073    1.000000    
    229 O2    s    0.203132 *  0.908644 *  0.353900 *  -2.87073    1.000000    
    230 O3    s    0.697740 *  0.776636 *  0.019321 *  -3.33043    1.000000    
    231 O2    s    0.089469 *  0.293825 *  0.684868 *  -2.87073    1.000000    
    232 O2    s    0.795904 *  0.089870 *  0.849850 *  -2.87073    1.000000    
    233 O2    s    0.295723 *  0.204742 *  0.519385 *  -2.87073    1.000000    
    234 O3    s    0.904678 *  0.708798 *  0.194146 *  -3.33043    1.000000    
    235 O2    s    0.328877 *  0.655501 *  0.253901 *  -2.87073    1.000000    
    236 O2    s    0.342857 *  0.671201 *  0.584634 *  -2.87073    1.000000    
    237 O2    s    0.331108 *  0.668170 *  0.916707 *  -2.87073    1.000000    
    238 O2    s    0.672135 *  0.341432 *  0.749057 *  -2.87073    1.000000    
    239 O3    s    0.646841 *  0.323173 *  0.088489 *  -3.33043    1.000000    
    240 O2    s    0.672194 *  0.329899 *  0.418403 *  -2.87073    1.000000    
    241 O2    s    0.376525 *  0.331608 *  0.963844 *  -2.87073    1.000000    
    242 O2    s    0.658365 *  0.037502 *  0.305393 *  -2.87073    1.000000    
    243 O2    s    0.962262 *  0.621485 *  0.635672 *  -2.87073    1.000000    
    244 O2    s    0.623242 *  0.660128 *  0.470351 *  -2.87073    1.000000    
    245 O2    s    0.340671 *  0.962222 *  0.802122 *  -2.87073    1.000000    
    246 O2    s    0.037524 *  0.377402 *  0.137468 *  -2.87073    1.000000    
    247 O2    s    0.340258 *  0.377573 *  0.367406 *  -2.87073    1.000000    
    248 O3    s    0.062913 *  0.666160 *  0.033050 *  -3.33043    1.000000    
    249 O2    s    0.621806 *  0.960648 *  0.698459 *  -2.87073    1.000000    
    250 O2    s    0.662880 *  0.622577 *  0.863896 *  -2.87073    1.000000    
    251 O2    s    0.963161 *  0.339655 *  0.532361 *  -2.87073    1.000000    
    252 O2    s    0.374821 *  0.030828 *  0.201412 *  -2.87073    1.000000    
    253 O3    s    0.782541 *  0.300610 *  0.015902 *  -3.33043    1.000000    
    254 O2    s    0.689379 *  0.468225 *  0.348944 *  -2.87073    1.000000    
    255 O2    s    0.532853 *  0.220198 *  0.680226 *  -2.87073    1.000000    
    256 O2    s    0.223038 *  0.688869 *  0.515091 *  -2.87073    1.000000    
    257 O2    s    0.317074 *  0.536361 *  0.845454 *  -2.87073    1.000000    
    258 O2    s    0.468034 *  0.776463 *  0.184688 *  -2.87073    1.000000    
    259 O2    s    0.308745 *  0.776105 *  0.322828 *  -2.87073    1.000000    
    260 O2    s    0.471215 *  0.680439 *  0.985064 *  -2.87073    1.000000    
    261 O2    s    0.221472 *  0.531965 *  0.653683 *  -2.87073    1.000000    
    262 O2    s    0.690584 *  0.222286 *  0.818660 *  -2.87073    1.000000    
    263 O2    s    0.533871 *  0.311084 *  0.487895 *  -2.87073    1.000000    
    264 O3    s    0.763246 *  0.457225 *  0.157200 *  -3.33043    1.000000    
    265 O1    s    0.782493 *  0.533385 *  0.026949 *  -3.73396    1.000000    
    266 O2    s    0.468103 *  0.258908 *  0.366096 *  -2.87073    1.000000    
    267 O2    s    0.741433 *  0.207579 *  0.696479 *  -2.87073    1.000000    
    268 O2    s    0.210224 *  0.467587 *  0.531956 *  -2.87073    1.000000    
    269 O2    s    0.537298 *  0.744188 *  0.866122 *  -2.87073    1.000000    
    270 O2    s    0.255953 *  0.784969 *  0.201137 *  -2.87073    1.000000    
    271 O2    s    0.530653 *  0.790807 *  0.307001 *  -2.87073    1.000000    
    272 O2    s    0.259727 *  0.462044 *  0.967199 *  -2.87073    1.000000    
    273 O2    s    0.209015 *  0.740769 *  0.637034 *  -2.87073    1.000000    
    274 O2    s    0.469063 *  0.209044 *  0.802341 *  -2.87073    1.000000    
    275 O2    s    0.742244 *  0.532574 *  0.471016 *  -2.87073    1.000000    
    276 O2    s    0.793866 *  0.266638 *  0.135367 *  -2.87073    1.000000    
    277 O2    s    0.242857 *  0.332289 *  0.895286 *  -2.87073    1.000000    
    278 O2    s    0.667330 *  0.906745 *  0.236879 *  -2.87073    1.000000    
    279 O2    s    0.091589 *  0.757962 *  0.566662 *  -2.87073    1.000000    
    280 O2    s    0.758919 *  0.668126 *  0.400800 *  -2.87073    1.000000    
    281 O2    s    0.332944 *  0.089918 *  0.732506 *  -2.87073    1.000000    
    282 O2    s    0.915237 *  0.246235 *  0.068319 *  -2.87073    1.000000    
    283 O2    s    0.333235 *  0.241688 *  0.436592 *  -2.87073    1.000000    
    284 O1    s    0.907916 *  0.684492 *  0.106882 *  -3.73396    1.000000    
    285 O2    s    0.759222 *  0.090967 *  0.767082 *  -2.87073    1.000000    
    286 O2    s    0.675091 *  0.751646 *  0.935346 *  -2.87073    1.000000    
    287 O2    s    0.090566 *  0.331841 *  0.601987 *  -2.87073    1.000000    
    288 O2    s    0.239072 *  0.905422 *  0.271081 *  -2.87073    1.000000    
    289 O2    s    0.582630 *  0.545839 *  0.986073 *  -2.87073    1.000000    
    290 O2    s    0.439049 *  0.022853 *  0.323900 *  -2.87073    1.000000    
    291 O2    s    0.975270 *  0.415818 *  0.654524 *  -2.87073    1.000000    
    292 O2    s    0.417787 *  0.441155 *  0.489342 *  -2.87073    1.000000    
    293 O2    s    0.560127 *  0.975884 *  0.820216 *  -2.87073    1.000000    
    294 O3    s    0.032523 *  0.581288 *  0.157411 *  -3.33043    1.000000    
    295 O2    s    0.558898 *  0.584063 *  0.348323 *  -2.87073    1.000000    
    296 O2    s    0.025382 *  0.443789 *  0.016422 *  -2.87073    1.000000    
    297 O2    s    0.415865 *  0.973461 *  0.679937 *  -2.87073    1.000000    
    298 O2    s    0.444641 *  0.418154 *  0.843458 *  -2.87073    1.000000    
    299 O2    s    0.976262 *  0.558444 *  0.513685 *  -2.87073    1.000000    
    300 O2    s    0.585867 *  0.022771 *  0.183725 *  -2.87073    1.000000    
    301 O2    s    0.574538 *  0.152488 *  0.253571 *  -2.87073    1.000000    
    302 O2    s    0.845249 *  0.421572 *  0.583868 *  -2.87073    1.000000    
    303 O2    s    0.579788 *  0.418268 *  0.913642 *  -2.87073    1.000000    
    304 O2    s    0.422024 *  0.843774 *  0.750614 *  -2.87073    1.000000    
    305 O2    s    0.159465 *  0.574963 *  0.086685 *  -2.87073    1.000000    
    306 O2    s    0.422911 *  0.577485 *  0.419159 *  -2.87073    1.000000    
    307 F     s    0.450905 *  0.902879 *  0.252838 *  -1.56000    1.000000    
    308 F     s    0.096210 *  0.547762 *  0.583926 *  -1.56000    1.000000    
    309 F     s    0.452696 *  0.543798 *  0.914919 *  -1.56000    1.000000    
    310 F     s    0.548606 *  0.095336 *  0.749566 *  -1.56000    1.000000    
    311 F     s    0.897288 *  0.493907 *  0.081863 *  -1.56000    1.000000    
    312 F     s    0.548390 *  0.452047 *  0.418164 *  -1.56000    1.000000    
--------------------------------------------------------------------------------



********************************************************************************
*  General input information                                                   *
********************************************************************************

  Species output for all configurations : 

--------------------------------------------------------------------------------
  Species    Type    Atomic    Atomic    Charge       Radii (Angs)     Library
                     Number     Mass       (e)     Cova   Ionic  VDW   Symbol
--------------------------------------------------------------------------------
    Si       Core       14      28.09   4.000000   1.200  0.000  2.100          
    O1       Core        8      16.00   1.733957   0.730  0.000  1.360          
    O1       Shell       8       0.00  -3.733957   0.730  0.000  1.360          
    O2       Core        8      16.00   0.870733   0.730  0.000  1.360          
    O2       Shell       8       0.00  -2.870733   0.730  0.000  1.360          
    O3       Core        8      16.00   1.330431   0.730  0.000  1.360          
    O3       Shell       8       0.00  -3.330431   0.730  0.000  1.360          
    F        Core        9      19.00   0.560000   0.710  0.000  1.300          
    F        Shell       9       0.00  -1.560000   0.710  0.000  1.300          
    Ge       Core       32      72.61   4.000000   1.170  0.000  1.750          
--------------------------------------------------------------------------------


  Lattice summation method               =    Ewald          (3-D)
                                         =    Parry          (2-D)
                                         =    Saunders et al (1-D)
  Accuracy factor for lattice sums       =   12.000


  Time limit = Infinity

  Maximum range for interatomic potentials =        16.000000 Angstroms

  Taper potentials to zero over   1.0000 Angstroms using polynomial

  General interatomic potentials :

--------------------------------------------------------------------------------
Atom  Types   Potential         A         B         C         D     Cutoffs(Ang)
  1     2                                                            Min    Max 
--------------------------------------------------------------------------------
Si   c O1   s Buckingham    0.132E+04 0.318      10.1      0.00     0.000 16.000
Si   c O2   s Buckingham    0.132E+04 0.318      10.1      0.00     0.000 16.000
Si   c O3   s Buckingham    0.132E+04 0.318      10.1      0.00     0.000 16.000
Ge   c O1   s Buckingham    0.150E+04 0.326      16.8      0.00     0.000 16.000
Ge   c O2   s Buckingham    0.150E+04 0.326      16.8      0.00     0.000 16.000
Ge   c O3   s Buckingham    0.150E+04 0.326      16.8      0.00     0.000 16.000
O1   s O1   s Buckingham    0.228E+05 0.149      10.9      0.00     0.000 16.000
O1   s O2   s Buckingham    0.228E+05 0.149      10.9      0.00     0.000 16.000
O1   s O3   s Buckingham    0.228E+05 0.149      10.9      0.00     0.000 16.000
O2   s O2   s Buckingham    0.228E+05 0.149      10.9      0.00     0.000 16.000
O2   s O3   s Buckingham    0.228E+05 0.149      10.9      0.00     0.000 16.000
O3   s O3   s Buckingham    0.228E+05 0.149      10.9      0.00     0.000 16.000
Si   c F    s Buckingham     977.     0.282      0.00      0.00     0.000 16.000
Ge   c F    s Buckingham     681.     0.320      0.00      0.00     0.000 16.000
F    s F    s Buckingham     540.     0.262      0.00      0.00     0.000 16.000
O1   s F    s Buckingham    0.168E+04 0.268      0.00      0.00     0.000 16.000
O2   s F    s Buckingham    0.168E+04 0.268      0.00      0.00     0.000 16.000
O3   s F    s Buckingham    0.168E+04 0.268      0.00      0.00     0.000 16.000
O2   c O2   s Spring (c-s)   76.0      0.00      0.00      0.00     0.000  0.800
O3   c O3   s Spring (c-s)   128.      0.00      0.00      0.00     0.000  0.800
O1   c O1   s Spring (c-s)   180.      0.00      0.00      0.00     0.000  0.800
F    c F    s Spring (c-s)   33.5      0.00      0.00      0.00     0.000  0.800
--------------------------------------------------------------------------------

  General Three-body potentials :

  Harmonic form:

--------------------------------------------------------------------------------
Atom    Atom    Atom           Force Constants            Theta     Cutoffs  
  1       2       3     (eVrad**-2/eVrad**-3/eVrad**-4)   (deg)  1-2  1-3  2-3
--------------------------------------------------------------------------------
Si    c O1    s O1    s  1.261        0.0000    0.0000   109.470 0.00 0.00 0.00
                                                                 1.90 1.90 3.50
Si    c O1    s O2    s  1.261        0.0000    0.0000   109.470 0.00 0.00 0.00
                                                                 1.90 1.90 3.50
Si    c O2    s O2    s  1.261        0.0000    0.0000   109.470 0.00 0.00 0.00
                                                                 1.90 1.90 3.50
--------------------------------------------------------------------------------

********************************************************************************
*  Output for configuration   1                                                *
********************************************************************************


  Components of energy : 

--------------------------------------------------------------------------------
  Interatomic potentials     =        2058.47020305 eV
  Three-body potentials      =           0.45837025 eV
  Monopole - monopole (real) =       -6579.59195991 eV
  Monopole - monopole (recip)=       -3191.71186673 eV
  Monopole - monopole (total)=       -9771.30382665 eV
  Neutralising energy        =          -6.45204747 eV
--------------------------------------------------------------------------------
  Total lattice energy       =       -7718.82730082 eV
--------------------------------------------------------------------------------
  Total lattice energy       =         -744748.8414 kJ/(mole unit cells)
--------------------------------------------------------------------------------


  Number of variables =      939

  Maximum number of calculations  =          1000
  Maximum Hessian update interval =            10
  Maximum step size               =   0.010000000
  Maximum parameter tolerance     =   0.000010000
  Maximum function  tolerance     =   0.000010000
  Maximum gradient  tolerance     =   0.001000000
  Maximum gradient  component     =   0.010000000

  Symmetry not applied to optimisation

  Cell parameters to be optimised using strains

  RFO method to be used

  DFP hessian update to be used

  Dumpfile to be written after every cycle

  Start of bulk optimisation :

  Cycle:      0 Energy:     -7718.827301  Gnorm:      0.000934  CPU:    1.007
  ** Hessian has required structure
  Cycle:      1 Energy:     -7718.828768  Gnorm:      0.000900  CPU:    4.078
  ** Hessian has required structure
  Cycle:      2 Energy:     -7718.830462  Gnorm:      0.000862  CPU:    7.144
  ** Hessian has required structure
  Cycle:      3 Energy:     -7718.831981  Gnorm:      0.000827  CPU:   10.211
  ** Hessian has required structure
  Cycle:      4 Energy:     -7718.833344  Gnorm:      0.000793  CPU:   13.278
  ** Hessian has required structure
  Cycle:      5 Energy:     -7718.834569  Gnorm:      0.000759  CPU:   16.345
  ** Hessian has required structure
  Cycle:      6 Energy:     -7718.835672  Gnorm:      0.000728  CPU:   19.411
  ** Hessian has required structure
  Cycle:      7 Energy:     -7718.836667  Gnorm:      0.000697  CPU:   22.476
  ** Hessian has required structure
  Cycle:      8 Energy:     -7718.837565  Gnorm:      0.000667  CPU:   25.544
  ** Hessian has required structure
  Cycle:      9 Energy:     -7718.838375  Gnorm:      0.000638  CPU:   28.612
  ** Hessian has required structure
  Cycle:     10 Energy:     -7718.839108  Gnorm:      0.000611  CPU:   31.678
  ** Hessian has required structure
  Cycle:     11 Energy:     -7718.839769  Gnorm:      0.000582  CPU:   35.407
  ** Hessian has required structure
  Cycle:     12 Energy:     -7718.840368  Gnorm:      0.000557  CPU:   38.474
  ** Hessian has required structure
  Cycle:     13 Energy:     -7718.840909  Gnorm:      0.000533  CPU:   41.543
  ** Hessian has required structure
  Cycle:     14 Energy:     -7718.841398  Gnorm:      0.000510  CPU:   44.611
  ** Hessian has required structure
  Cycle:     15 Energy:     -7718.841841  Gnorm:      0.000488  CPU:   47.678
  ** Hessian has required structure
  Cycle:     16 Energy:     -7718.842241  Gnorm:      0.000467  CPU:   50.748
  ** Hessian has required structure
  Cycle:     17 Energy:     -7718.842604  Gnorm:      0.000446  CPU:   53.815
  ** Hessian has required structure
  Cycle:     18 Energy:     -7718.842932  Gnorm:      0.000426  CPU:   56.883
  ** Hessian has required structure
  Cycle:     19 Energy:     -7718.843228  Gnorm:      0.000407  CPU:   59.953
  ** Hessian has required structure
  Cycle:     20 Energy:     -7718.843496  Gnorm:      0.000389  CPU:   63.020
  ** Hessian has required structure
  Cycle:     21 Energy:     -7718.843739  Gnorm:      0.000371  CPU:   66.745
  ** Hessian has required structure
  Cycle:     22 Energy:     -7718.843959  Gnorm:      0.000354  CPU:   69.870
  ** Hessian has required structure
  Cycle:     23 Energy:     -7718.844157  Gnorm:      0.000338  CPU:   72.937
  ** Hessian has required structure
  Cycle:     24 Energy:     -7718.844337  Gnorm:      0.000323  CPU:   76.005
  ** Hessian has required structure
  Cycle:     25 Energy:     -7718.844499  Gnorm:      0.000308  CPU:   79.072
  ** Hessian has required structure
  Cycle:     26 Energy:     -7718.844646  Gnorm:      0.000294  CPU:   82.140
  ** Hessian has required structure
  Cycle:     27 Energy:     -7718.844779  Gnorm:      0.000280  CPU:   85.208
  ** Hessian has required structure
  Cycle:     28 Energy:     -7718.844899  Gnorm:      0.000267  CPU:   88.275
  ** Hessian has required structure
  Cycle:     29 Energy:     -7718.845008  Gnorm:      0.000255  CPU:   91.340
  ** Hessian has required structure
  Cycle:     30 Energy:     -7718.845106  Gnorm:      0.000243  CPU:   94.407
  ** Hessian has required structure
  Cycle:     31 Energy:     -7718.845195  Gnorm:      0.000231  CPU:   98.135
  ** Hessian has required structure
  Cycle:     32 Energy:     -7718.845275  Gnorm:      0.000221  CPU:  101.202
  ** Hessian has required structure
  Cycle:     33 Energy:     -7718.845348  Gnorm:      0.000210  CPU:  104.269
  ** Hessian has required structure
  Cycle:     34 Energy:     -7718.845414  Gnorm:      0.000200  CPU:  107.337
  ** Hessian has required structure
  Cycle:     35 Energy:     -7718.845473  Gnorm:      0.000191  CPU:  110.404
  ** Hessian has required structure
  Cycle:     36 Energy:     -7718.845527  Gnorm:      0.000182  CPU:  113.472
  ** Hessian has required structure
  Cycle:     37 Energy:     -7718.845556  Gnorm:      0.000177  CPU:  115.878
  ** Hessian has required structure
  Cycle:     38 Energy:     -7718.845580  Gnorm:      0.000172  CPU:  118.497
  ** Hessian has required structure
  Cycle:     39 Energy:     -7718.845600  Gnorm:      0.000168  CPU:  120.905
  ** Hessian has required structure
  Cycle:     40 Energy:     -7718.845618  Gnorm:      0.000165  CPU:  123.315
  ** Hessian has required structure
  Cycle:     41 Energy:     -7718.845642  Gnorm:      0.000160  CPU:  126.426
  ** Hessian has required structure
  Cycle:     42 Energy:     -7718.845661  Gnorm:      0.000156  CPU:  129.029
  ** Hessian has required structure
  Cycle:     43 Energy:     -7718.845678  Gnorm:      0.000153  CPU:  131.491
  ** Hessian has required structure
  Cycle:     44 Energy:     -7718.845693  Gnorm:      0.000149  CPU:  134.106
  ** Hessian has required structure
  Cycle:     45 Energy:     -7718.845707  Gnorm:      0.000146  CPU:  136.528
  ** Hessian has required structure
  Cycle:     46 Energy:     -7718.845720  Gnorm:      0.000143  CPU:  139.160
  ** Hessian has required structure
  Cycle:     47 Energy:     -7718.845732  Gnorm:      0.000140  CPU:  141.567
  ** Hessian has required structure
  Cycle:     48 Energy:     -7718.845744  Gnorm:      0.000137  CPU:  144.169
  ** Hessian has required structure
  Cycle:     49 Energy:     -7718.845756  Gnorm:      0.000135  CPU:  146.578
  ** Hessian has required structure
  Cycle:     50 Energy:     -7718.845767  Gnorm:      0.000132  CPU:  148.986
  ** Hessian has required structure
  Cycle:     51 Energy:     -7718.845782  Gnorm:      0.000128  CPU:  152.055
  ** Hessian has required structure
  Cycle:     52 Energy:     -7718.845794  Gnorm:      0.000125  CPU:  154.644
  ** Hessian has required structure
  Cycle:     53 Energy:     -7718.845805  Gnorm:      0.000122  CPU:  157.051
  ** Hessian has required structure
  Cycle:     54 Energy:     -7718.845814  Gnorm:      0.000119  CPU:  159.459
  ** Hessian has required structure
  Cycle:     55 Energy:     -7718.845823  Gnorm:      0.000117  CPU:  161.867
  ** Hessian has required structure
  Cycle:     56 Energy:     -7718.845832  Gnorm:      0.000115  CPU:  164.275
  ** Hessian has required structure
  Cycle:     57 Energy:     -7718.845840  Gnorm:      0.000112  CPU:  166.683
  ** Hessian has required structure
  Cycle:     58 Energy:     -7718.845847  Gnorm:      0.000110  CPU:  169.092
  ** Hessian has required structure
  Cycle:     59 Energy:     -7718.845855  Gnorm:      0.000108  CPU:  171.501
  ** Hessian has required structure
  Cycle:     60 Energy:     -7718.845862  Gnorm:      0.000106  CPU:  173.909
  ** Hessian has required structure
  Cycle:     61 Energy:     -7718.845871  Gnorm:      0.000102  CPU:  176.977
  ** Hessian has required structure
  Cycle:     62 Energy:     -7718.845879  Gnorm:      0.000100  CPU:  179.456
  ** Hessian has required structure
  Cycle:     63 Energy:     -7718.845886  Gnorm:      0.000098  CPU:  182.051
  ** Hessian has required structure
  Cycle:     64 Energy:     -7718.845892  Gnorm:      0.000095  CPU:  184.462
  ** Hessian has required structure
  Cycle:     65 Energy:     -7718.845898  Gnorm:      0.000093  CPU:  186.944
  ** Hessian has required structure
  Cycle:     66 Energy:     -7718.845903  Gnorm:      0.000092  CPU:  189.352
  ** Hessian has required structure
  Cycle:     67 Energy:     -7718.845908  Gnorm:      0.000090  CPU:  191.761
  ** Hessian has required structure
  Cycle:     68 Energy:     -7718.845913  Gnorm:      0.000088  CPU:  194.171
  ** Hessian has required structure
  Cycle:     69 Energy:     -7718.845918  Gnorm:      0.000086  CPU:  196.579
  ** Hessian has required structure
  Cycle:     70 Energy:     -7718.845922  Gnorm:      0.000084  CPU:  198.986
  ** Hessian has required structure
  Cycle:     71 Energy:     -7718.845928  Gnorm:      0.000082  CPU:  202.138
  ** Hessian has required structure
  Cycle:     72 Energy:     -7718.845933  Gnorm:      0.000080  CPU:  204.545
  ** Hessian has required structure
  Cycle:     73 Energy:     -7718.845938  Gnorm:      0.000078  CPU:  207.163
  ** Hessian has required structure
  Cycle:     74 Energy:     -7718.845941  Gnorm:      0.000076  CPU:  209.572
  ** Hessian has required structure
  Cycle:     75 Energy:     -7718.845945  Gnorm:      0.000075  CPU:  211.980
  ** Hessian has required structure
  Cycle:     76 Energy:     -7718.845948  Gnorm:      0.000073  CPU:  214.389
  ** Hessian has required structure
  Cycle:     77 Energy:     -7718.845952  Gnorm:      0.000072  CPU:  216.797
  ** Hessian has required structure
  Cycle:     78 Energy:     -7718.845955  Gnorm:      0.000070  CPU:  219.205
  ** Hessian has required structure
  Cycle:     79 Energy:     -7718.845958  Gnorm:      0.000069  CPU:  221.613
  ** Hessian has required structure
  Cycle:     80 Energy:     -7718.845961  Gnorm:      0.000067  CPU:  224.021
  ** Hessian has required structure
  Cycle:     81 Energy:     -7718.845964  Gnorm:      0.000065  CPU:  227.087
  ** Hessian has required structure
  Cycle:     82 Energy:     -7718.845968  Gnorm:      0.000064  CPU:  229.495
  ** Hessian has required structure
  Cycle:     83 Energy:     -7718.845970  Gnorm:      0.000062  CPU:  232.064
  ** Hessian has required structure
  Cycle:     84 Energy:     -7718.845973  Gnorm:      0.000061  CPU:  234.471
  ** Hessian has required structure
  Cycle:     85 Energy:     -7718.845975  Gnorm:      0.000060  CPU:  236.879
  ** Hessian has required structure
  Cycle:     86 Energy:     -7718.845977  Gnorm:      0.000058  CPU:  239.287
  ** Hessian has required structure
  Cycle:     87 Energy:     -7718.845979  Gnorm:      0.000057  CPU:  241.695
  ** Hessian has required structure
  Cycle:     88 Energy:     -7718.845981  Gnorm:      0.000056  CPU:  244.104
  ** Hessian has required structure
  Cycle:     89 Energy:     -7718.845983  Gnorm:      0.000055  CPU:  246.511
  ** Hessian has required structure
  Cycle:     90 Energy:     -7718.845985  Gnorm:      0.000054  CPU:  248.919
  ** Hessian has required structure
  Cycle:     91 Energy:     -7718.845988  Gnorm:      0.000052  CPU:  251.988
  ** Hessian has required structure
  Cycle:     92 Energy:     -7718.845990  Gnorm:      0.000051  CPU:  254.395
  ** Hessian has required structure
  Cycle:     93 Energy:     -7718.845991  Gnorm:      0.000050  CPU:  256.803
  ** Hessian has required structure
  Cycle:     94 Energy:     -7718.845993  Gnorm:      0.000049  CPU:  259.212
  ** Hessian has required structure
  Cycle:     95 Energy:     -7718.845994  Gnorm:      0.000048  CPU:  261.619
  ** Hessian has required structure
  Cycle:     96 Energy:     -7718.845996  Gnorm:      0.000047  CPU:  264.025
  ** Hessian has required structure
  Cycle:     97 Energy:     -7718.845997  Gnorm:      0.000046  CPU:  266.439
  ** Hessian has required structure
  Cycle:     98 Energy:     -7718.845998  Gnorm:      0.000045  CPU:  268.848
  ** Hessian has required structure
  Cycle:     99 Energy:     -7718.845999  Gnorm:      0.000044  CPU:  271.257
  ** Hessian has required structure
  Cycle:    100 Energy:     -7718.846001  Gnorm:      0.000043  CPU:  273.665
  ** Hessian has required structure
  Cycle:    101 Energy:     -7718.846002  Gnorm:      0.000042  CPU:  276.733
  ** Hessian has required structure
  Cycle:    102 Energy:     -7718.846004  Gnorm:      0.000041  CPU:  279.140
  ** Hessian has required structure
  Cycle:    103 Energy:     -7718.846005  Gnorm:      0.000040  CPU:  281.548
  ** Hessian has required structure
  Cycle:    104 Energy:     -7718.846006  Gnorm:      0.000039  CPU:  283.957
  ** Hessian has required structure
  Cycle:    105 Energy:     -7718.846007  Gnorm:      0.000038  CPU:  286.364
  ** Hessian has required structure
  Cycle:    106 Energy:     -7718.846007  Gnorm:      0.000037  CPU:  288.772
  ** Hessian has required structure
  Cycle:    107 Energy:     -7718.846008  Gnorm:      0.000036  CPU:  291.180
  ** Hessian has required structure
  Cycle:    108 Energy:     -7718.846009  Gnorm:      0.000036  CPU:  293.587
  ** Hessian has required structure
  Cycle:    109 Energy:     -7718.846010  Gnorm:      0.000035  CPU:  295.996
  ** Hessian has required structure
  Cycle:    110 Energy:     -7718.846011  Gnorm:      0.000034  CPU:  298.403
  ** Hessian has required structure
  Cycle:    111 Energy:     -7718.846012  Gnorm:      0.000033  CPU:  301.469
  ** Hessian has required structure
  Cycle:    112 Energy:     -7718.846012  Gnorm:      0.000032  CPU:  303.877
  ** Hessian has required structure
  Cycle:    113 Energy:     -7718.846013  Gnorm:      0.000032  CPU:  306.285
  ** Hessian has required structure
  Cycle:    114 Energy:     -7718.846014  Gnorm:      0.000031  CPU:  308.693
  ** Hessian has required structure
  Cycle:    115 Energy:     -7718.846014  Gnorm:      0.000030  CPU:  311.103
  ** Hessian has required structure
  Cycle:    116 Energy:     -7718.846015  Gnorm:      0.000030  CPU:  313.511
  ** Hessian has required structure
  Cycle:    117 Energy:     -7718.846015  Gnorm:      0.000029  CPU:  315.919
  ** Hessian has required structure
  Cycle:    118 Energy:     -7718.846016  Gnorm:      0.000028  CPU:  318.326
  ** Hessian has required structure
  Cycle:    119 Energy:     -7718.846016  Gnorm:      0.000028  CPU:  320.735
  ** Hessian has required structure
  Cycle:    120 Energy:     -7718.846017  Gnorm:      0.000027  CPU:  323.141
  ** Hessian has required structure


  **** Optimisation achieved ****


  Final energy =   -7718.84601753 eV
  Final Gnorm  =       0.00002648

  Components of energy : 

--------------------------------------------------------------------------------
  Interatomic potentials     =        2058.53838144 eV
  Three-body potentials      =           0.45647979 eV
  Monopole - monopole (real) =       -6579.54064768 eV
  Monopole - monopole (recip)=       -3191.84791124 eV
  Monopole - monopole (total)=       -9771.38855892 eV
  Neutralising energy        =          -6.45231983 eV
--------------------------------------------------------------------------------
  Total lattice energy       =       -7718.84601753 eV
--------------------------------------------------------------------------------
  Total lattice energy       =         -744750.6473 kJ/(mole unit cells)
--------------------------------------------------------------------------------

  Final fractional coordinates of atoms :

--------------------------------------------------------------------------------
   No.  Atomic        x           y          z          Radius
        Label       (Frac)      (Frac)     (Frac)       (Angs) 
--------------------------------------------------------------------------------
     1  Ge    c     0.699600    0.375700    0.033890    0.000000
     2  Si    c     0.618965    0.323295    0.369929    0.000000
     3  Si    c     0.670807    0.284434    0.700243    0.000000
     4  Si    c     0.295820    0.614644    0.537369    0.000000
     5  Si    c     0.381586    0.669778    0.869584    0.000000
     6  Si    c     0.322590    0.697422    0.206541    0.000000
     7  Si    c     0.376686    0.701095    0.307110    0.000000
     8  Si    c     0.329875    0.606160    0.969405    0.000000
     9  Si    c     0.290996    0.665698    0.637776    0.000000
    10  Si    c     0.619007    0.288791    0.800570    0.000000
    11  Si    c     0.675275    0.373926    0.470267    0.000000
    12  Si    c     0.692344    0.318621    0.137822    0.000000
    13  Si    c     0.525245    0.395208    0.964762    0.000000
    14  Si    c     0.578947    0.111961    0.305468    0.000000
    15  Si    c     0.881658    0.458506    0.635781    0.000000
    16  Si    c     0.469894    0.578528    0.473091    0.000000
    17  Si    c     0.414310    0.879157    0.804391    0.000000
    18  Si    c     0.116882    0.527410    0.140882    0.000000
    19  Si    c     0.416407    0.529288    0.371694    0.000000
    20  Si    c     0.129932    0.584497    0.037164    0.000000
    21  Si    c     0.463103    0.874459    0.702880    0.000000
    22  Si    c     0.581814    0.461681    0.864332    0.000000
    23  Si    c     0.885624    0.409527    0.534379    0.000000
    24  Si    c     0.525423    0.104758    0.204101    0.000000
    25  Si    c     0.302320    0.392694    0.850708    0.000000
    26  Si    c     0.600976    0.898814    0.191517    0.000000
    27  Si    c     0.095120    0.690837    0.521547    0.000000
    28  Si    c     0.696649    0.602164    0.356175    0.000000
    29  Si    c     0.392308    0.083486    0.687702    0.000000
    30  Si    c     0.910674    0.300008    0.021109    0.000000
    31  Si    c     0.397710    0.296864    0.486345    0.000000
    32  Ge    c     0.900601    0.602494    0.155114    0.000000
    33  Si    c     0.695528    0.088087    0.816483    0.000000
    34  Si    c     0.606172    0.676514    0.984877    0.000000
    35  Si    c     0.089455    0.386404    0.651189    0.000000
    36  Si    c     0.298438    0.901687    0.320196    0.000000
    37  Si    c     0.250455    0.326502    0.950448    0.000000
    38  Si    c     0.657575    0.910942    0.292168    0.000000
    39  Si    c     0.083012    0.738114    0.621888    0.000000
    40  Si    c     0.748023    0.655884    0.456752    0.000000
    41  Si    c     0.336709    0.080100    0.788216    0.000000
    42  Si    c     0.910807    0.247782    0.123285    0.000000
    43  Si    c     0.338802    0.250175    0.385924    0.000000
    44  Ge    c     0.921551    0.647388    0.053860    0.000000
    45  Si    c     0.742531    0.075846    0.716086    0.000000
    46  Si    c     0.662718    0.739281    0.884374    0.000000
    47  Si    c     0.086521    0.332681    0.550651    0.000000
    48  Si    c     0.246625    0.903955    0.219604    0.000000
    49  Si    c     0.971429    0.117195    0.968478    0.000000
    50  Si    c     0.877398    0.853491    0.307120    0.000000
    51  Si    c     0.144979    0.017792    0.637321    0.000000
    52  Si    c     0.028306    0.872917    0.472073    0.000000
    53  Si    c     0.119460    0.143658    0.802550    0.000000
    54  Si    c     0.847142    0.966717    0.139616    0.000000
    55  Si    c     0.120296    0.970798    0.371568    0.000000
    56  Ge    c     0.855580    0.867368    0.036755    0.000000
    57  Si    c     0.022029    0.137834    0.702095    0.000000
    58  Si    c     0.876128    0.022134    0.868041    0.000000
    59  Si    c     0.149451    0.115564    0.536790    0.000000
    60  Si    c     0.967442    0.848877    0.207042    0.000000
    61  O3    c     0.923763    0.002242    0.002579    0.000000
    62  O2    c     0.996313    0.930248    0.340729    0.000000
    63  O2    c     0.065190    0.058305    0.670214    0.000000
    64  O2    c     0.069349    0.992733    0.505115    0.000000
    65  O2    c     0.000359    0.066148    0.836516    0.000000
    66  O2    c     0.929670    0.929449    0.172909    0.000000
    67  O2    c     0.338702    0.578712    0.340170    0.000000
    68  O2    c     0.412308    0.747999    0.671141    0.000000
    69  O2    c     0.256388    0.648304    0.005511    0.000000
    70  O2    c     0.658906    0.415114    0.831355    0.000000
    71  O2    c     0.572247    0.227176    0.170571    0.000000
    72  O2    c     0.760869    0.334156    0.501789    0.000000
    73  O3    c     0.570615    0.316934    0.996361    0.000000
    74  O2    c     0.754273    0.407284    0.667213    0.000000
    75  O2    c     0.656116    0.239063    0.336726    0.000000
    76  O2    c     0.421085    0.654208    0.505703    0.000000
    77  O2    c     0.240642    0.573463    0.173969    0.000000
    78  O2    c     0.341943    0.755856    0.838141    0.000000
    79  O2    c     0.126471    0.199564    0.970573    0.000000
    80  O2    c     0.784224    0.913928    0.313005    0.000000
    81  O2    c     0.080604    0.863110    0.641722    0.000000
    82  O2    c     0.874139    0.781343    0.476972    0.000000
    83  O2    c     0.211084    0.081215    0.808192    0.000000
    84  O2    c     0.904280    0.121397    0.145185    0.000000
    85  O2    c     0.212079    0.124874    0.365884    0.000000
    86  O1    c     0.937987    0.791874    0.030296    0.000000
    87  O2    c     0.867958    0.073841    0.696296    0.000000
    88  O2    c     0.787636    0.867153    0.864103    0.000000
    89  O2    c     0.087417    0.207196    0.530537    0.000000
    90  O2    c     0.120662    0.902540    0.199152    0.000000
    91  O2    c     0.936625    0.876292    0.257290    0.000000
    92  O2    c     0.134631    0.062998    0.587399    0.000000
    93  O2    c     0.922524    0.063168    0.918709    0.000000
    94  O2    c     0.061506    0.125169    0.752681    0.000000
    95  O3    c     0.859967    0.931855    0.089644    0.000000
    96  O2    c     0.070230    0.930204    0.422210    0.000000
    97  O2    c     0.916016    0.211217    0.981421    0.000000
    98  O2    c     0.794556    0.700383    0.317789    0.000000
    99  O2    c     0.295853    0.085016    0.649497    0.000000
   100  O2    c     0.097671    0.790350    0.483387    0.000000
   101  O2    c     0.203357    0.296884    0.812318    0.000000
   102  O2    c     0.696010    0.894618    0.153412    0.000000
   103  O2    c     0.200177    0.900200    0.358276    0.000000
   104  O3    c     0.693150    0.765120    0.025185    0.000000
   105  O2    c     0.090403    0.289258    0.689537    0.000000
   106  O2    c     0.793957    0.090161    0.854501    0.000000
   107  O2    c     0.301188    0.197247    0.524616    0.000000
   108  O3    c     0.894737    0.697722    0.199106    0.000000
   109  O2    c     0.321570    0.641682    0.257074    0.000000
   110  O2    c     0.350761    0.669381    0.587790    0.000000
   111  O2    c     0.323618    0.664840    0.920015    0.000000
   112  O2    c     0.673985    0.343758    0.750042    0.000000
   113  O3    c     0.637876    0.321114    0.088443    0.000000
   114  O2    c     0.675852    0.319880    0.419722    0.000000
   115  O2    c     0.369314    0.309423    0.967054    0.000000
   116  O2    c     0.666867    0.044025    0.308896    0.000000
   117  O2    c     0.949891    0.614639    0.639410    0.000000
   118  O2    c     0.626130    0.665550    0.475657    0.000000
   119  O2    c     0.326853    0.947896    0.807241    0.000000
   120  O2    c     0.040418    0.370664    0.142302    0.000000
   121  O2    c     0.328724    0.373127    0.368202    0.000000
   122  O3    c     0.072915    0.678266    0.033677    0.000000
   123  O2    c     0.619141    0.942474    0.699084    0.000000
   124  O2    c     0.669593    0.618284    0.862925    0.000000
   125  O2    c     0.954959    0.322673    0.531543    0.000000
   126  O2    c     0.369491    0.034877    0.200309    0.000000
   127  O3    c     0.776432    0.293532    0.015319    0.000000
   128  O2    c     0.694687    0.467444    0.347805    0.000000
   129  O2    c     0.526810    0.216151    0.678818    0.000000
   130  O2    c     0.229110    0.690689    0.514560    0.000000
   131  O2    c     0.307367    0.529661    0.844877    0.000000
   132  O2    c     0.465710    0.766108    0.184148    0.000000
   133  O2    c     0.300056    0.768633    0.328365    0.000000
   134  O2    c     0.472786    0.678073    0.990537    0.000000
   135  O2    c     0.222101    0.521110    0.659322    0.000000
   136  O2    c     0.694994    0.222048    0.823346    0.000000
   137  O2    c     0.532256    0.297624    0.492933    0.000000
   138  O3    c     0.757397    0.457121    0.161528    0.000000
   139  O1    c     0.782145    0.538076    0.025211    0.000000
   140  O2    c     0.463045    0.249114    0.365482    0.000000
   141  O2    c     0.743598    0.201335    0.695415    0.000000
   142  O2    c     0.214071    0.458720    0.531883    0.000000
   143  O2    c     0.537864    0.744892    0.866989    0.000000
   144  O2    c     0.245575    0.776491    0.201135    0.000000
   145  O2    c     0.532269    0.785261    0.312251    0.000000
   146  O2    c     0.250241    0.449639    0.972654    0.000000
   147  O2    c     0.208372    0.738980    0.642173    0.000000
   148  O2    c     0.463211    0.206720    0.806706    0.000000
   149  O2    c     0.749063    0.529798    0.475618    0.000000
   150  O2    c     0.787761    0.259005    0.137465    0.000000
   151  O2    c     0.229264    0.314762    0.896302    0.000000
   152  O2    c     0.674526    0.904376    0.238126    0.000000
   153  O2    c     0.088122    0.759448    0.567720    0.000000
   154  O2    c     0.767083    0.675019    0.402526    0.000000
   155  O2    c     0.318642    0.080472    0.734032    0.000000
   156  O2    c     0.918201    0.237740    0.069146    0.000000
   157  O2    c     0.322391    0.228736    0.440084    0.000000
   158  O1    c     0.908100    0.692964    0.109393    0.000000
   159  O2    c     0.764061    0.081519    0.770169    0.000000
   160  O2    c     0.684072    0.749728    0.938682    0.000000
   161  O2    c     0.086195    0.313296    0.604824    0.000000
   162  O2    c     0.228201    0.904480    0.273786    0.000000
   163  O2    c     0.584477    0.532885    0.990864    0.000000
   164  O2    c     0.437720    0.027533    0.328569    0.000000
   165  O2    c     0.963999    0.400242    0.659391    0.000000
   166  O2    c     0.413041    0.436450    0.495722    0.000000
   167  O2    c     0.556348    0.963597    0.826347    0.000000
   168  O3    c     0.032907    0.582519    0.162977    0.000000
   169  O2    c     0.557160    0.588170    0.347979    0.000000
   170  O2    c     0.030036    0.444581    0.015806    0.000000
   171  O2    c     0.405085    0.957329    0.679495    0.000000
   172  O2    c     0.441121    0.406290    0.841195    0.000000
   173  O2    c     0.970530    0.551671    0.511758    0.000000
   174  O2    c     0.588559    0.025104    0.181965    0.000000
   175  O2    c     0.577921    0.162427    0.254320    0.000000
   176  O2    c     0.830723    0.407433    0.584878    0.000000
   177  O2    c     0.581386    0.402571    0.914002    0.000000
   178  O2    c     0.411599    0.823301    0.753996    0.000000
   179  O2    c     0.168835    0.576122    0.089727    0.000000
   180  O2    c     0.416759    0.580395    0.422593    0.000000
   181  F     c     0.449213    0.901308    0.255074    0.000000
   182  F     c     0.091763    0.538942    0.586083    0.000000
   183  F     c     0.451239    0.532203    0.917111    0.000000
   184  F     c     0.543498    0.085037    0.751934    0.000000
   185  F     c     0.902308    0.489271    0.084431    0.000000
   186  F     c     0.546972    0.449350    0.420828    0.000000
   187  O3    s     0.923427    0.004007    0.001552    0.000000
   188  O2    s     0.996907    0.926190    0.340422    0.000000
   189  O2    s     0.069284    0.062668    0.670101    0.000000
   190  O2    s     0.073741    0.993072    0.504960    0.000000
   191  O2    s     0.999804    0.069869    0.836233    0.000000
   192  O2    s     0.924815    0.924719    0.173015    0.000000
   193  O2    s     0.350622    0.586311    0.339977    0.000000
   194  O2    s     0.405044    0.752556    0.670966    0.000000
   195  O2    s     0.250423    0.637018    0.005143    0.000000
   196  O2    s     0.646898    0.406889    0.831559    0.000000
   197  O2    s     0.579810    0.223780    0.170671    0.000000
   198  O2    s     0.764886    0.345981    0.501887    0.000000
   199  O3    s     0.575909    0.329066    0.996118    0.000000
   200  O2    s     0.758847    0.399892    0.667377    0.000000
   201  O2    s     0.644319    0.234548    0.336901    0.000000
   202  O2    s     0.413287    0.642354    0.505594    0.000000
   203  O2    s     0.236399    0.581303    0.173920    0.000000
   204  O2    s     0.353493    0.759769    0.837896    0.000000
   205  O2    s     0.123084    0.204267    0.968223    0.000000
   206  O2    s     0.780939    0.907237    0.310255    0.000000
   207  O2    s     0.087682    0.866612    0.639231    0.000000
   208  O2    s     0.877443    0.778061    0.474380    0.000000
   209  O2    s     0.214406    0.087674    0.805563    0.000000
   210  O2    s     0.899215    0.119469    0.142282    0.000000
   211  O2    s     0.215424    0.121441    0.368535    0.000000
   212  O1    s     0.929553    0.789605    0.032337    0.000000
   213  O2    s     0.871333    0.080803    0.698917    0.000000
   214  O2    s     0.784151    0.870382    0.866582    0.000000
   215  O2    s     0.093914    0.210441    0.533251    0.000000
   216  O2    s     0.118365    0.897273    0.202044    0.000000
   217  O2    s     0.933345    0.870721    0.257385    0.000000
   218  O2    s     0.137481    0.063832    0.587312    0.000000
   219  O2    s     0.922675    0.064497    0.918437    0.000000
   220  O2    s     0.063580    0.128670    0.752593    0.000000
   221  O3    s     0.858146    0.930545    0.091020    0.000000
   222  O2    s     0.071169    0.928309    0.422103    0.000000
   223  O2    s     0.921317    0.210868    0.984310    0.000000
   224  O2    s     0.793317    0.706464    0.320549    0.000000
   225  O2    s     0.289605    0.077638    0.652128    0.000000
   226  O2    s     0.090046    0.788963    0.486078    0.000000
   227  O2    s     0.204522    0.290493    0.815147    0.000000
   228  O2    s     0.701833    0.902507    0.155931    0.000000
   229  O2    s     0.201816    0.907873    0.355756    0.000000
   230  O3    s     0.696977    0.764079    0.022028    0.000000
   231  O2    s     0.083022    0.283103    0.686939    0.000000
   232  O2    s     0.792533    0.082682    0.851996    0.000000
   233  O2    s     0.295018    0.198783    0.521998    0.000000
   234  O3    s     0.902590    0.706190    0.196719    0.000000
   235  O2    s     0.327262    0.653421    0.256970    0.000000
   236  O2    s     0.339047    0.663414    0.587725    0.000000
   237  O2    s     0.330092    0.659404    0.919868    0.000000
   238  O2    s     0.667989    0.331962    0.750123    0.000000
   239  O3    s     0.647794    0.325013    0.089186    0.000000
   240  O2    s     0.669969    0.325749    0.419785    0.000000
   241  O2    s     0.372858    0.320205    0.965014    0.000000
   242  O2    s     0.656819    0.037041    0.306771    0.000000
   243  O2    s     0.956822    0.611514    0.637191    0.000000
   244  O2    s     0.622801    0.655592    0.473408    0.000000
   245  O2    s     0.336807    0.954537    0.804972    0.000000
   246  O2    s     0.034612    0.373771    0.140148    0.000000
   247  O2    s     0.338817    0.376313    0.370430    0.000000
   248  O3    s     0.067802    0.666176    0.035560    0.000000
   249  O2    s     0.616042    0.949441    0.701261    0.000000
   250  O2    s     0.659863    0.614792    0.865307    0.000000
   251  O2    s     0.961556    0.332630    0.533833    0.000000
   252  O2    s     0.372718    0.028359    0.202732    0.000000
   253  O3    s     0.784589    0.300611    0.017406    0.000000
   254  O2    s     0.687148    0.466791    0.350973    0.000000
   255  O2    s     0.527488    0.209198    0.682000    0.000000
   256  O2    s     0.221878    0.682912    0.517662    0.000000
   257  O2    s     0.314396    0.529439    0.848032    0.000000
   258  O2    s     0.465152    0.772996    0.187274    0.000000
   259  O2    s     0.307783    0.775655    0.325280    0.000000
   260  O2    s     0.471480    0.670143    0.987600    0.000000
   261  O2    s     0.215212    0.521814    0.656207    0.000000
   262  O2    s     0.687262    0.214848    0.820264    0.000000
   263  O2    s     0.532794    0.305367    0.489885    0.000000
   264  O3    s     0.762259    0.454938    0.158654    0.000000
   265  O1    s     0.785627    0.532899    0.027947    0.000000
   266  O2    s     0.465883    0.257071    0.368130    0.000000
   267  O2    s     0.735825    0.196296    0.698119    0.000000
   268  O2    s     0.208688    0.461317    0.534454    0.000000
   269  O2    s     0.534888    0.736331    0.869120    0.000000
   270  O2    s     0.253692    0.782008    0.203629    0.000000
   271  O2    s     0.529594    0.790201    0.309562    0.000000
   272  O2    s     0.258595    0.452823    0.969971    0.000000
   273  O2    s     0.203328    0.731151    0.639547    0.000000
   274  O2    s     0.465642    0.201403    0.804105    0.000000
   275  O2    s     0.741153    0.527184    0.473044    0.000000
   276  O2    s     0.791576    0.264029    0.135927    0.000000
   277  O2    s     0.239169    0.324186    0.897268    0.000000
   278  O2    s     0.665010    0.904465    0.238954    0.000000
   279  O2    s     0.088311    0.749991    0.568627    0.000000
   280  O2    s     0.757688    0.665366    0.403396    0.000000
   281  O2    s     0.328282    0.080740    0.734924    0.000000
   282  O2    s     0.916672    0.245174    0.070011    0.000000
   283  O2    s     0.332030    0.238158    0.439188    0.000000
   284  O1    s     0.908258    0.682853    0.109300    0.000000
   285  O2    s     0.754560    0.081610    0.769286    0.000000
   286  O2    s     0.674194    0.741379    0.937637    0.000000
   287  O2    s     0.086565    0.323027    0.603947    0.000000
   288  O2    s     0.237540    0.904135    0.272925    0.000000
   289  O2    s     0.580625    0.534152    0.987606    0.000000
   290  O2    s     0.437502    0.022654    0.325252    0.000000
   291  O2    s     0.969121    0.404992    0.656045    0.000000
   292  O2    s     0.417500    0.436245    0.492346    0.000000
   293  O2    s     0.556487    0.968379    0.822953    0.000000
   294  O3    s     0.030694    0.578404    0.160080    0.000000
   295  O2    s     0.557515    0.583384    0.351322    0.000000
   296  O2    s     0.027202    0.443321    0.018605    0.000000
   297  O2    s     0.409941    0.962447    0.682829    0.000000
   298  O2    s     0.440846    0.410772    0.844626    0.000000
   299  O2    s     0.975239    0.551791    0.515178    0.000000
   300  O2    s     0.583240    0.019774    0.185282    0.000000
   301  O2    s     0.572599    0.151244    0.254420    0.000000
   302  O2    s     0.841746    0.412969    0.584914    0.000000
   303  O2    s     0.575653    0.407955    0.914086    0.000000
   304  O2    s     0.417201    0.834345    0.753904    0.000000
   305  O2    s     0.159604    0.571915    0.089804    0.000000
   306  O2    s     0.422231    0.574875    0.422521    0.000000
   307  F     s     0.449039    0.901024    0.254995    0.000000
   308  F     s     0.092130    0.539155    0.586054    0.000000
   309  F     s     0.450762    0.532030    0.917106    0.000000
   310  F     s     0.543706    0.085429    0.751918    0.000000
   311  F     s     0.901967    0.496806    0.083321    0.000000
   312  F     s     0.547169    0.449120    0.420777    0.000000
--------------------------------------------------------------------------------

  Final Cartesian lattice vectors (Angstroms) :

       11.990916    0.004995   -0.000893
       -6.005543   10.359526    0.018462
        0.013603    0.108436   29.536826


  Final cell parameters and derivatives :

--------------------------------------------------------------------------------
       a           11.990917 Angstrom     dE/de1(xx)     0.001571 eV/strain
       b           11.974417 Angstrom     dE/de2(yy)     0.001869 eV/strain
       c           29.537028 Angstrom     dE/de3(zz)     0.001683 eV/strain
       alpha       89.742917 Degrees      dE/de4(yz)    -0.000522 eV/strain
       beta        89.977792 Degrees      dE/de5(xz)     0.000048 eV/strain
       gamma      120.077490 Degrees      dE/de6(xy)    -0.000209 eV/strain
--------------------------------------------------------------------------------

  Primitive cell volume =          3669.933333 Angs**3

  Density of cell =      1.763525 g/cm**3

  Non-primitive cell volume =          3669.933333 Angs**3


  Final internal derivatives :

--------------------------------------------------------------------------------
   No.  Atomic          a             b             c           Radius
        Label          (eV)          (eV)          (eV)        (eV/Angs)
--------------------------------------------------------------------------------
      1 Ge    c       0.000000      0.000000      0.000000      0.000000
      2 Si    c      -0.000011     -0.000064     -0.000006      0.000000
      3 Si    c       0.000061      0.000567     -0.000103      0.000000
      4 Si    c      -0.000084     -0.000013     -0.000456      0.000000
      5 Si    c      -0.000305      0.000021     -0.000739      0.000000
      6 Si    c      -0.000106      0.000040     -0.000917      0.000000
      7 Si    c      -0.000066     -0.000259     -0.000391      0.000000
      8 Si    c      -0.000113      0.000179     -0.001365      0.000000
      9 Si    c       0.000130      0.000281     -0.000429      0.000000
     10 Si    c      -0.000218      0.000223     -0.000351      0.000000
     11 Si    c      -0.000123      0.000162     -0.000107      0.000000
     12 Si    c       0.000255     -0.000445      0.000272      0.000000
     13 Si    c      -0.000291      0.001270     -0.002241      0.000000
     14 Si    c       0.000162     -0.000198     -0.000251      0.000000
     15 Si    c       0.000092      0.000393     -0.000088      0.000000
     16 Si    c      -0.000101     -0.000066     -0.000285      0.000000
     17 Si    c      -0.000174      0.000207     -0.000495      0.000000
     18 Si    c      -0.000377      0.000085     -0.000325      0.000000
     19 Si    c      -0.000105     -0.000274     -0.000787      0.000000
     20 Si    c      -0.001089     -0.000222      0.001127      0.000000
     21 Si    c       0.000123      0.000487     -0.000504      0.000000
     22 Si    c      -0.000422      0.000327     -0.000184      0.000000
     23 Si    c      -0.000133      0.000160     -0.000006      0.000000
     24 Si    c       0.000118     -0.000105      0.000148      0.000000
     25 Si    c      -0.000212      0.000032      0.000127      0.000000
     26 Si    c       0.000106     -0.000007     -0.000270      0.000000
     27 Si    c      -0.000250      0.000140     -0.000353      0.000000
     28 Si    c      -0.000029     -0.000213     -0.000528      0.000000
     29 Si    c       0.000072      0.000486     -0.000340      0.000000
     30 Si    c      -0.000342     -0.000352      0.000557      0.000000
     31 Si    c      -0.000205      0.000104      0.000016      0.000000
     32 Ge    c       0.000008      0.000224     -0.000494      0.000000
     33 Si    c      -0.000221      0.000231     -0.000441      0.000000
     34 Si    c      -0.000257      0.000772     -0.000352      0.000000
     35 Si    c       0.000194      0.000376     -0.000100      0.000000
     36 Si    c       0.000053     -0.000188      0.000119      0.000000
     37 Si    c      -0.000014      0.000532     -0.001099      0.000000
     38 Si    c       0.000048     -0.000217     -0.000080      0.000000
     39 Si    c       0.000065      0.000395     -0.000096      0.000000
     40 Si    c      -0.000126      0.000052     -0.000051      0.000000
     41 Si    c      -0.000166      0.000170     -0.000278      0.000000
     42 Si    c      -0.000167     -0.000170     -0.000622      0.000000
     43 Si    c      -0.000033     -0.000207     -0.000413      0.000000
     44 Ge    c       0.000366     -0.000541     -0.000965      0.000000
     45 Si    c       0.000091      0.000569     -0.000386      0.000000
     46 Si    c      -0.000446      0.000415     -0.000449      0.000000
     47 Si    c      -0.000107      0.000111     -0.000261      0.000000
     48 Si    c      -0.000010     -0.000026     -0.000466      0.000000
     49 Si    c      -0.000048      0.000670     -0.003425      0.000000
     50 Si    c      -0.000029     -0.000433     -0.000304      0.000000
     51 Si    c       0.000105      0.000340     -0.000078      0.000000
     52 Si    c      -0.000072     -0.000051     -0.000187      0.000000
     53 Si    c      -0.000179      0.000074     -0.000144      0.000000
     54 Si    c       0.000094      0.000092     -0.000715      0.000000
     55 Si    c       0.000064     -0.000235     -0.000693      0.000000
     56 Ge    c      -0.000806     -0.000106      0.001477      0.000000
     57 Si    c       0.000075      0.000505     -0.000570      0.000000
     58 Si    c      -0.000145      0.000065     -0.000260      0.000000
     59 Si    c      -0.000123      0.000122     -0.000591      0.000000
     60 Si    c       0.000075     -0.000232     -0.000779      0.000000
     61 O3    c       0.000857      0.001204     -0.002860      0.000000
     62 O2    c       0.000074     -0.000392     -0.000030      0.000000
     63 O2    c      -0.000142      0.000415      0.000162      0.000000
     64 O2    c      -0.000116      0.000240      0.000356      0.000000
     65 O2    c      -0.000465     -0.000075     -0.000022      0.000000
     66 O2    c       0.000218      0.000025     -0.000269      0.000000
     67 O2    c      -0.000062     -0.000431      0.000605      0.000000
     68 O2    c       0.000412      0.000608      0.001016      0.000000
     69 O2    c      -0.000712      0.000571     -0.000029      0.000000
     70 O2    c      -0.000236      0.000143     -0.000375      0.000000
     71 O2    c       0.000051      0.000111     -0.000559      0.000000
     72 O2    c      -0.000180      0.000076     -0.000400      0.000000
     73 O3    c      -0.001279      0.000449     -0.001535      0.000000
     74 O2    c       0.000201      0.000647     -0.000655      0.000000
     75 O2    c       0.000299     -0.000501     -0.000974      0.000000
     76 O2    c      -0.000236      0.000060      0.000787      0.000000
     77 O2    c       0.000111      0.000086      0.000937      0.000000
     78 O2    c      -0.000414     -0.000024      0.000607      0.000000
     79 O2    c       0.000572      0.000616      0.000454      0.000000
     80 O2    c      -0.000045     -0.000348     -0.000304      0.000000
     81 O2    c       0.000225      0.000330      0.000140      0.000000
     82 O2    c      -0.000140      0.000122     -0.000202      0.000000
     83 O2    c      -0.000263      0.000030     -0.000428      0.000000
     84 O2    c       0.000135      0.000058     -0.000946      0.000000
     85 O2    c       0.000041     -0.000257     -0.000551      0.000000
     86 O1    c       0.000430     -0.001285     -0.004994      0.000000
     87 O2    c       0.000088      0.000627     -0.000560      0.000000
     88 O2    c      -0.000364      0.000174     -0.000183      0.000000
     89 O2    c      -0.000242      0.000068     -0.000027      0.000000
     90 O2    c       0.000100      0.000034     -0.000199      0.000000
     91 O2    c      -0.000129     -0.000341     -0.000396      0.000000
     92 O2    c      -0.000012      0.000069     -0.000104      0.000000
     93 O2    c       0.000246      0.000269     -0.000101      0.000000
     94 O2    c       0.000107      0.000285      0.000130      0.000000
     95 O3    c       0.000074      0.000249      0.002158      0.000000
     96 O2    c      -0.000006     -0.000127      0.000278      0.000000
     97 O2    c      -0.001502      0.000901      0.000288      0.000000
     98 O2    c       0.000012     -0.000361     -0.000694      0.000000
     99 O2    c       0.000088      0.000576     -0.000450      0.000000
    100 O2    c      -0.000169     -0.000047      0.000005      0.000000
    101 O2    c      -0.000272      0.000006      0.000359      0.000000
    102 O2    c       0.000135      0.000052     -0.000451      0.000000
    103 O2    c       0.000207     -0.000336     -0.000224      0.000000
    104 O3    c      -0.001343      0.000893     -0.001279      0.000000
    105 O2    c       0.000274      0.000437      0.000393      0.000000
    106 O2    c      -0.000217      0.000183     -0.000375      0.000000
    107 O2    c      -0.000115      0.000238     -0.000760      0.000000
    108 O3    c       0.000117      0.000004     -0.001138      0.000000
    109 O2    c       0.000038     -0.000177      0.001757      0.000000
    110 O2    c       0.000078      0.000208      0.000932      0.000000
    111 O2    c      -0.000644      0.000374      0.001072      0.000000
    112 O2    c      -0.000070      0.000467     -0.000747      0.000000
    113 O3    c      -0.000760     -0.000542     -0.003247      0.000000
    114 O2    c       0.000039     -0.000007     -0.000732      0.000000
    115 O2    c       0.000026      0.000841     -0.000306      0.000000
    116 O2    c       0.000132     -0.000294     -0.000346      0.000000
    117 O2    c       0.000121      0.000420     -0.000045      0.000000
    118 O2    c      -0.000196      0.000055     -0.000264      0.000000
    119 O2    c      -0.000142      0.000173     -0.000250      0.000000
    120 O2    c       0.000210      0.000181      0.000154      0.000000
    121 O2    c      -0.000055     -0.000257     -0.000348      0.000000
    122 O3    c      -0.000625     -0.000265      0.000498      0.000000
    123 O2    c       0.000129      0.000589     -0.000212      0.000000
    124 O2    c      -0.000215      0.000077     -0.000628      0.000000
    125 O2    c      -0.000233      0.000148     -0.000006      0.000000
    126 O2    c       0.000063      0.000016     -0.000184      0.000000
    127 O3    c       0.000156     -0.000788      0.000754      0.000000
    128 O2    c       0.000107     -0.000346     -0.000511      0.000000
    129 O2    c       0.000081      0.000620     -0.000313      0.000000
    130 O2    c      -0.000106     -0.000109      0.000089      0.000000
    131 O2    c      -0.000490      0.000026     -0.000042      0.000000
    132 O2    c       0.000042      0.000040      0.000037      0.000000
    133 O2    c       0.000043     -0.000256      0.000381      0.000000
    134 O2    c      -0.000437      0.000726      0.000327      0.000000
    135 O2    c       0.000331      0.000448      0.000141      0.000000
    136 O2    c      -0.000267      0.000153     -0.000682      0.000000
    137 O2    c      -0.000040      0.000135     -0.000198      0.000000
    138 O3    c      -0.000262      0.000179      0.000207      0.000000
    139 O1    c      -0.002182      0.001756     -0.006087      0.000000
    140 O2    c       0.000097     -0.000235     -0.000444      0.000000
    141 O2    c       0.000123      0.000639     -0.000309      0.000000
    142 O2    c      -0.000073      0.000042     -0.000233      0.000000
    143 O2    c      -0.000527      0.000166     -0.000486      0.000000
    144 O2    c       0.000058     -0.000015     -0.000590      0.000000
    145 O2    c      -0.000036     -0.000314      0.000001      0.000000
    146 O2    c      -0.000535      0.000821      0.000694      0.000000
    147 O2    c       0.000239      0.000313      0.000024      0.000000
    148 O2    c      -0.000250      0.000238     -0.000338      0.000000
    149 O2    c      -0.000078      0.000102     -0.000063      0.000000
    150 O2    c      -0.000188      0.000098     -0.000689      0.000000
    151 O2    c      -0.000086      0.000250      0.000561      0.000000
    152 O2    c       0.000132     -0.000040     -0.000652      0.000000
    153 O2    c      -0.000025      0.000221      0.000007      0.000000
    154 O2    c      -0.000039     -0.000110     -0.000373      0.000000
    155 O2    c      -0.000132      0.000325     -0.000206      0.000000
    156 O2    c      -0.000770     -0.000431     -0.001138      0.000000
    157 O2    c      -0.000115     -0.000080     -0.000619      0.000000
    158 O1    c      -0.000650      0.000455      0.009615      0.000000
    159 O2    c      -0.000003      0.000417     -0.000264      0.000000
    160 O2    c      -0.000383      0.000689      0.000579      0.000000
    161 O2    c       0.000045      0.000277      0.000308      0.000000
    162 O2    c       0.000043     -0.000142      0.000098      0.000000
    163 O2    c       0.000495      0.001122      0.001608      0.000000
    164 O2    c       0.000067     -0.000270      0.000094      0.000000
    165 O2    c       0.000184      0.000523     -0.000333      0.000000
    166 O2    c      -0.000233      0.000163      0.000050      0.000000
    167 O2    c      -0.000222      0.000125     -0.000418      0.000000
    168 O3    c      -0.000154     -0.000055      0.000315      0.000000
    169 O2    c      -0.000105     -0.000299     -0.000117      0.000000
    170 O2    c      -0.000514     -0.000427     -0.001103      0.000000
    171 O2    c       0.000125      0.000570      0.000020      0.000000
    172 O2    c      -0.000139      0.000112     -0.000142      0.000000
    173 O2    c      -0.000285      0.000071     -0.000338      0.000000
    174 O2    c       0.000176     -0.000020     -0.000212      0.000000
    175 O2    c       0.000229     -0.000138     -0.000304      0.000000
    176 O2    c      -0.000063      0.000189     -0.000650      0.000000
    177 O2    c      -0.000056      0.000637     -0.000066      0.000000
    178 O2    c      -0.000108      0.000320      0.000887      0.000000
    179 O2    c      -0.000286      0.000123     -0.000240      0.000000
    180 O2    c      -0.000186     -0.000024      0.001079      0.000000
    181 F     c       0.000211      0.000062     -0.000371      0.000000
    182 F     c      -0.000037      0.000163     -0.000370      0.000000
    183 F     c      -0.000324      0.000596     -0.000163      0.000000
    184 F     c      -0.000073      0.000391     -0.000263      0.000000
    185 F     c      -0.001428     -0.000343     -0.001189      0.000000
    186 F     c      -0.000104     -0.000059     -0.000367      0.000000
    187 O3    s       0.000223     -0.000189      0.002235      0.000000
    188 O2    s       0.000001     -0.000328     -0.000785      0.000000
    189 O2    s      -0.000102      0.000409     -0.001031      0.000000
    190 O2    s      -0.000135      0.000171     -0.001198      0.000000
    191 O2    s      -0.000371     -0.000048     -0.000948      0.000000
    192 O2    s       0.000079      0.000140     -0.000034      0.000000
    193 O2    s       0.000058     -0.000457     -0.001521      0.000000
    194 O2    s       0.000234      0.000693     -0.001960      0.000000
    195 O2    s      -0.000891      0.000320     -0.001497      0.000000
    196 O2    s      -0.000164      0.000007      0.000287      0.000000
    197 O2    s       0.000085     -0.000030      0.000153      0.000000
    198 O2    s      -0.000184      0.000070      0.000118      0.000000
    199 O3    s       0.000765      0.000552      0.001022      0.000000
    200 O2    s       0.000230      0.000542      0.000354      0.000000
    201 O2    s       0.000130     -0.000251      0.000340      0.000000
    202 O2    s      -0.000331      0.000172     -0.001971      0.000000
    203 O2    s       0.000216      0.000041     -0.001948      0.000000
    204 O2    s      -0.000359     -0.000040     -0.001696      0.000000
    205 O2    s       0.000305      0.000499     -0.001489      0.000000
    206 O2    s      -0.000004     -0.000400     -0.000273      0.000000
    207 O2    s       0.000146      0.000409     -0.000902      0.000000
    208 O2    s      -0.000114      0.000146     -0.000597      0.000000
    209 O2    s      -0.000226      0.000053     -0.000143      0.000000
    210 O2    s       0.000067      0.000059      0.000799      0.000000
    211 O2    s      -0.000040     -0.000184     -0.000280      0.000000
    212 O1    s      -0.000145      0.000186      0.005210      0.000000
    213 O2    s       0.000076      0.000583     -0.000183      0.000000
    214 O2    s      -0.000399      0.000248     -0.000858      0.000000
    215 O2    s      -0.000238      0.000053     -0.000800      0.000000
    216 O2    s       0.000143      0.000073     -0.000499      0.000000
    217 O2    s      -0.000102     -0.000303     -0.000298      0.000000
    218 O2    s      -0.000058      0.000186     -0.000630      0.000000
    219 O2    s       0.000094      0.000202     -0.001344      0.000000
    220 O2    s       0.000055      0.000286     -0.000764      0.000000
    221 O3    s       0.000011      0.000313     -0.001955      0.000000
    222 O2    s      -0.000031     -0.000045     -0.000529      0.000000
    223 O2    s      -0.000900      0.000331     -0.000579      0.000000
    224 O2    s      -0.000033     -0.000325      0.000013      0.000000
    225 O2    s       0.000128      0.000558     -0.000226      0.000000
    226 O2    s      -0.000144      0.000012     -0.000738      0.000000
    227 O2    s      -0.000249      0.000019     -0.001047      0.000000
    228 O2    s      -0.000041      0.000114     -0.000147      0.000000
    229 O2    s       0.000034     -0.000238     -0.000519      0.000000
    230 O3    s      -0.000653      0.001380      0.000723      0.000000
    231 O2    s       0.000224      0.000436     -0.001221      0.000000
    232 O2    s      -0.000325      0.000237     -0.000125      0.000000
    233 O2    s      -0.000144      0.000194      0.000084      0.000000
    234 O3    s      -0.000029      0.000038      0.000721      0.000000
    235 O2    s       0.000007     -0.000059     -0.002085      0.000000
    236 O2    s      -0.000035      0.000302     -0.001324      0.000000
    237 O2    s      -0.000489      0.000322     -0.001426      0.000000
    238 O2    s      -0.000020      0.000413      0.000103      0.000000
    239 O3    s      -0.000333     -0.000302      0.001879      0.000000
    240 O2    s       0.000032     -0.000007      0.000056      0.000000
    241 O2    s       0.000314      0.000694      0.000515      0.000000
    242 O2    s       0.000086     -0.000269     -0.000040      0.000000
    243 O2    s       0.000159      0.000385     -0.000556      0.000000
    244 O2    s      -0.000178      0.000127     -0.000637      0.000000
    245 O2    s      -0.000207      0.000169     -0.000526      0.000000
    246 O2    s       0.000314     -0.000150     -0.000738      0.000000
    247 O2    s      -0.000099     -0.000212     -0.000611      0.000000
    248 O3    s      -0.001679      0.000216     -0.001331      0.000000
    249 O2    s       0.000076      0.000603     -0.000702      0.000000
    250 O2    s      -0.000192      0.000169     -0.000218      0.000000
    251 O2    s      -0.000150      0.000087     -0.000786      0.000000
    252 O2    s       0.000117     -0.000022     -0.000374      0.000000
    253 O3    s      -0.001092      0.000286     -0.002277      0.000000
    254 O2    s      -0.000025     -0.000139     -0.000225      0.000000
    255 O2    s       0.000081      0.000541     -0.000334      0.000000
    256 O2    s      -0.000239      0.000029     -0.001071      0.000000
    257 O2    s      -0.000594      0.000087     -0.001049      0.000000
    258 O2    s       0.000055     -0.000001     -0.000945      0.000000
    259 O2    s       0.000010     -0.000185     -0.001400      0.000000
    260 O2    s      -0.000521      0.000782     -0.001155      0.000000
    261 O2    s       0.000197      0.000417     -0.000974      0.000000
    262 O2    s      -0.000276      0.000193      0.000577      0.000000
    263 O2    s      -0.000180      0.000152     -0.000412      0.000000
    264 O3    s      -0.000177     -0.000097     -0.000389      0.000000
    265 O1    s       0.001050     -0.001758      0.006098      0.000000
    266 O2    s      -0.000002     -0.000162     -0.000305      0.000000
    267 O2    s       0.000068      0.000631     -0.000281      0.000000
    268 O2    s      -0.000221      0.000077     -0.000690      0.000000
    269 O2    s      -0.000531      0.000326     -0.000499      0.000000
    270 O2    s       0.000107      0.000037     -0.000060      0.000000
    271 O2    s       0.000014     -0.000306     -0.000921      0.000000
    272 O2    s      -0.000409      0.000539     -0.001261      0.000000
    273 O2    s       0.000159      0.000381     -0.000868      0.000000
    274 O2    s      -0.000227      0.000198     -0.000088      0.000000
    275 O2    s      -0.000134      0.000139     -0.000573      0.000000
    276 O2    s      -0.000194     -0.000192      0.001011      0.000000
    277 O2    s      -0.000287      0.000181     -0.001057      0.000000
    278 O2    s       0.000092     -0.000097     -0.000198      0.000000
    279 O2    s      -0.000034      0.000230     -0.000516      0.000000
    280 O2    s      -0.000079     -0.000130     -0.000486      0.000000
    281 O2    s      -0.000057      0.000289     -0.000557      0.000000
    282 O2    s      -0.000637     -0.000437     -0.000575      0.000000
    283 O2    s      -0.000128      0.000024     -0.000230      0.000000
    284 O1    s       0.000452     -0.000463     -0.009936      0.000000
    285 O2    s      -0.000012      0.000394     -0.000306      0.000000
    286 O2    s      -0.000739      0.000740     -0.000734      0.000000
    287 O2    s       0.000036      0.000291     -0.000739      0.000000
    288 O2    s       0.000120     -0.000197     -0.000568      0.000000
    289 O2    s      -0.001409      0.001048     -0.002855      0.000000
    290 O2    s       0.000158     -0.000290     -0.000712      0.000000
    291 O2    s       0.000203      0.000469     -0.000130      0.000000
    292 O2    s      -0.000184      0.000059     -0.001041      0.000000
    293 O2    s      -0.000205      0.000152     -0.000164      0.000000
    294 O3    s       0.000092     -0.000050     -0.000934      0.000000
    295 O2    s      -0.000059     -0.000294     -0.000846      0.000000
    296 O2    s      -0.000652     -0.000248      0.000299      0.000000
    297 O2    s       0.000154      0.000523     -0.001065      0.000000
    298 O2    s      -0.000191     -0.000077     -0.000597      0.000000
    299 O2    s      -0.000230      0.000073     -0.000313      0.000000
    300 O2    s       0.000051      0.000045     -0.000551      0.000000
    301 O2    s       0.000146     -0.000095     -0.000144      0.000000
    302 O2    s      -0.000062      0.000237      0.000037      0.000000
    303 O2    s      -0.000087      0.000600      0.000432      0.000000
    304 O2    s      -0.000127      0.000421     -0.001499      0.000000
    305 O2    s      -0.000056     -0.000001     -0.000348      0.000000
    306 O2    s      -0.000084     -0.000146     -0.001591      0.000000
    307 F     s       0.000192      0.000013     -0.000298      0.000000
    308 F     s       0.000001      0.000170     -0.000232      0.000000
    309 F     s      -0.000579      0.001022     -0.000423      0.000000
    310 F     s      -0.000078      0.000409     -0.000453      0.000000
    311 F     s      -0.001134     -0.000611     -0.000173      0.000000
    312 F     s      -0.000113     -0.000035     -0.000408      0.000000
--------------------------------------------------------------------------------
  Maximum abs         0.002182      0.001758      0.009936      0.000000
--------------------------------------------------------------------------------


  Time to end of optimisation =     326.2184 seconds


  Peak dynamic memory used =      19.13 MB 


  Timing analysis for GULP :

--------------------------------------------------------------------------------
  Task / Subroutine                                          Time (Seconds)
--------------------------------------------------------------------------------
  Calculation of reciprocal space energy and derivatives          5.8979
  Calculation of real space energy and derivatives              174.2048
  Calculation of three-body energy and derivatives               19.8498
  Global summation overhead                                       0.0001
--------------------------------------------------------------------------------
  Total CPU time                                                326.2184
--------------------------------------------------------------------------------


  Dump file written as out.res                                                 
  CIF file written as out.cif                                                 


  Job Finished at 08:51.04  6th December   2016                               

