********************************************************************************
*                       GENERAL UTILITY LATTICE PROGRAM                        *
*                                 Julian Gale                                  *
*                      Nanochemistry Research Institute                        *
*                           Department of Chemistry                            *
*                    Curtin University, Western Australia                      *
********************************************************************************
* Version = 4.2.0 * Last modified =  20th January 2014                         *
********************************************************************************
*  optimise     - perform optimisation run                                     *
*  conp         - constant pressure calculation                                *
*  qok          - running with non charge neutral cell is OK                   *
*  rfo          - optimisation step to be determined by RFO method             *
********************************************************************************

  Job Started  at 21:43.10  6th December   2016                               

  Number of CPUs =     1


  Total number of configurations input =   1

********************************************************************************
*  Input for Configuration =   1                                               *
********************************************************************************

  Formula = Si56Ge4O120F6                                               

  Number of irreducible atoms/shells =     312


  Total number atoms/shells =     312

  Dimensionality = 3               :  Bulk   


  Charge on solid   =  -6.000000 =>neutralising background added


  Cartesian lattice vectors (Angstroms) :

       11.968061    0.000000    0.000000
       -5.916240   10.404304    0.000000
        0.148380   -0.019405   29.431996

  Cell parameters (Angstroms/Degrees):

  a =      11.9681    alpha =  90.1756
  b =      11.9688    beta  =  89.7111
  c =      29.4324    gamma = 119.6240

  Initial cell volume =        3664.852737 Angs**3

  Temperature of configuration =  0.000     K 

  Pressure of configuration =         0.000 GPa 

  Fractional coordinates of asymmetric unit :

--------------------------------------------------------------------------------
   No.  Atomic       x           y          z         Charge      Occupancy
        Label      (Frac)      (Frac)     (Frac)        (e)         (Frac)  
--------------------------------------------------------------------------------
      1 Si    c    0.699600    0.375700    0.033890     4.00000    1.000000    
      2 Si    c    0.622455 *  0.321008 *  0.368018 *   4.00000    1.000000    
      3 Si    c    0.675536 *  0.294022 *  0.698095 *   4.00000    1.000000    
      4 Si    c    0.298161 *  0.618860 *  0.534423 *   4.00000    1.000000    
      5 Si    c    0.382089 *  0.677531 *  0.867805 *   4.00000    1.000000    
      6 Si    c    0.321013 *  0.694747 *  0.199042 *   4.00000    1.000000    
      7 Si    c    0.384894 *  0.699962 *  0.301241 *   4.00000    1.000000    
      8 Si    c    0.318480 *  0.621125 *  0.969799 *   4.00000    1.000000    
      9 Si    c    0.297059 *  0.674112 *  0.635205 *   4.00000    1.000000    
     10 Si    c    0.621889 *  0.297594 *  0.798924 *   4.00000    1.000000    
     11 Si    c    0.676786 *  0.376865 *  0.468653 *   4.00000    1.000000    
     12 Si    c    0.698343 *  0.333830 *  0.136184 *   4.00000    1.000000    
     13 Ge    c    0.533801 *  0.428695 *  0.967682 *   4.00000    1.000000    
     14 Si    c    0.590384 *  0.114692 *  0.301340 *   4.00000    1.000000    
     15 Si    c    0.887470 *  0.469166 *  0.634642 *   4.00000    1.000000    
     16 Si    c    0.471315 *  0.580771 *  0.469421 *   4.00000    1.000000    
     17 Si    c    0.421021 *  0.887640 *  0.801307 *   4.00000    1.000000    
     18 Si    c    0.102831 *  0.529051 *  0.136308 *   4.00000    1.000000    
     19 Si    c    0.420314 *  0.528579 *  0.367644 *   4.00000    1.000000    
     20 Si    c    0.105492 *  0.576241 *  0.035254 *   4.00000    1.000000    
     21 Si    c    0.471031 *  0.884438 *  0.699513 *   4.00000    1.000000    
     22 Si    c    0.595123 *  0.471042 *  0.866729 *   4.00000    1.000000    
     23 Si    c    0.888166 *  0.416295 *  0.532916 *   4.00000    1.000000    
     24 Si    c    0.532341 *  0.122025 *  0.198475 *   4.00000    1.000000    
     25 Si    c    0.308922 *  0.398033 *  0.852149 *   4.00000    1.000000    
     26 Ge    c    0.589984 *  0.905486 *  0.191757 *   4.00000    1.000000    
     27 Si    c    0.096843 *  0.695357 *  0.519846 *   4.00000    1.000000    
     28 Si    c    0.700307 *  0.599029 *  0.353830 *   4.00000    1.000000    
     29 Si    c    0.398740 *  0.092720 *  0.684817 *   4.00000    1.000000    
     30 Si    c    0.900044 *  0.295174 *  0.023133 *   4.00000    1.000000    
     31 Si    c    0.399021 *  0.300274 *  0.483819 *   4.00000    1.000000    
     32 Si    c    0.900172 *  0.610199 *  0.148929 *   4.00000    1.000000    
     33 Si    c    0.699829 *  0.096494 *  0.814574 *   4.00000    1.000000    
     34 Ge    c    0.602476 *  0.702268 *  0.988172 *   4.00000    1.000000    
     35 Si    c    0.095922 *  0.396853 *  0.649587 *   4.00000    1.000000    
     36 Si    c    0.306522 *  0.903602 *  0.316980 *   4.00000    1.000000    
     37 Si    c    0.253090 *  0.337044 *  0.954323 *   4.00000    1.000000    
     38 Si    c    0.671682 *  0.911819 *  0.287532 *   4.00000    1.000000    
     39 Si    c    0.088118 *  0.746832 *  0.620443 *   4.00000    1.000000    
     40 Si    c    0.750414 *  0.658528 *  0.454568 *   4.00000    1.000000    
     41 Si    c    0.341890 *  0.087980 *  0.785665 *   4.00000    1.000000    
     42 Si    c    0.901928 *  0.251575 *  0.124707 *   4.00000    1.000000    
     43 Si    c    0.342372 *  0.250324 *  0.383045 *   4.00000    1.000000    
     44 Si    c    0.906285 *  0.657517 *  0.047297 *   4.00000    1.000000    
     45 Si    c    0.748558 *  0.085838 *  0.713665 *   4.00000    1.000000    
     46 Si    c    0.669928 *  0.751061 *  0.885156 *   4.00000    1.000000    
     47 Si    c    0.089780 *  0.339162 *  0.548721 *   4.00000    1.000000    
     48 Si    c    0.253079 *  0.912815 *  0.215357 *   4.00000    1.000000    
     49 Si    c    0.970148 *  0.121490 *  0.968665 *   4.00000    1.000000    
     50 Si    c    0.883246 *  0.846627 *  0.305231 *   4.00000    1.000000    
     51 Si    c    0.150845 *  0.026840 *  0.635370 *   4.00000    1.000000    
     52 Si    c    0.029945 *  0.876395 *  0.469855 *   4.00000    1.000000    
     53 Si    c    0.124255 *  0.151059 *  0.801810 *   4.00000    1.000000    
     54 Si    c    0.845861 *  0.975654 *  0.142004 *   4.00000    1.000000    
     55 Si    c    0.127060 *  0.971088 *  0.369262 *   4.00000    1.000000    
     56 Ge    c    0.853265 *  0.888355 *  0.039215 *   4.00000    1.000000    
     57 Si    c    0.029312 *  0.149975 *  0.700766 *   4.00000    1.000000    
     58 Si    c    0.879479 *  0.030921 *  0.866869 *   4.00000    1.000000    
     59 Si    c    0.151044 *  0.120307 *  0.534417 *   4.00000    1.000000    
     60 Si    c    0.973123 *  0.855204 *  0.203151 *   4.00000    1.000000    
     61 O3    c    0.945437 *  0.005768 *  0.000063 *   1.33043    1.000000    
     62 O2    c    0.004274 *  0.925050 *  0.337800 *   0.87073    1.000000    
     63 O2    c    0.073779 *  0.070000 *  0.669094 *   0.87073    1.000000    
     64 O2    c    0.070270 *  0.997411 *  0.502637 *   0.87073    1.000000    
     65 O2    c    0.005017 *  0.074369 *  0.835574 *   0.87073    1.000000    
     66 O2    c    0.933579 *  0.943966 *  0.175565 *   0.87073    1.000000    
     67 O2    c    0.345610 *  0.578575 *  0.334677 *   0.87073    1.000000    
     68 O2    c    0.420290 *  0.757808 *  0.667588 *   0.87073    1.000000    
     69 O2    c    0.225967 *  0.652503 *  0.000698 *   0.87073    1.000000    
     70 O2    c    0.664519 *  0.424929 *  0.829238 *   0.87073    1.000000    
     71 O2    c    0.574677 *  0.252857 *  0.169611 *   0.87073    1.000000    
     72 O2    c    0.762908 *  0.339211 *  0.500830 *   0.87073    1.000000    
     73 O3    c    0.581778 *  0.336973 *  0.001180 *   1.33043    1.000000    
     74 O2    c    0.759770 *  0.417947 *  0.666026 *   0.87073    1.000000    
     75 O2    c    0.661908 *  0.237278 *  0.334958 *   0.87073    1.000000    
     76 O2    c    0.421676 *  0.657380 *  0.501817 *   0.87073    1.000000    
     77 O2    c    0.223594 *  0.570244 *  0.170228 *   0.87073    1.000000    
     78 O2    c    0.347670 *  0.763182 *  0.834433 *   0.87073    1.000000    
     79 O2    c    0.121738 *  0.217730 *  0.971830 *   0.87073    1.000000    
     80 O2    c    0.791446 *  0.908627 *  0.312563 *   0.87073    1.000000    
     81 O2    c    0.086899 *  0.872845 *  0.640415 *   0.87073    1.000000    
     82 O2    c    0.875865 *  0.785173 *  0.474314 *   0.87073    1.000000    
     83 O2    c    0.214202 *  0.085960 *  0.805747 *   0.87073    1.000000    
     84 O2    c    0.898668 *  0.129067 *  0.148503 *   0.87073    1.000000    
     85 O2    c    0.216211 *  0.124599 *  0.363240 *   0.87073    1.000000    
     86 O3    c    0.903667 *  0.778272 *  0.026214 *   1.33043    1.000000    
     87 O2    c    0.875777 *  0.085791 *  0.694164 *   0.87073    1.000000    
     88 O2    c    0.788636 *  0.877384 *  0.861292 *   0.87073    1.000000    
     89 O2    c    0.089066 *  0.212420 *  0.528557 *   0.87073    1.000000    
     90 O2    c    0.126614 *  0.912508 *  0.196567 *   0.87073    1.000000    
     91 O2    c    0.940214 *  0.860214 *  0.255487 *   0.87073    1.000000    
     92 O2    c    0.136891 *  0.068561 *  0.585201 *   0.87073    1.000000    
     93 O2    c    0.925983 *  0.072200 *  0.917673 *   0.87073    1.000000    
     94 O2    c    0.067891 *  0.139704 *  0.751849 *   0.87073    1.000000    
     95 O3    c    0.887244 *  0.950336 *  0.092534 *   1.33043    1.000000    
     96 O2    c    0.075134 *  0.931847 *  0.419885 *   0.87073    1.000000    
     97 O2    c    0.894913 *  0.195525 *  0.984716 *   0.87073    1.000000    
     98 O2    c    0.800709 *  0.694616 *  0.316052 *   0.87073    1.000000    
     99 O2    c    0.302169 *  0.093873 *  0.646472 *   0.87073    1.000000    
    100 O2    c    0.099063 *  0.793891 *  0.481601 *   0.87073    1.000000    
    101 O2    c    0.211716 *  0.302322 *  0.813653 *   0.87073    1.000000    
    102 O3    c    0.697129 *  0.899424 *  0.149917 *   1.33043    1.000000    
    103 O2    c    0.212177 *  0.904012 *  0.356471 *   0.87073    1.000000    
    104 O1    c    0.694280 *  0.819018 *  0.027646 *   1.73396    1.000000    
    105 O2    c    0.097409 *  0.300697 *  0.688117 *   0.87073    1.000000    
    106 O2    c    0.798983 *  0.100820 *  0.852664 *   0.87073    1.000000    
    107 O2    c    0.302256 *  0.201498 *  0.522029 *   0.87073    1.000000    
    108 O2    c    0.899010 *  0.707203 *  0.187317 *   0.87073    1.000000    
    109 O2    c    0.329595 *  0.647258 *  0.250868 *   0.87073    1.000000    
    110 O2    c    0.354555 *  0.674897 *  0.584774 *   0.87073    1.000000    
    111 O2    c    0.320918 *  0.669820 *  0.917619 *   0.87073    1.000000    
    112 O2    c    0.676989 *  0.351240 *  0.748291 *   0.87073    1.000000    
    113 O2    c    0.644552 *  0.329904 *  0.085612 *   0.87073    1.000000    
    114 O2    c    0.678380 *  0.319984 *  0.418350 *   0.87073    1.000000    
    115 O3    c    0.366226 *  0.318363 *  0.973053 *   1.33043    1.000000    
    116 O2    c    0.676429 *  0.044637 *  0.304196 *   0.87073    1.000000    
    117 O2    c    0.955571 *  0.624892 *  0.638464 *   0.87073    1.000000    
    118 O2    c    0.626985 *  0.667976 *  0.472565 *   0.87073    1.000000    
    119 O2    c    0.333805 *  0.956986 *  0.804903 *   0.87073    1.000000    
    120 O2    c    0.034557 *  0.374483 *  0.141465 *   0.87073    1.000000    
    121 O2    c    0.333113 *  0.372833 *  0.364344 *   0.87073    1.000000    
    122 O2    c    0.040393 *  0.666331 *  0.031353 *   0.87073    1.000000    
    123 O2    c    0.626975 *  0.952452 *  0.696068 *   0.87073    1.000000    
    124 O2    c    0.678438 *  0.628438 *  0.865630 *   0.87073    1.000000    
    125 O2    c    0.958142 *  0.329567 *  0.530003 *   0.87073    1.000000    
    126 O2    c    0.375160 *  0.045929 *  0.198644 *   0.87073    1.000000    
    127 O2    c    0.768175 *  0.296628 *  0.015175 *   0.87073    1.000000    
    128 O2    c    0.697510 *  0.463774 *  0.345900 *   0.87073    1.000000    
    129 O2    c    0.532036 *  0.225609 *  0.676436 *   0.87073    1.000000    
    130 O2    c    0.230334 *  0.694299 *  0.512009 *   0.87073    1.000000    
    131 O2    c    0.313263 *  0.534475 *  0.846002 *   0.87073    1.000000    
    132 O3    c    0.457300 *  0.755744 *  0.174794 *   1.33043    1.000000    
    133 O2    c    0.310969 *  0.771826 *  0.321992 *   0.87073    1.000000    
    134 O3    c    0.457822 *  0.703440 *  0.990825 *   1.33043    1.000000    
    135 O2    c    0.228576 *  0.530826 *  0.657239 *   0.87073    1.000000    
    136 O2    c    0.695149 *  0.228098 *  0.821772 *   0.87073    1.000000    
    137 O2    c    0.533744 *  0.301362 *  0.491117 *   0.87073    1.000000    
    138 O2    c    0.767260 *  0.477545 *  0.157732 *   0.87073    1.000000    
    139 O2    c    0.785805 *  0.530415 *  0.027122 *   0.87073    1.000000    
    140 O2    c    0.466671 *  0.246343 *  0.363466 *   0.87073    1.000000    
    141 O2    c    0.748188 *  0.210322 *  0.692948 *   0.87073    1.000000    
    142 O2    c    0.216531 *  0.463389 *  0.529380 *   0.87073    1.000000    
    143 O2    c    0.535850 *  0.741334 *  0.869300 *   0.87073    1.000000    
    144 O2    c    0.258529 *  0.789255 *  0.197160 *   0.87073    1.000000    
    145 O2    c    0.539288 *  0.787116 *  0.305044 *   0.87073    1.000000    
    146 O2    c    0.260295 *  0.467741 *  0.973102 *   0.87073    1.000000    
    147 O2    c    0.214144 *  0.747671 *  0.640160 *   0.87073    1.000000    
    148 O2    c    0.465920 *  0.216104 *  0.804270 *   0.87073    1.000000    
    149 O2    c    0.749949 *  0.532393 *  0.473979 *   0.87073    1.000000    
    150 O2    c    0.778615 *  0.258864 *  0.142907 *   0.87073    1.000000    
    151 O2    c    0.243233 *  0.329945 *  0.899243 *   0.87073    1.000000    
    152 O3    c    0.698073 *  0.909965 *  0.235028 *   1.33043    1.000000    
    153 O2    c    0.091088 *  0.766080 *  0.566075 *   0.87073    1.000000    
    154 O2    c    0.769467 *  0.673564 *  0.400256 *   0.87073    1.000000    
    155 O2    c    0.323628 *  0.088148 *  0.731316 *   0.87073    1.000000    
    156 O2    c    0.901465 *  0.226427 *  0.070393 *   0.87073    1.000000    
    157 O2    c    0.324530 *  0.231224 *  0.437402 *   0.87073    1.000000    
    158 O2    c    0.900373 *  0.679595 *  0.101824 *   0.87073    1.000000    
    159 O2    c    0.769152 *  0.091519 *  0.767895 *   0.87073    1.000000    
    160 O3    c    0.691789 *  0.774393 *  0.938106 *   1.33043    1.000000    
    161 O2    c    0.091554 *  0.322212 *  0.603101 *   0.87073    1.000000    
    162 O2    c    0.241454 *  0.909327 *  0.270122 *   0.87073    1.000000    
    163 O1    c    0.599138 *  0.564724 *  0.003576 *   1.73396    1.000000    
    164 O2    c    0.448554 *  0.023734 *  0.322444 *   0.87073    1.000000    
    165 O2    c    0.970695 *  0.411670 *  0.658223 *   0.87073    1.000000    
    166 O2    c    0.413806 *  0.440005 *  0.492690 *   0.87073    1.000000    
    167 O2    c    0.562323 *  0.969551 *  0.823757 *   0.87073    1.000000    
    168 O2    c    0.026455 *  0.597338 *  0.158150 *   0.87073    1.000000    
    169 O2    c    0.561675 *  0.586570 *  0.344723 *   0.87073    1.000000    
    170 O2    c    0.026476 *  0.432793 *  0.013672 *   0.87073    1.000000    
    171 O2    c    0.413294 *  0.967443 *  0.675961 *   0.87073    1.000000    
    172 O2    c    0.450976 *  0.418846 *  0.846222 *   0.87073    1.000000    
    173 O2    c    0.972031 *  0.557330 *  0.510089 *   0.87073    1.000000    
    174 O3    c    0.590535 *  0.045720 *  0.172308 *   1.33043    1.000000    
    175 O2    c    0.586156 *  0.164255 *  0.250632 *   0.87073    1.000000    
    176 O2    c    0.835310 *  0.416983 *  0.583775 *   0.87073    1.000000    
    177 O3    c    0.601113 *  0.414369 *  0.914606 *   1.33043    1.000000    
    178 O2    c    0.418468 *  0.832138 *  0.750592 *   0.87073    1.000000    
    179 O2    c    0.163367 *  0.580797 *  0.085782 *   0.87073    1.000000    
    180 O2    c    0.418499 *  0.581015 *  0.418546 *   0.87073    1.000000    
    181 F     c    0.485489 *  0.906614 *  0.240666 *   0.56000    1.000000    
    182 F     c    0.095792 *  0.547038 *  0.584220 *   0.56000    1.000000    
    183 F     c    0.484874 *  0.537881 *  0.930791 *   0.56000    1.000000    
    184 F     c    0.546676 *  0.091444 *  0.749534 *   0.56000    1.000000    
    185 F     c    0.907714 *  0.457423 *  0.086482 *   0.56000    1.000000    
    186 F     c    0.548234 *  0.449153 *  0.418279 *   0.56000    1.000000    
    187 O3    s    0.940640 *  0.009021 *  0.999809 *  -3.33043    1.000000    
    188 O2    s    0.004928 *  0.921599 *  0.337791 *  -2.87073    1.000000    
    189 O2    s    0.077457 *  0.074136 *  0.668858 *  -2.87073    1.000000    
    190 O2    s    0.074748 *  0.997591 *  0.502520 *  -2.87073    1.000000    
    191 O2    s    0.004727 *  0.078234 *  0.835196 *  -2.87073    1.000000    
    192 O2    s    0.929065 *  0.936960 *  0.175295 *  -2.87073    1.000000    
    193 O2    s    0.357324 *  0.586036 *  0.334587 *  -2.87073    1.000000    
    194 O2    s    0.412855 *  0.762195 *  0.667528 *  -2.87073    1.000000    
    195 O2    s    0.223560 *  0.641303 *  0.000902 *  -2.87073    1.000000    
    196 O2    s    0.653063 *  0.416173 *  0.829808 *  -2.87073    1.000000    
    197 O2    s    0.582541 *  0.247668 *  0.169232 *  -2.87073    1.000000    
    198 O2    s    0.766961 *  0.351026 *  0.500822 *  -2.87073    1.000000    
    199 O3    s    0.590694 *  0.347356 *  0.002275 *  -3.33043    1.000000    
    200 O2    s    0.764250 *  0.410426 *  0.666099 *  -2.87073    1.000000    
    201 O2    s    0.650395 *  0.233152 *  0.334877 *  -2.87073    1.000000    
    202 O2    s    0.414082 *  0.645507 *  0.501840 *  -2.87073    1.000000    
    203 O2    s    0.221786 *  0.579518 *  0.169885 *  -2.87073    1.000000    
    204 O2    s    0.358756 *  0.766823 *  0.834585 *  -2.87073    1.000000    
    205 O2    s    0.119642 *  0.220477 *  0.969513 *  -2.87073    1.000000    
    206 O2    s    0.789125 *  0.902391 *  0.309339 *  -2.87073    1.000000    
    207 O2    s    0.093782 *  0.876126 *  0.637840 *  -2.87073    1.000000    
    208 O2    s    0.879185 *  0.781781 *  0.471851 *  -2.87073    1.000000    
    209 O2    s    0.217819 *  0.093080 *  0.803290 *  -2.87073    1.000000    
    210 O2    s    0.893720 *  0.126807 *  0.145337 *  -2.87073    1.000000    
    211 O2    s    0.219720 *  0.121230 *  0.365890 *  -2.87073    1.000000    
    212 O3    s    0.899966 *  0.774382 *  0.029370 *  -3.33043    1.000000    
    213 O2    s    0.878913 *  0.092562 *  0.696837 *  -2.87073    1.000000    
    214 O2    s    0.786415 *  0.880995 *  0.864213 *  -2.87073    1.000000    
    215 O2    s    0.095749 *  0.215716 *  0.531239 *  -2.87073    1.000000    
    216 O2    s    0.124301 *  0.906602 *  0.199237 *  -2.87073    1.000000    
    217 O2    s    0.937341 *  0.858078 *  0.255382 *  -2.87073    1.000000    
    218 O2    s    0.140076 *  0.069689 *  0.585123 *  -2.87073    1.000000    
    219 O2    s    0.925464 *  0.072822 *  0.917387 *  -2.87073    1.000000    
    220 O2    s    0.069891 *  0.142133 *  0.751718 *  -2.87073    1.000000    
    221 O3    s    0.880222 *  0.947302 *  0.092584 *  -3.33043    1.000000    
    222 O2    s    0.075943 *  0.930037 *  0.419772 *  -2.87073    1.000000    
    223 O2    s    0.903436 *  0.197918 *  0.986993 *  -2.87073    1.000000    
    224 O2    s    0.798965 *  0.700703 *  0.318850 *  -2.87073    1.000000    
    225 O2    s    0.295901 *  0.086596 *  0.649211 *  -2.87073    1.000000    
    226 O2    s    0.091385 *  0.792627 *  0.484271 *  -2.87073    1.000000    
    227 O2    s    0.212605 *  0.296395 *  0.816368 *  -2.87073    1.000000    
    228 O3    s    0.706461 *  0.908126 *  0.151718 *  -3.33043    1.000000    
    229 O2    s    0.213232 *  0.910958 *  0.353669 *  -2.87073    1.000000    
    230 O1    s    0.700344 *  0.816209 *  0.025751 *  -3.73396    1.000000    
    231 O2    s    0.090036 *  0.294547 *  0.685506 *  -2.87073    1.000000    
    232 O2    s    0.797180 *  0.092952 *  0.850187 *  -2.87073    1.000000    
    233 O2    s    0.296150 *  0.202979 *  0.519445 *  -2.87073    1.000000    
    234 O2    s    0.907124 *  0.713198 *  0.185070 *  -2.87073    1.000000    
    235 O2    s    0.334629 *  0.657343 *  0.251203 *  -2.87073    1.000000    
    236 O2    s    0.342898 *  0.669075 *  0.584769 *  -2.87073    1.000000    
    237 O2    s    0.327059 *  0.665852 *  0.917498 *  -2.87073    1.000000    
    238 O2    s    0.671114 *  0.339636 *  0.748278 *  -2.87073    1.000000    
    239 O2    s    0.655719 *  0.334853 *  0.085905 *  -2.87073    1.000000    
    240 O2    s    0.672501 *  0.325874 *  0.418334 *  -2.87073    1.000000    
    241 O3    s    0.365981 *  0.328090 *  0.970668 *  -3.33043    1.000000    
    242 O2    s    0.666966 *  0.038732 *  0.302224 *  -2.87073    1.000000    
    243 O2    s    0.962395 *  0.621618 *  0.636183 *  -2.87073    1.000000    
    244 O2    s    0.623898 *  0.658051 *  0.470358 *  -2.87073    1.000000    
    245 O2    s    0.343646 *  0.963367 *  0.802538 *  -2.87073    1.000000    
    246 O2    s    0.027733 *  0.377837 *  0.139123 *  -2.87073    1.000000    
    247 O2    s    0.343021 *  0.375992 *  0.366651 *  -2.87073    1.000000    
    248 O2    s    0.033312 *  0.655879 *  0.033454 *  -2.87073    1.000000    
    249 O2    s    0.623646 *  0.959319 *  0.698247 *  -2.87073    1.000000    
    250 O2    s    0.669396 *  0.625614 *  0.867774 *  -2.87073    1.000000    
    251 O2    s    0.964735 *  0.339513 *  0.532275 *  -2.87073    1.000000    
    252 O2    s    0.377892 *  0.039399 *  0.200413 *  -2.87073    1.000000    
    253 O2    s    0.775588 *  0.304651 *  0.018036 *  -2.87073    1.000000    
    254 O2    s    0.689997 *  0.463210 *  0.349077 *  -2.87073    1.000000    
    255 O2    s    0.532787 *  0.218692 *  0.679567 *  -2.87073    1.000000    
    256 O2    s    0.223213 *  0.686644 *  0.515179 *  -2.87073    1.000000    
    257 O2    s    0.319959 *  0.535040 *  0.848906 *  -2.87073    1.000000    
    258 O3    s    0.452546 *  0.759951 *  0.178514 *  -3.33043    1.000000    
    259 O2    s    0.318062 *  0.778619 *  0.319319 *  -2.87073    1.000000    
    260 O3    s    0.454735 *  0.694817 *  0.988415 *  -3.33043    1.000000    
    261 O2    s    0.221701 *  0.531474 *  0.654139 *  -2.87073    1.000000    
    262 O2    s    0.688086 *  0.221212 *  0.818627 *  -2.87073    1.000000    
    263 O2    s    0.534302 *  0.308988 *  0.488018 *  -2.87073    1.000000    
    264 O2    s    0.774138 *  0.476686 *  0.154554 *  -2.87073    1.000000    
    265 O2    s    0.790332 *  0.528441 *  0.029986 *  -2.87073    1.000000    
    266 O2    s    0.469416 *  0.254549 *  0.366018 *  -2.87073    1.000000    
    267 O2    s    0.740556 *  0.205485 *  0.695675 *  -2.87073    1.000000    
    268 O2    s    0.211213 *  0.466128 *  0.531974 *  -2.87073    1.000000    
    269 O2    s    0.533080 *  0.735312 *  0.870792 *  -2.87073    1.000000    
    270 O2    s    0.264366 *  0.793692 *  0.199362 *  -2.87073    1.000000    
    271 O2    s    0.536264 *  0.790606 *  0.302859 *  -2.87073    1.000000    
    272 O2    s    0.265999 *  0.470493 *  0.970785 *  -2.87073    1.000000    
    273 O2    s    0.209082 *  0.739801 *  0.637542 *  -2.87073    1.000000    
    274 O2    s    0.468524 *  0.210560 *  0.801750 *  -2.87073    1.000000    
    275 O2    s    0.742319 *  0.529927 *  0.471365 *  -2.87073    1.000000    
    276 O2    s    0.783668 *  0.266163 *  0.140255 *  -2.87073    1.000000    
    277 O2    s    0.251508 *  0.338175 *  0.899684 *  -2.87073    1.000000    
    278 O3    s    0.688182 *  0.909910 *  0.237761 *  -3.33043    1.000000    
    279 O2    s    0.091364 *  0.756604 *  0.567009 *  -2.87073    1.000000    
    280 O2    s    0.760185 *  0.664142 *  0.401235 *  -2.87073    1.000000    
    281 O2    s    0.333438 *  0.088583 *  0.732209 *  -2.87073    1.000000    
    282 O2    s    0.901352 *  0.236026 *  0.071073 *  -2.87073    1.000000    
    283 O2    s    0.334247 *  0.240508 *  0.436488 *  -2.87073    1.000000    
    284 O2    s    0.900907 *  0.670137 *  0.101326 *  -2.87073    1.000000    
    285 O2    s    0.759621 *  0.091423 *  0.767005 *  -2.87073    1.000000    
    286 O3    s    0.683189 *  0.766752 *  0.936149 *  -3.33043    1.000000    
    287 O2    s    0.091818 *  0.331856 *  0.602215 *  -2.87073    1.000000    
    288 O2    s    0.249753 *  0.909089 *  0.269469 *  -2.87073    1.000000    
    289 O1    s    0.594818 *  0.566881 *  0.999944 *  -3.73396    1.000000    
    290 O2    s    0.447747 *  0.019909 *  0.319626 *  -2.87073    1.000000    
    291 O2    s    0.975684 *  0.416227 *  0.654834 *  -2.87073    1.000000    
    292 O2    s    0.418373 *  0.439594 *  0.489314 *  -2.87073    1.000000    
    293 O2    s    0.562082 *  0.974500 *  0.820424 *  -2.87073    1.000000    
    294 O2    s    0.020799 *  0.591553 *  0.154899 *  -2.87073    1.000000    
    295 O2    s    0.561730 *  0.581671 *  0.348103 *  -2.87073    1.000000    
    296 O2    s    0.021141 *  0.433021 *  0.016928 *  -2.87073    1.000000    
    297 O2    s    0.417933 *  0.972438 *  0.679372 *  -2.87073    1.000000    
    298 O2    s    0.449559 *  0.421854 *  0.848941 *  -2.87073    1.000000    
    299 O2    s    0.976825 *  0.557425 *  0.513526 *  -2.87073    1.000000    
    300 O3    s    0.584287 *  0.043147 *  0.176392 *  -3.33043    1.000000    
    301 O2    s    0.581386 *  0.154852 *  0.250941 *  -2.87073    1.000000    
    302 O2    s    0.846307 *  0.422366 *  0.583758 *  -2.87073    1.000000    
    303 O3    s    0.595999 *  0.421382 *  0.913143 *  -3.33043    1.000000    
    304 O2    s    0.424126 *  0.843276 *  0.750608 *  -2.87073    1.000000    
    305 O2    s    0.151424 *  0.575123 *  0.085755 *  -2.87073    1.000000    
    306 O2    s    0.424122 *  0.575542 *  0.418503 *  -2.87073    1.000000    
    307 F     s    0.492161 *  0.906471 *  0.237706 *  -1.56000    1.000000    
    308 F     s    0.096132 *  0.547302 *  0.584181 *  -1.56000    1.000000    
    309 F     s    0.488540 *  0.534460 *  0.932945 *  -1.56000    1.000000    
    310 F     s    0.546627 *  0.091513 *  0.749523 *  -1.56000    1.000000    
    311 F     s    0.908402 *  0.457824 *  0.086571 *  -1.56000    1.000000    
    312 F     s    0.548326 *  0.448859 *  0.418240 *  -1.56000    1.000000    
--------------------------------------------------------------------------------



********************************************************************************
*  General input information                                                   *
********************************************************************************

  Species output for all configurations : 

--------------------------------------------------------------------------------
  Species    Type    Atomic    Atomic    Charge       Radii (Angs)     Library
                     Number     Mass       (e)     Cova   Ionic  VDW   Symbol
--------------------------------------------------------------------------------
    Si       Core       14      28.09   4.000000   1.200  0.000  2.100          
    O1       Core        8      16.00   1.733957   0.730  0.000  1.360          
    O1       Shell       8       0.00  -3.733957   0.730  0.000  1.360          
    O2       Core        8      16.00   0.870733   0.730  0.000  1.360          
    O2       Shell       8       0.00  -2.870733   0.730  0.000  1.360          
    O3       Core        8      16.00   1.330431   0.730  0.000  1.360          
    O3       Shell       8       0.00  -3.330431   0.730  0.000  1.360          
    F        Core        9      19.00   0.560000   0.710  0.000  1.300          
    F        Shell       9       0.00  -1.560000   0.710  0.000  1.300          
    Ge       Core       32      72.61   4.000000   1.170  0.000  1.750          
--------------------------------------------------------------------------------


  Lattice summation method               =    Ewald          (3-D)
                                         =    Parry          (2-D)
                                         =    Saunders et al (1-D)
  Accuracy factor for lattice sums       =   12.000


  Time limit = Infinity

  Maximum range for interatomic potentials =        16.000000 Angstroms

  Taper potentials to zero over   1.0000 Angstroms using polynomial

  General interatomic potentials :

--------------------------------------------------------------------------------
Atom  Types   Potential         A         B         C         D     Cutoffs(Ang)
  1     2                                                            Min    Max 
--------------------------------------------------------------------------------
Si   c O1   s Buckingham    0.132E+04 0.318      10.1      0.00     0.000 16.000
Si   c O2   s Buckingham    0.132E+04 0.318      10.1      0.00     0.000 16.000
Si   c O3   s Buckingham    0.132E+04 0.318      10.1      0.00     0.000 16.000
Ge   c O1   s Buckingham    0.150E+04 0.326      16.8      0.00     0.000 16.000
Ge   c O2   s Buckingham    0.150E+04 0.326      16.8      0.00     0.000 16.000
Ge   c O3   s Buckingham    0.150E+04 0.326      16.8      0.00     0.000 16.000
O1   s O1   s Buckingham    0.228E+05 0.149      10.9      0.00     0.000 16.000
O1   s O2   s Buckingham    0.228E+05 0.149      10.9      0.00     0.000 16.000
O1   s O3   s Buckingham    0.228E+05 0.149      10.9      0.00     0.000 16.000
O2   s O2   s Buckingham    0.228E+05 0.149      10.9      0.00     0.000 16.000
O2   s O3   s Buckingham    0.228E+05 0.149      10.9      0.00     0.000 16.000
O3   s O3   s Buckingham    0.228E+05 0.149      10.9      0.00     0.000 16.000
Si   c F    s Buckingham     977.     0.282      0.00      0.00     0.000 16.000
Ge   c F    s Buckingham     681.     0.320      0.00      0.00     0.000 16.000
F    s F    s Buckingham     540.     0.262      0.00      0.00     0.000 16.000
O1   s F    s Buckingham    0.168E+04 0.268      0.00      0.00     0.000 16.000
O2   s F    s Buckingham    0.168E+04 0.268      0.00      0.00     0.000 16.000
O3   s F    s Buckingham    0.168E+04 0.268      0.00      0.00     0.000 16.000
O2   c O2   s Spring (c-s)   76.0      0.00      0.00      0.00     0.000  0.800
O3   c O3   s Spring (c-s)   128.      0.00      0.00      0.00     0.000  0.800
O1   c O1   s Spring (c-s)   180.      0.00      0.00      0.00     0.000  0.800
F    c F    s Spring (c-s)   33.5      0.00      0.00      0.00     0.000  0.800
--------------------------------------------------------------------------------

  General Three-body potentials :

  Harmonic form:

--------------------------------------------------------------------------------
Atom    Atom    Atom           Force Constants            Theta     Cutoffs  
  1       2       3     (eVrad**-2/eVrad**-3/eVrad**-4)   (deg)  1-2  1-3  2-3
--------------------------------------------------------------------------------
Si    c O1    s O1    s  1.261        0.0000    0.0000   109.470 0.00 0.00 0.00
                                                                 1.90 1.90 3.50
Si    c O1    s O2    s  1.261        0.0000    0.0000   109.470 0.00 0.00 0.00
                                                                 1.90 1.90 3.50
Si    c O2    s O2    s  1.261        0.0000    0.0000   109.470 0.00 0.00 0.00
                                                                 1.90 1.90 3.50
--------------------------------------------------------------------------------

********************************************************************************
*  Output for configuration   1                                                *
********************************************************************************


  Components of energy : 

--------------------------------------------------------------------------------
  Interatomic potentials     =        2062.08278451 eV
  Three-body potentials      =           0.47498519 eV
  Monopole - monopole (real) =       -6582.65679185 eV
  Monopole - monopole (recip)=       -3192.98052741 eV
  Monopole - monopole (total)=       -9775.63731927 eV
  Neutralising energy        =          -6.45530008 eV
--------------------------------------------------------------------------------
  Total lattice energy       =       -7719.53484964 eV
--------------------------------------------------------------------------------
  Total lattice energy       =         -744817.1091 kJ/(mole unit cells)
--------------------------------------------------------------------------------


  Number of variables =      939

  Maximum number of calculations  =          1000
  Maximum Hessian update interval =            10
  Maximum step size               =   0.010000000
  Maximum parameter tolerance     =   0.000010000
  Maximum function  tolerance     =   0.000010000
  Maximum gradient  tolerance     =   0.001000000
  Maximum gradient  component     =   0.010000000

  Symmetry not applied to optimisation

  Cell parameters to be optimised using strains

  RFO method to be used

  DFP hessian update to be used

  Dumpfile to be written after every cycle

  Start of bulk optimisation :

  Cycle:      0 Energy:     -7719.534850  Gnorm:      0.007969  CPU:    1.043
  ** Hessian has required structure
  Cycle:      1 Energy:     -7719.537450  Gnorm:      0.007826  CPU:    4.121
  ** Hessian has required structure
  Cycle:      2 Energy:     -7719.541747  Gnorm:      0.007583  CPU:    7.527
  ** Hessian has required structure
  Cycle:      3 Energy:     -7719.548117  Gnorm:      0.007206  CPU:   10.934
  ** Hessian has required structure
  Cycle:      4 Energy:     -7719.553896  Gnorm:      0.006843  CPU:   14.009
  ** Hessian has required structure
  Cycle:      5 Energy:     -7719.559082  Gnorm:      0.006498  CPU:   17.081
  ** Hessian has required structure
  Cycle:      6 Energy:     -7719.563752  Gnorm:      0.006172  CPU:   20.156
  ** Hessian has required structure
  Cycle:      7 Energy:     -7719.567965  Gnorm:      0.005861  CPU:   23.229
  ** Hessian has required structure
  Cycle:      8 Energy:     -7719.571772  Gnorm:      0.005567  CPU:   26.304
  ** Hessian has required structure
  Cycle:      9 Energy:     -7719.575212  Gnorm:      0.005288  CPU:   29.379
  ** Hessian has required structure
  Cycle:     10 Energy:     -7719.578324  Gnorm:      0.005022  CPU:   32.452
  ** Hessian has required structure
  Cycle:     11 Energy:     -7719.581132  Gnorm:      0.004771  CPU:   36.188
  ** Hessian has required structure
  Cycle:     12 Energy:     -7719.583679  Gnorm:      0.004532  CPU:   39.262
  ** Hessian has required structure
  Cycle:     13 Energy:     -7719.585982  Gnorm:      0.004305  CPU:   42.335
  ** Hessian has required structure
  Cycle:     14 Energy:     -7719.588065  Gnorm:      0.004090  CPU:   45.410
  ** Hessian has required structure
  Cycle:     15 Energy:     -7719.589949  Gnorm:      0.003885  CPU:   48.486
  ** Hessian has required structure
  Cycle:     16 Energy:     -7719.591653  Gnorm:      0.003691  CPU:   51.560
  ** Hessian has required structure
  Cycle:     17 Energy:     -7719.593194  Gnorm:      0.003506  CPU:   54.636
  ** Hessian has required structure
  Cycle:     18 Energy:     -7719.594586  Gnorm:      0.003331  CPU:   57.710
  ** Hessian has required structure
  Cycle:     19 Energy:     -7719.595845  Gnorm:      0.003164  CPU:   60.785
  ** Hessian has required structure
  Cycle:     20 Energy:     -7719.596983  Gnorm:      0.003006  CPU:   63.859
  ** Hessian has required structure
  Cycle:     21 Energy:     -7719.598010  Gnorm:      0.002855  CPU:   67.597
  ** Hessian has required structure
  Cycle:     22 Energy:     -7719.598939  Gnorm:      0.002712  CPU:   70.675
  ** Hessian has required structure
  Cycle:     23 Energy:     -7719.599779  Gnorm:      0.002577  CPU:   73.751
  ** Hessian has required structure
  Cycle:     24 Energy:     -7719.600537  Gnorm:      0.002448  CPU:   76.830
  ** Hessian has required structure
  Cycle:     25 Energy:     -7719.601222  Gnorm:      0.002326  CPU:   79.906
  ** Hessian has required structure
  Cycle:     26 Energy:     -7719.601841  Gnorm:      0.002209  CPU:   82.985
  ** Hessian has required structure
  Cycle:     27 Energy:     -7719.602399  Gnorm:      0.002099  CPU:   86.071
  ** Hessian has required structure
  Cycle:     28 Energy:     -7719.602904  Gnorm:      0.001994  CPU:   89.149
  ** Hessian has required structure
  Cycle:     29 Energy:     -7719.603359  Gnorm:      0.001894  CPU:   92.227
  ** Hessian has required structure
  Cycle:     30 Energy:     -7719.603771  Gnorm:      0.001799  CPU:   95.304
  ** Hessian has required structure
  Cycle:     31 Energy:     -7719.604142  Gnorm:      0.001709  CPU:   99.043
  ** Hessian has required structure
  Cycle:     32 Energy:     -7719.604477  Gnorm:      0.001624  CPU:  102.123
  ** Hessian has required structure
  Cycle:     33 Energy:     -7719.604780  Gnorm:      0.001543  CPU:  105.201
  ** Hessian has required structure
  Cycle:     34 Energy:     -7719.605053  Gnorm:      0.001466  CPU:  108.280
  ** Hessian has required structure
  Cycle:     35 Energy:     -7719.605300  Gnorm:      0.001392  CPU:  111.358
  ** Hessian has required structure
  Cycle:     36 Energy:     -7719.605522  Gnorm:      0.001323  CPU:  114.436
  ** Hessian has required structure
  Cycle:     37 Energy:     -7719.605723  Gnorm:      0.001257  CPU:  117.515
  ** Hessian has required structure
  Cycle:     38 Energy:     -7719.605904  Gnorm:      0.001194  CPU:  120.593
  ** Hessian has required structure
  Cycle:     39 Energy:     -7719.606068  Gnorm:      0.001134  CPU:  123.673
  ** Hessian has required structure
  Cycle:     40 Energy:     -7719.606216  Gnorm:      0.001077  CPU:  126.751
  ** Hessian has required structure
  Cycle:     41 Energy:     -7719.606349  Gnorm:      0.001023  CPU:  130.491
  ** Hessian has required structure
  Cycle:     42 Energy:     -7719.606470  Gnorm:      0.000972  CPU:  133.569
  ** Hessian has required structure
  Cycle:     43 Energy:     -7719.606578  Gnorm:      0.000924  CPU:  136.648
  ** Hessian has required structure
  Cycle:     44 Energy:     -7719.606676  Gnorm:      0.000878  CPU:  139.726
  ** Hessian has required structure
  Cycle:     45 Energy:     -7719.606765  Gnorm:      0.000834  CPU:  142.807
  ** Hessian has required structure
  Cycle:     46 Energy:     -7719.606844  Gnorm:      0.000792  CPU:  145.887
  ** Hessian has required structure
  Cycle:     47 Energy:     -7719.606916  Gnorm:      0.000752  CPU:  148.975
  ** Hessian has required structure
  Cycle:     48 Energy:     -7719.606981  Gnorm:      0.000715  CPU:  152.055
  ** Hessian has required structure
  Cycle:     49 Energy:     -7719.607040  Gnorm:      0.000679  CPU:  155.134
  ** Hessian has required structure
  Cycle:     50 Energy:     -7719.607093  Gnorm:      0.000645  CPU:  158.212
  ** Hessian has required structure
  Cycle:     51 Energy:     -7719.607122  Gnorm:      0.000626  CPU:  161.287
  ** Hessian has required structure
  Cycle:     52 Energy:     -7719.607145  Gnorm:      0.000610  CPU:  163.704
  ** Hessian has required structure
  Cycle:     53 Energy:     -7719.607165  Gnorm:      0.000596  CPU:  166.120
  ** Hessian has required structure
  Cycle:     54 Energy:     -7719.607183  Gnorm:      0.000583  CPU:  168.537
  ** Hessian has required structure
  Cycle:     55 Energy:     -7719.607200  Gnorm:      0.000570  CPU:  170.953
  ** Hessian has required structure
  Cycle:     56 Energy:     -7719.607216  Gnorm:      0.000559  CPU:  173.371
  ** Hessian has required structure
  Cycle:     57 Energy:     -7719.607231  Gnorm:      0.000547  CPU:  175.789
  ** Hessian has required structure
  Cycle:     58 Energy:     -7719.607245  Gnorm:      0.000536  CPU:  178.205
  ** Hessian has required structure
  Cycle:     59 Energy:     -7719.607259  Gnorm:      0.000525  CPU:  180.623
  ** Hessian has required structure
  Cycle:     60 Energy:     -7719.607272  Gnorm:      0.000514  CPU:  183.251
  ** Hessian has required structure
  Cycle:     61 Energy:     -7719.607290  Gnorm:      0.000499  CPU:  186.336
  ** Hessian has required structure
  Cycle:     62 Energy:     -7719.607305  Gnorm:      0.000486  CPU:  188.755
  ** Hessian has required structure
  Cycle:     63 Energy:     -7719.607318  Gnorm:      0.000475  CPU:  191.172
  ** Hessian has required structure
  Cycle:     64 Energy:     -7719.607329  Gnorm:      0.000464  CPU:  193.590
  ** Hessian has required structure
  Cycle:     65 Energy:     -7719.607340  Gnorm:      0.000455  CPU:  196.006
  ** Hessian has required structure
  Cycle:     66 Energy:     -7719.607350  Gnorm:      0.000445  CPU:  198.424
  ** Hessian has required structure
  Cycle:     67 Energy:     -7719.607359  Gnorm:      0.000436  CPU:  200.843
  ** Hessian has required structure
  Cycle:     68 Energy:     -7719.607368  Gnorm:      0.000427  CPU:  203.259
  ** Hessian has required structure
  Cycle:     69 Energy:     -7719.607377  Gnorm:      0.000418  CPU:  205.675
  ** Hessian has required structure
  Cycle:     70 Energy:     -7719.607385  Gnorm:      0.000410  CPU:  208.092
  ** Hessian has required structure
  Cycle:     71 Energy:     -7719.607397  Gnorm:      0.000397  CPU:  211.240
  ** Hessian has required structure
  Cycle:     72 Energy:     -7719.607406  Gnorm:      0.000387  CPU:  213.657
  ** Hessian has required structure
  Cycle:     73 Energy:     -7719.607414  Gnorm:      0.000378  CPU:  216.223
  ** Hessian has required structure
  Cycle:     74 Energy:     -7719.607422  Gnorm:      0.000370  CPU:  218.639
  ** Hessian has required structure
  Cycle:     75 Energy:     -7719.607428  Gnorm:      0.000362  CPU:  221.057
  ** Hessian has required structure
  Cycle:     76 Energy:     -7719.607435  Gnorm:      0.000355  CPU:  223.475
  ** Hessian has required structure
  Cycle:     77 Energy:     -7719.607441  Gnorm:      0.000347  CPU:  225.892
  ** Hessian has required structure
  Cycle:     78 Energy:     -7719.607447  Gnorm:      0.000340  CPU:  228.310
  ** Hessian has required structure
  Cycle:     79 Energy:     -7719.607452  Gnorm:      0.000333  CPU:  230.728
  ** Hessian has required structure
  Cycle:     80 Energy:     -7719.607457  Gnorm:      0.000327  CPU:  233.146
  ** Hessian has required structure
  Cycle:     81 Energy:     -7719.607465  Gnorm:      0.000317  CPU:  236.224
  ** Hessian has required structure
  Cycle:     82 Energy:     -7719.607471  Gnorm:      0.000309  CPU:  238.642
  ** Hessian has required structure
  Cycle:     83 Energy:     -7719.607476  Gnorm:      0.000302  CPU:  241.061
  ** Hessian has required structure
  Cycle:     84 Energy:     -7719.607481  Gnorm:      0.000295  CPU:  243.480
  ** Hessian has required structure
  Cycle:     85 Energy:     -7719.607485  Gnorm:      0.000289  CPU:  245.897
  ** Hessian has required structure
  Cycle:     86 Energy:     -7719.607489  Gnorm:      0.000283  CPU:  248.316
  ** Hessian has required structure
  Cycle:     87 Energy:     -7719.607493  Gnorm:      0.000277  CPU:  250.732
  ** Hessian has required structure
  Cycle:     88 Energy:     -7719.607496  Gnorm:      0.000271  CPU:  253.371
  ** Hessian has required structure
  Cycle:     89 Energy:     -7719.607500  Gnorm:      0.000266  CPU:  255.844
  ** Hessian has required structure
  Cycle:     90 Energy:     -7719.607503  Gnorm:      0.000260  CPU:  258.405
  ** Hessian has required structure
  Cycle:     91 Energy:     -7719.607508  Gnorm:      0.000252  CPU:  261.484
  ** Hessian has required structure
  Cycle:     92 Energy:     -7719.607512  Gnorm:      0.000246  CPU:  264.077
  ** Hessian has required structure
  Cycle:     93 Energy:     -7719.607515  Gnorm:      0.000240  CPU:  266.494
  ** Hessian has required structure
  Cycle:     94 Energy:     -7719.607518  Gnorm:      0.000235  CPU:  268.912
  ** Hessian has required structure
  Cycle:     95 Energy:     -7719.607521  Gnorm:      0.000230  CPU:  271.328
  ** Hessian has required structure
  Cycle:     96 Energy:     -7719.607523  Gnorm:      0.000225  CPU:  273.745
  ** Hessian has required structure
  Cycle:     97 Energy:     -7719.607526  Gnorm:      0.000221  CPU:  276.163
  ** Hessian has required structure
  Cycle:     98 Energy:     -7719.607528  Gnorm:      0.000216  CPU:  278.581
  ** Hessian has required structure
  Cycle:     99 Energy:     -7719.607530  Gnorm:      0.000212  CPU:  281.000
  ** Hessian has required structure
  Cycle:    100 Energy:     -7719.607532  Gnorm:      0.000207  CPU:  283.418
  ** Hessian has required structure
  Cycle:    101 Energy:     -7719.607535  Gnorm:      0.000201  CPU:  286.496
  ** Hessian has required structure
  Cycle:    102 Energy:     -7719.607538  Gnorm:      0.000196  CPU:  288.913
  ** Hessian has required structure
  Cycle:    103 Energy:     -7719.607540  Gnorm:      0.000192  CPU:  291.331
  ** Hessian has required structure
  Cycle:    104 Energy:     -7719.607542  Gnorm:      0.000187  CPU:  293.748
  ** Hessian has required structure
  Cycle:    105 Energy:     -7719.607543  Gnorm:      0.000183  CPU:  296.166
  ** Hessian has required structure
  Cycle:    106 Energy:     -7719.607545  Gnorm:      0.000180  CPU:  298.585
  ** Hessian has required structure
  Cycle:    107 Energy:     -7719.607547  Gnorm:      0.000176  CPU:  301.002
  ** Hessian has required structure
  Cycle:    108 Energy:     -7719.607548  Gnorm:      0.000172  CPU:  303.420
  ** Hessian has required structure
  Cycle:    109 Energy:     -7719.607549  Gnorm:      0.000169  CPU:  305.837
  ** Hessian has required structure
  Cycle:    110 Energy:     -7719.607551  Gnorm:      0.000165  CPU:  308.254
  ** Hessian has required structure
  Cycle:    111 Energy:     -7719.607553  Gnorm:      0.000160  CPU:  311.331
  ** Hessian has required structure
  Cycle:    112 Energy:     -7719.607554  Gnorm:      0.000156  CPU:  313.748
  ** Hessian has required structure
  Cycle:    113 Energy:     -7719.607556  Gnorm:      0.000153  CPU:  316.295
  ** Hessian has required structure
  Cycle:    114 Energy:     -7719.607557  Gnorm:      0.000149  CPU:  318.711
  ** Hessian has required structure
  Cycle:    115 Energy:     -7719.607558  Gnorm:      0.000146  CPU:  321.127
  ** Hessian has required structure
  Cycle:    116 Energy:     -7719.607559  Gnorm:      0.000143  CPU:  323.544
  ** Hessian has required structure
  Cycle:    117 Energy:     -7719.607560  Gnorm:      0.000140  CPU:  325.963
  ** Hessian has required structure
  Cycle:    118 Energy:     -7719.607561  Gnorm:      0.000137  CPU:  328.381
  ** Hessian has required structure
  Cycle:    119 Energy:     -7719.607562  Gnorm:      0.000134  CPU:  330.800
  ** Hessian has required structure
  Cycle:    120 Energy:     -7719.607563  Gnorm:      0.000132  CPU:  333.219
  ** Hessian has required structure
  Cycle:    121 Energy:     -7719.607564  Gnorm:      0.000128  CPU:  336.295
  ** Hessian has required structure
  Cycle:    122 Energy:     -7719.607565  Gnorm:      0.000125  CPU:  338.711
  ** Hessian has required structure
  Cycle:    123 Energy:     -7719.607566  Gnorm:      0.000122  CPU:  341.127
  ** Hessian has required structure
  Cycle:    124 Energy:     -7719.607566  Gnorm:      0.000119  CPU:  343.547
  ** Hessian has required structure
  Cycle:    125 Energy:     -7719.607567  Gnorm:      0.000116  CPU:  345.965
  ** Hessian has required structure
  Cycle:    126 Energy:     -7719.607568  Gnorm:      0.000114  CPU:  348.382
  ** Hessian has required structure
  Cycle:    127 Energy:     -7719.607568  Gnorm:      0.000112  CPU:  350.798
  ** Hessian has required structure
  Cycle:    128 Energy:     -7719.607569  Gnorm:      0.000109  CPU:  353.215
  ** Hessian has required structure
  Cycle:    129 Energy:     -7719.607569  Gnorm:      0.000107  CPU:  355.633
  ** Hessian has required structure
  Cycle:    130 Energy:     -7719.607570  Gnorm:      0.000105  CPU:  358.052
  ** Hessian has required structure
  Cycle:    131 Energy:     -7719.607571  Gnorm:      0.000102  CPU:  361.130
  ** Hessian has required structure
  Cycle:    132 Energy:     -7719.607571  Gnorm:      0.000099  CPU:  363.687
  ** Hessian has required structure
  Cycle:    133 Energy:     -7719.607572  Gnorm:      0.000097  CPU:  366.104
  ** Hessian has required structure
  Cycle:    134 Energy:     -7719.607572  Gnorm:      0.000095  CPU:  368.522
  ** Hessian has required structure
  Cycle:    135 Energy:     -7719.607573  Gnorm:      0.000093  CPU:  370.941
  ** Hessian has required structure
  Cycle:    136 Energy:     -7719.607573  Gnorm:      0.000091  CPU:  373.358
  ** Hessian has required structure
  Cycle:    137 Energy:     -7719.607574  Gnorm:      0.000089  CPU:  375.776
  ** Hessian has required structure
  Cycle:    138 Energy:     -7719.607574  Gnorm:      0.000087  CPU:  378.194
  ** Hessian has required structure
  Cycle:    139 Energy:     -7719.607574  Gnorm:      0.000085  CPU:  380.613
  ** Hessian has required structure
  Cycle:    140 Energy:     -7719.607575  Gnorm:      0.000084  CPU:  383.031
  ** Hessian has required structure
  Cycle:    141 Energy:     -7719.607575  Gnorm:      0.000081  CPU:  386.118
  ** Hessian has required structure
  Cycle:    142 Energy:     -7719.607576  Gnorm:      0.000079  CPU:  388.536
  ** Hessian has required structure
  Cycle:    143 Energy:     -7719.607576  Gnorm:      0.000077  CPU:  391.177
  ** Hessian has required structure
  Cycle:    144 Energy:     -7719.607576  Gnorm:      0.000076  CPU:  393.595
  ** Hessian has required structure
  Cycle:    145 Energy:     -7719.607576  Gnorm:      0.000074  CPU:  396.203
  ** Hessian has required structure
  Cycle:    146 Energy:     -7719.607577  Gnorm:      0.000072  CPU:  398.621
  ** Hessian has required structure
  Cycle:    147 Energy:     -7719.607577  Gnorm:      0.000071  CPU:  401.265
  ** Hessian has required structure
  Cycle:    148 Energy:     -7719.607577  Gnorm:      0.000069  CPU:  403.740
  ** Hessian has required structure
  Cycle:    149 Energy:     -7719.607577  Gnorm:      0.000068  CPU:  406.341
  ** Hessian has required structure
  Cycle:    150 Energy:     -7719.607578  Gnorm:      0.000067  CPU:  408.774
  ** Hessian has required structure
  Cycle:    151 Energy:     -7719.607578  Gnorm:      0.000065  CPU:  412.050
  ** Hessian has required structure
  Cycle:    152 Energy:     -7719.607578  Gnorm:      0.000063  CPU:  414.469
  ** Hessian has required structure
  Cycle:    153 Energy:     -7719.607578  Gnorm:      0.000062  CPU:  417.114
  ** Hessian has required structure
  Cycle:    154 Energy:     -7719.607579  Gnorm:      0.000060  CPU:  419.587
  ** Hessian has required structure
  Cycle:    155 Energy:     -7719.607579  Gnorm:      0.000059  CPU:  422.189
  ** Hessian has required structure
  Cycle:    156 Energy:     -7719.607579  Gnorm:      0.000058  CPU:  424.620
  ** Hessian has required structure
  Cycle:    157 Energy:     -7719.607579  Gnorm:      0.000057  CPU:  427.238
  ** Hessian has required structure
  Cycle:    158 Energy:     -7719.607579  Gnorm:      0.000055  CPU:  429.656
  ** Hessian has required structure
  Cycle:    159 Energy:     -7719.607579  Gnorm:      0.000054  CPU:  432.278
  ** Hessian has required structure
  Cycle:    160 Energy:     -7719.607580  Gnorm:      0.000053  CPU:  434.701
  ** Hessian has required structure
  Cycle:    161 Energy:     -7719.607580  Gnorm:      0.000052  CPU:  437.965
  ** Hessian has required structure
  Cycle:    162 Energy:     -7719.607580  Gnorm:      0.000050  CPU:  440.402
  ** Hessian has required structure
  Cycle:    163 Energy:     -7719.607580  Gnorm:      0.000049  CPU:  442.963
  ** Hessian has required structure
  Cycle:    164 Energy:     -7719.607580  Gnorm:      0.000048  CPU:  445.381
  ** Hessian has required structure
  Cycle:    165 Energy:     -7719.607580  Gnorm:      0.000047  CPU:  447.800
  ** Hessian has required structure
  Cycle:    166 Energy:     -7719.607580  Gnorm:      0.000046  CPU:  450.218
  ** Hessian has required structure
  Cycle:    167 Energy:     -7719.607581  Gnorm:      0.000045  CPU:  452.637
  ** Hessian has required structure
  Cycle:    168 Energy:     -7719.607581  Gnorm:      0.000044  CPU:  455.055
  ** Hessian has required structure
  Cycle:    169 Energy:     -7719.607581  Gnorm:      0.000043  CPU:  457.474
  ** Hessian has required structure
  Cycle:    170 Energy:     -7719.607581  Gnorm:      0.000042  CPU:  459.892
  ** Hessian has required structure
  Cycle:    171 Energy:     -7719.607581  Gnorm:      0.000041  CPU:  462.970
  ** Hessian has required structure


  **** Optimisation achieved ****


  Final energy =   -7719.60758102 eV
  Final Gnorm  =       0.00004002

  Components of energy : 

--------------------------------------------------------------------------------
  Interatomic potentials     =        2062.73736982 eV
  Three-body potentials      =           0.47740171 eV
  Monopole - monopole (real) =       -6581.61822908 eV
  Monopole - monopole (recip)=       -3194.74525401 eV
  Monopole - monopole (total)=       -9776.36348309 eV
  Neutralising energy        =          -6.45886946 eV
--------------------------------------------------------------------------------
  Total lattice energy       =       -7719.60758102 eV
--------------------------------------------------------------------------------
  Total lattice energy       =         -744824.1266 kJ/(mole unit cells)
--------------------------------------------------------------------------------

  Final fractional coordinates of atoms :

--------------------------------------------------------------------------------
   No.  Atomic        x           y          z          Radius
        Label       (Frac)      (Frac)     (Frac)       (Angs) 
--------------------------------------------------------------------------------
     1  Si    c     0.699600    0.375700    0.033890    0.000000
     2  Si    c     0.642843    0.323411    0.367827    0.000000
     3  Si    c     0.693392    0.294880    0.698324    0.000000
     4  Si    c     0.316185    0.618532    0.534131    0.000000
     5  Si    c     0.397838    0.679824    0.867517    0.000000
     6  Si    c     0.337599    0.697770    0.197588    0.000000
     7  Si    c     0.403434    0.701357    0.299787    0.000000
     8  Si    c     0.330326    0.626342    0.969441    0.000000
     9  Si    c     0.314911    0.673785    0.635030    0.000000
    10  Si    c     0.638724    0.298887    0.799227    0.000000
    11  Si    c     0.695959    0.378520    0.468550    0.000000
    12  Si    c     0.711041    0.339794    0.136281    0.000000
    13  Ge    c     0.540787    0.434178    0.967336    0.000000
    14  Si    c     0.609320    0.116521    0.301197    0.000000
    15  Si    c     0.905499    0.469759    0.634883    0.000000
    16  Si    c     0.490032    0.581936    0.468656    0.000000
    17  Si    c     0.438258    0.889183    0.800829    0.000000
    18  Si    c     0.116061    0.534257    0.134903    0.000000
    19  Si    c     0.440137    0.530944    0.366601    0.000000
    20  Si    c     0.112294    0.577525    0.033472    0.000000
    21  Si    c     0.489066    0.884672    0.699116    0.000000
    22  Si    c     0.610103    0.471670    0.867384    0.000000
    23  Si    c     0.906195    0.416600    0.533085    0.000000
    24  Si    c     0.550253    0.126459    0.198481    0.000000
    25  Si    c     0.323599    0.399636    0.852390    0.000000
    26  Ge    c     0.606724    0.908804    0.191330    0.000000
    27  Si    c     0.114644    0.695356    0.519714    0.000000
    28  Si    c     0.720767    0.601163    0.353378    0.000000
    29  Si    c     0.417040    0.093441    0.684771    0.000000
    30  Si    c     0.903562    0.296989    0.022590    0.000000
    31  Si    c     0.417677    0.301540    0.483462    0.000000
    32  Si    c     0.913248    0.615731    0.147940    0.000000
    33  Si    c     0.716602    0.097377    0.814342    0.000000
    34  Ge    c     0.614970    0.709102    0.989695    0.000000
    35  Si    c     0.113919    0.397015    0.649763    0.000000
    36  Si    c     0.325369    0.905503    0.316515    0.000000
    37  Si    c     0.261671    0.340721    0.954508    0.000000
    38  Si    c     0.690628    0.913427    0.286714    0.000000
    39  Si    c     0.106020    0.747107    0.620463    0.000000
    40  Si    c     0.769447    0.659915    0.454265    0.000000
    41  Si    c     0.358818    0.089433    0.785584    0.000000
    42  Si    c     0.913814    0.256492    0.124104    0.000000
    43  Si    c     0.362427    0.252648    0.382478    0.000000
    44  Si    c     0.911577    0.656960    0.046248    0.000000
    45  Si    c     0.766266    0.086182    0.713464    0.000000
    46  Si    c     0.684950    0.752359    0.885934    0.000000
    47  Si    c     0.107803    0.339315    0.548809    0.000000
    48  Si    c     0.270896    0.916822    0.215108    0.000000
    49  Si    c     0.978690    0.125394    0.969265    0.000000
    50  Si    c     0.902999    0.849446    0.305206    0.000000
    51  Si    c     0.169419    0.027530    0.635392    0.000000
    52  Si    c     0.048933    0.877311    0.469731    0.000000
    53  Si    c     0.140388    0.151811    0.802253    0.000000
    54  Si    c     0.864078    0.982322    0.142270    0.000000
    55  Si    c     0.146665    0.973391    0.369236    0.000000
    56  Ge    c     0.866642    0.893264    0.039747    0.000000
    57  Si    c     0.047046    0.150359    0.700966    0.000000
    58  Si    c     0.895169    0.031598    0.867288    0.000000
    59  Si    c     0.169939    0.121084    0.534424    0.000000
    60  Si    c     0.991763    0.862066    0.202762    0.000000
    61  O3    c     0.958665    0.012084    0.001156    0.000000
    62  O2    c     0.023002    0.927872    0.338222    0.000000
    63  O2    c     0.092903    0.070881    0.669482    0.000000
    64  O2    c     0.089196    0.997509    0.502961    0.000000
    65  O2    c     0.022162    0.075050    0.836569    0.000000
    66  O2    c     0.953614    0.954049    0.176346    0.000000
    67  O2    c     0.365373    0.580252    0.333299    0.000000
    68  O2    c     0.438478    0.757844    0.667248    0.000000
    69  O2    c     0.233325    0.654885    0.999067    0.000000
    70  O2    c     0.680245    0.425602    0.829967    0.000000
    71  O2    c     0.589744    0.258000    0.170657    0.000000
    72  O2    c     0.781106    0.340030    0.500911    0.000000
    73  O3    c     0.582193    0.337969    0.001968    0.000000
    74  O2    c     0.777811    0.418855    0.666366    0.000000
    75  O2    c     0.681942    0.238815    0.334919    0.000000
    76  O2    c     0.439413    0.657713    0.501234    0.000000
    77  O2    c     0.238580    0.575358    0.168089    0.000000
    78  O2    c     0.363990    0.764840    0.833757    0.000000
    79  O2    c     0.129066    0.225467    0.972555    0.000000
    80  O2    c     0.809612    0.909971    0.312250    0.000000
    81  O2    c     0.105023    0.873482    0.640348    0.000000
    82  O2    c     0.894720    0.786774    0.473987    0.000000
    83  O2    c     0.231110    0.087337    0.805841    0.000000
    84  O2    c     0.913727    0.135362    0.147848    0.000000
    85  O2    c     0.236236    0.126682    0.362821    0.000000
    86  O3    c     0.908525    0.777785    0.025052    0.000000
    87  O2    c     0.893626    0.086145    0.693870    0.000000
    88  O2    c     0.804773    0.877871    0.862104    0.000000
    89  O2    c     0.107209    0.212584    0.528528    0.000000
    90  O2    c     0.144936    0.917250    0.196048    0.000000
    91  O2    c     0.961064    0.865102    0.255512    0.000000
    92  O2    c     0.156134    0.070065    0.585297    0.000000
    93  O2    c     0.938299    0.072994    0.918354    0.000000
    94  O2    c     0.083197    0.139397    0.752353    0.000000
    95  O3    c     0.905887    0.954801    0.093044    0.000000
    96  O2    c     0.095856    0.934660    0.420050    0.000000
    97  O2    c     0.898588    0.195714    0.984431    0.000000
    98  O2    c     0.821645    0.697217    0.315759    0.000000
    99  O2    c     0.320794    0.094164    0.646248    0.000000
   100  O2    c     0.117004    0.793600    0.481349    0.000000
   101  O2    c     0.227475    0.303308    0.813742    0.000000
   102  O3    c     0.715090    0.904163    0.149610    0.000000
   103  O2    c     0.231019    0.905324    0.356274    0.000000
   104  O1    c     0.706853    0.827103    0.028524    0.000000
   105  O2    c     0.115348    0.301076    0.688386    0.000000
   106  O2    c     0.815559    0.101768    0.852432    0.000000
   107  O2    c     0.320983    0.202601    0.521658    0.000000
   108  O2    c     0.914749    0.715040    0.186022    0.000000
   109  O2    c     0.347287    0.649278    0.249294    0.000000
   110  O2    c     0.372425    0.674086    0.584573    0.000000
   111  O2    c     0.334674    0.673129    0.916908    0.000000
   112  O2    c     0.694250    0.352242    0.748579    0.000000
   113  O2    c     0.651423    0.333394    0.086494    0.000000
   114  O2    c     0.698569    0.322136    0.418167    0.000000
   115  O3    c     0.373821    0.320558    0.973073    0.000000
   116  O2    c     0.694863    0.045815    0.303791    0.000000
   117  O2    c     0.973625    0.625494    0.638708    0.000000
   118  O2    c     0.645628    0.669409    0.472081    0.000000
   119  O2    c     0.350816    0.958387    0.804552    0.000000
   120  O2    c     0.046999    0.379826    0.140242    0.000000
   121  O2    c     0.353398    0.375126    0.363567    0.000000
   122  O2    c     0.045575    0.666249    0.029548    0.000000
   123  O2    c     0.645087    0.952772    0.695724    0.000000
   124  O2    c     0.692717    0.629213    0.866328    0.000000
   125  O2    c     0.975902    0.329437    0.530199    0.000000
   126  O2    c     0.393047    0.049899    0.198854    0.000000
   127  O2    c     0.770621    0.297201    0.015572    0.000000
   128  O2    c     0.718275    0.465895    0.345505    0.000000
   129  O2    c     0.550116    0.226439    0.676514    0.000000
   130  O2    c     0.248126    0.694060    0.511966    0.000000
   131  O2    c     0.330415    0.536989    0.845520    0.000000
   132  O3    c     0.474207    0.759281    0.173504    0.000000
   133  O2    c     0.329860    0.773528    0.320901    0.000000
   134  O3    c     0.469508    0.709945    0.990563    0.000000
   135  O2    c     0.246643    0.530914    0.657329    0.000000
   136  O2    c     0.712096    0.229157    0.821818    0.000000
   137  O2    c     0.552600    0.302904    0.490817    0.000000
   138  O2    c     0.780451    0.483677    0.157849    0.000000
   139  O2    c     0.789098    0.530483    0.026867    0.000000
   140  O2    c     0.487051    0.248745    0.363022    0.000000
   141  O2    c     0.765939    0.210927    0.693017    0.000000
   142  O2    c     0.234450    0.463096    0.529222    0.000000
   143  O2    c     0.551558    0.743707    0.869768    0.000000
   144  O2    c     0.276209    0.793293    0.196610    0.000000
   145  O2    c     0.557810    0.787899    0.303501    0.000000
   146  O2    c     0.273398    0.473525    0.973316    0.000000
   147  O2    c     0.232141    0.747711    0.640037    0.000000
   148  O2    c     0.482793    0.217346    0.804283    0.000000
   149  O2    c     0.769121    0.534080    0.473959    0.000000
   150  O2    c     0.791053    0.264185    0.142888    0.000000
   151  O2    c     0.253911    0.333428    0.899289    0.000000
   152  O3    c     0.716574    0.912793    0.234143    0.000000
   153  O2    c     0.108499    0.765818    0.566049    0.000000
   154  O2    c     0.789447    0.675247    0.399953    0.000000
   155  O2    c     0.341258    0.089418    0.731158    0.000000
   156  O2    c     0.909428    0.230025    0.069745    0.000000
   157  O2    c     0.344044    0.233299    0.436844    0.000000
   158  O2    c     0.909835    0.682931    0.100763    0.000000
   159  O2    c     0.786407    0.091825    0.767754    0.000000
   160  O3    c     0.704395    0.775083    0.939019    0.000000
   161  O2    c     0.109840    0.322288    0.603221    0.000000
   162  O2    c     0.259621    0.912373    0.269949    0.000000
   163  O1    c     0.605643    0.568777    0.004491    0.000000
   164  O2    c     0.467344    0.025421    0.322253    0.000000
   165  O2    c     0.988597    0.412000    0.658451    0.000000
   166  O2    c     0.432336    0.441389    0.492053    0.000000
   167  O2    c     0.579245    0.970523    0.823569    0.000000
   168  O2    c     0.040483    0.603664    0.156780    0.000000
   169  O2    c     0.582099    0.588764    0.344103    0.000000
   170  O2    c     0.030521    0.433875    0.012256    0.000000
   171  O2    c     0.431620    0.968120    0.675727    0.000000
   172  O2    c     0.465095    0.417905    0.847221    0.000000
   173  O2    c     0.990081    0.557253    0.510089    0.000000
   174  O3    c     0.607682    0.049610    0.172009    0.000000
   175  O2    c     0.604852    0.166720    0.250671    0.000000
   176  O2    c     0.853223    0.417638    0.583980    0.000000
   177  O3    c     0.614746    0.417202    0.915772    0.000000
   178  O2    c     0.436341    0.832985    0.750215    0.000000
   179  O2    c     0.172362    0.583252    0.083741    0.000000
   180  O2    c     0.437890    0.582899    0.417673    0.000000
   181  F     c     0.503391    0.908811    0.240166    0.000000
   182  F     c     0.113427    0.546476    0.584393    0.000000
   183  F     c     0.495214    0.538269    0.930321    0.000000
   184  F     c     0.564205    0.092047    0.749491    0.000000
   185  F     c     0.915309    0.461085    0.086231    0.000000
   186  F     c     0.568685    0.451357    0.417856    0.000000
   187  O3    s     0.953283    0.014805    0.000829    0.000000
   188  O2    s     0.023842    0.924343    0.338104    0.000000
   189  O2    s     0.096338    0.074944    0.669191    0.000000
   190  O2    s     0.093710    0.997875    0.502758    0.000000
   191  O2    s     0.021583    0.078877    0.836068    0.000000
   192  O2    s     0.948786    0.946424    0.175885    0.000000
   193  O2    s     0.376901    0.587673    0.333243    0.000000
   194  O2    s     0.431008    0.762259    0.667211    0.000000
   195  O2    s     0.231440    0.643965    0.999376    0.000000
   196  O2    s     0.668849    0.416966    0.830492    0.000000
   197  O2    s     0.597622    0.252719    0.170109    0.000000
   198  O2    s     0.785261    0.351889    0.500895    0.000000
   199  O3    s     0.592312    0.348553    0.003150    0.000000
   200  O2    s     0.782268    0.411288    0.666426    0.000000
   201  O2    s     0.670338    0.234821    0.334815    0.000000
   202  O2    s     0.431932    0.645851    0.501274    0.000000
   203  O2    s     0.236807    0.584392    0.167907    0.000000
   204  O2    s     0.375177    0.768560    0.833970    0.000000
   205  O2    s     0.127332    0.227459    0.970124    0.000000
   206  O2    s     0.807526    0.903898    0.308998    0.000000
   207  O2    s     0.111930    0.876717    0.637794    0.000000
   208  O2    s     0.898103    0.783297    0.471544    0.000000
   209  O2    s     0.234674    0.094396    0.803394    0.000000
   210  O2    s     0.908732    0.132895    0.144786    0.000000
   211  O2    s     0.239707    0.123366    0.365492    0.000000
   212  O3    s     0.905500    0.774549    0.028317    0.000000
   213  O2    s     0.896721    0.092926    0.696608    0.000000
   214  O2    s     0.802413    0.881613    0.864973    0.000000
   215  O2    s     0.113968    0.215941    0.531227    0.000000
   216  O2    s     0.142534    0.911468    0.198761    0.000000
   217  O2    s     0.957761    0.862940    0.255365    0.000000
   218  O2    s     0.159193    0.071015    0.585208    0.000000
   219  O2    s     0.937755    0.073967    0.918028    0.000000
   220  O2    s     0.085563    0.142009    0.752185    0.000000
   221  O3    s     0.898373    0.951981    0.093032    0.000000
   222  O2    s     0.096320    0.932563    0.419886    0.000000
   223  O2    s     0.907509    0.198493    0.986696    0.000000
   224  O2    s     0.819738    0.703257    0.318554    0.000000
   225  O2    s     0.314484    0.086949    0.649046    0.000000
   226  O2    s     0.109442    0.792472    0.484046    0.000000
   227  O2    s     0.228251    0.297384    0.816499    0.000000
   228  O3    s     0.724299    0.912952    0.151474    0.000000
   229  O2    s     0.232140    0.912411    0.353465    0.000000
   230  O1    s     0.712531    0.823686    0.026583    0.000000
   231  O2    s     0.107962    0.294910    0.685769    0.000000
   232  O2    s     0.813663    0.093822    0.849998    0.000000
   233  O2    s     0.314896    0.204072    0.519117    0.000000
   234  O2    s     0.922933    0.720730    0.183906    0.000000
   235  O2    s     0.352222    0.659247    0.249671    0.000000
   236  O2    s     0.360784    0.668360    0.584565    0.000000
   237  O2    s     0.340848    0.669217    0.916878    0.000000
   238  O2    s     0.688398    0.340706    0.748582    0.000000
   239  O2    s     0.662470    0.338252    0.086586    0.000000
   240  O2    s     0.692600    0.328018    0.418160    0.000000
   241  O3    s     0.373370    0.330597    0.970653    0.000000
   242  O2    s     0.685464    0.040019    0.301801    0.000000
   243  O2    s     0.980426    0.622195    0.636411    0.000000
   244  O2    s     0.642587    0.659448    0.469862    0.000000
   245  O2    s     0.360697    0.964843    0.802186    0.000000
   246  O2    s     0.040254    0.383204    0.137950    0.000000
   247  O2    s     0.363216    0.378281    0.365863    0.000000
   248  O2    s     0.038707    0.655880    0.031726    0.000000
   249  O2    s     0.641715    0.959637    0.697916    0.000000
   250  O2    s     0.683841    0.626518    0.868471    0.000000
   251  O2    s     0.982558    0.339462    0.532458    0.000000
   252  O2    s     0.395644    0.043272    0.200575    0.000000
   253  O2    s     0.778120    0.305014    0.018218    0.000000
   254  O2    s     0.710701    0.465404    0.348688    0.000000
   255  O2    s     0.550888    0.219503    0.679660    0.000000
   256  O2    s     0.241007    0.686399    0.515107    0.000000
   257  O2    s     0.336695    0.537416    0.848523    0.000000
   258  O3    s     0.469234    0.763231    0.177256    0.000000
   259  O2    s     0.336899    0.780273    0.318258    0.000000
   260  O3    s     0.466406    0.701280    0.988301    0.000000
   261  O2    s     0.239736    0.531548    0.654215    0.000000
   262  O2    s     0.704975    0.222343    0.818662    0.000000
   263  O2    s     0.553156    0.310520    0.487729    0.000000
   264  O2    s     0.787213    0.482691    0.154561    0.000000
   265  O2    s     0.793709    0.528767    0.029653    0.000000
   266  O2    s     0.489706    0.256931    0.365588    0.000000
   267  O2    s     0.758323    0.206091    0.695741    0.000000
   268  O2    s     0.229175    0.465915    0.531828    0.000000
   269  O2    s     0.548705    0.737560    0.871210    0.000000
   270  O2    s     0.281954    0.797581    0.198765    0.000000
   271  O2    s     0.554732    0.791454    0.301399    0.000000
   272  O2    s     0.278539    0.476141    0.970935    0.000000
   273  O2    s     0.227049    0.739856    0.637434    0.000000
   274  O2    s     0.485465    0.211866    0.801774    0.000000
   275  O2    s     0.761491    0.531575    0.471307    0.000000
   276  O2    s     0.796146    0.271436    0.140188    0.000000
   277  O2    s     0.262353    0.341428    0.899749    0.000000
   278  O3    s     0.706765    0.912655    0.237000    0.000000
   279  O2    s     0.108869    0.756434    0.566967    0.000000
   280  O2    s     0.780098    0.665838    0.400910    0.000000
   281  O2    s     0.351027    0.089827    0.732083    0.000000
   282  O2    s     0.909266    0.239526    0.070478    0.000000
   283  O2    s     0.353749    0.242549    0.435971    0.000000
   284  O2    s     0.910322    0.673349    0.100283    0.000000
   285  O2    s     0.776877    0.091804    0.766840    0.000000
   286  O3    s     0.696071    0.767983    0.937065    0.000000
   287  O2    s     0.110055    0.331933    0.602345    0.000000
   288  O2    s     0.267912    0.912104    0.269257    0.000000
   289  O1    s     0.601963    0.571599    0.000867    0.000000
   290  O2    s     0.466532    0.021602    0.319411    0.000000
   291  O2    s     0.993602    0.416571    0.655063    0.000000
   292  O2    s     0.436922    0.440904    0.488693    0.000000
   293  O2    s     0.579036    0.975571    0.820195    0.000000
   294  O2    s     0.034769    0.597676    0.153575    0.000000
   295  O2    s     0.582047    0.583871    0.347459    0.000000
   296  O2    s     0.025579    0.434402    0.015551    0.000000
   297  O2    s     0.436244    0.973052    0.679155    0.000000
   298  O2    s     0.463748    0.421325    0.849808    0.000000
   299  O2    s     0.994890    0.557414    0.513530    0.000000
   300  O3    s     0.601481    0.047151    0.176110    0.000000
   301  O2    s     0.600034    0.157418    0.250982    0.000000
   302  O2    s     0.864232    0.422980    0.583961    0.000000
   303  O3    s     0.609490    0.424159    0.914017    0.000000
   304  O2    s     0.441978    0.844158    0.750205    0.000000
   305  O2    s     0.160650    0.577731    0.083851    0.000000
   306  O2    s     0.443455    0.577432    0.417621    0.000000
   307  F     s     0.510350    0.908695    0.237041    0.000000
   308  F     s     0.113732    0.546676    0.584373    0.000000
   309  F     s     0.498928    0.533471    0.932760    0.000000
   310  F     s     0.564156    0.092085    0.749485    0.000000
   311  F     s     0.915875    0.461546    0.086386    0.000000
   312  F     s     0.568860    0.451083    0.417821    0.000000
--------------------------------------------------------------------------------

  Final Cartesian lattice vectors (Angstroms) :

       11.954501    0.007023    0.010110
       -5.903431   10.402849   -0.012307
        0.173063   -0.039998   29.411040


  Final cell parameters and derivatives :

--------------------------------------------------------------------------------
       a           11.954507 Angstrom     dE/de1(xx)     0.000611 eV/strain
       b           11.961184 Angstrom     dE/de2(yy)     0.000209 eV/strain
       c           29.411576 Angstrom     dE/de3(zz)     0.000272 eV/strain
       alpha       90.293115 Degrees      dE/de4(yz)    -0.000042 eV/strain
       beta        89.614450 Degrees      dE/de5(xz)    -0.000174 eV/strain
       gamma      119.540505 Degrees      dE/de6(xy)    -0.000321 eV/strain
--------------------------------------------------------------------------------

  Primitive cell volume =          3658.780146 Angs**3

  Density of cell =      1.768901 g/cm**3

  Non-primitive cell volume =          3658.780146 Angs**3


  Final internal derivatives :

--------------------------------------------------------------------------------
   No.  Atomic          a             b             c           Radius
        Label          (eV)          (eV)          (eV)        (eV/Angs)
--------------------------------------------------------------------------------
      1 Si    c       0.000000      0.000000      0.000000      0.000000
      2 Si    c      -0.000302      0.000021     -0.001637      0.000000
      3 Si    c      -0.000298      0.000397      0.003467      0.000000
      4 Si    c      -0.000202      0.000263     -0.000451      0.000000
      5 Si    c      -0.000218     -0.000095     -0.001125      0.000000
      6 Si    c       0.000244     -0.000332      0.000851      0.000000
      7 Si    c      -0.000701      0.000300     -0.002180      0.000000
      8 Si    c       0.000211     -0.000163     -0.000277      0.000000
      9 Si    c       0.000180     -0.000106      0.002607      0.000000
     10 Si    c       0.000038     -0.000138     -0.001243      0.000000
     11 Si    c       0.000078      0.000095     -0.000919      0.000000
     12 Si    c       0.000172      0.000005      0.000557      0.000000
     13 Ge    c      -0.000342      0.000166     -0.001033      0.000000
     14 Si    c      -0.000311      0.000076     -0.001219      0.000000
     15 Si    c      -0.000138      0.000244      0.002506      0.000000
     16 Si    c      -0.000386      0.000251     -0.001004      0.000000
     17 Si    c       0.000057      0.000023     -0.001964      0.000000
     18 Si    c      -0.000100      0.000154     -0.000349      0.000000
     19 Si    c      -0.000213      0.000087     -0.000517      0.000000
     20 Si    c       0.000031      0.000158     -0.000387      0.000000
     21 Si    c      -0.000469      0.000197      0.003375      0.000000
     22 Si    c      -0.000069     -0.000255     -0.000298      0.000000
     23 Si    c      -0.000038      0.000090     -0.000871      0.000000
     24 Si    c       0.000282     -0.000464      0.001562      0.000000
     25 Si    c      -0.000073     -0.000117     -0.001143      0.000000
     26 Ge    c      -0.000075     -0.000053      0.002093      0.000000
     27 Si    c      -0.000116      0.000181     -0.001266      0.000000
     28 Si    c      -0.000040     -0.000193     -0.000908      0.000000
     29 Si    c      -0.000404      0.000229      0.003861      0.000000
     30 Si    c       0.000060      0.000028     -0.000004      0.000000
     31 Si    c      -0.000278      0.000131     -0.000314      0.000000
     32 Si    c       0.000186      0.000000     -0.000473      0.000000
     33 Si    c      -0.000073      0.000136     -0.001818      0.000000
     34 Ge    c      -0.000101     -0.000291     -0.001157      0.000000
     35 Si    c      -0.000071      0.000341      0.002519      0.000000
     36 Si    c      -0.000564      0.000241     -0.001822      0.000000
     37 Si    c      -0.000193      0.000117      0.000730      0.000000
     38 Si    c      -0.000429      0.000142     -0.000027      0.000000
     39 Si    c       0.000022      0.000425      0.001564      0.000000
     40 Si    c      -0.000112      0.000228     -0.000786      0.000000
     41 Si    c      -0.000595      0.000260     -0.002541      0.000000
[...]
     58 Si    c      -0.000142     -0.000096     -0.002306      0.000000
     59 Si    c      -0.000200      0.000208     -0.001359      0.000000
     60 Si    c       0.000040     -0.000057      0.000339      0.000000
     61 O3    c      -0.000817     -0.000278     -0.003052      0.000000
     62 O2    c       0.000361     -0.000594     -0.000599      0.000000
     63 O2    c      -0.000468     -0.000038      0.002084      0.000000
     64 O2    c       0.000112      0.000185     -0.000280      0.000000
     65 O2    c      -0.000186     -0.000224     -0.001243      0.000000
     66 O2    c      -0.000775      0.000446      0.000306      0.000000
     67 O2    c      -0.000074     -0.000567     -0.000525      0.000000
     68 O2    c      -0.000693      0.000741      0.001672      0.000000
     69 O2    c      -0.000662      0.000733      0.001223      0.000000
     70 O2    c      -0.000848      0.000902     -0.000004      0.000000
     71 O2    c       0.000274     -0.000301      0.000671      0.000000
     72 O2    c       0.000110     -0.000231     -0.000712      0.000000
     73 O3    c      -0.000581      0.000063     -0.008214      0.000000
     74 O2    c       0.000566     -0.000102      0.000974      0.000000
     75 O2    c      -0.000068     -0.000018     -0.000121      0.000000
     76 O2    c       0.000378     -0.000047     -0.000797      0.000000
     77 O2    c      -0.000318      0.000472      0.001062      0.000000
     78 O2    c      -0.000758      0.000268      0.000181      0.000000
     79 O2    c      -0.000341      0.000179      0.000857      0.000000
     80 O2    c       0.000058     -0.000160     -0.000071      0.000000
     81 O2    c       0.000124      0.000052      0.002023      0.000000
     82 O2    c       0.000626     -0.000598     -0.001316      0.000000
     83 O2    c       0.000400     -0.000664     -0.000400      0.000000
     84 O2    c      -0.000436      0.000492     -0.000355      0.000000
     85 O2    c       0.000165     -0.000370     -0.001249      0.000000
     86 O3    c       0.000872     -0.000669      0.000462      0.000000
     87 O2    c      -0.000460      0.000503      0.002183      0.000000
     88 O2    c      -0.000702      0.000596     -0.000698      0.000000
     89 O2    c      -0.000726      0.000694     -0.000908      0.000000
     90 O2    c      -0.000413      0.000076      0.000898      0.000000
     91 O2    c      -0.001059      0.000670     -0.000717      0.000000
     92 O2    c      -0.000719      0.000451      0.000420      0.000000
     93 O2    c      -0.000111      0.000372     -0.000566      0.000000
     94 O2    c       0.000176     -0.000449     -0.000478      0.000000
     95 O3    c      -0.000177     -0.000332     -0.001163      0.000000
     96 O2    c      -0.000254     -0.000131      0.000810      0.000000
     97 O2    c      -0.000658      0.000552     -0.000607      0.000000
     98 O2    c       0.000255     -0.000493     -0.001642      0.000000
     99 O2    c       0.000774     -0.000619      0.002136      0.000000
    100 O2    c       0.001079     -0.001053     -0.000455      0.000000
    101 O2    c      -0.000416      0.000075     -0.000782      0.000000
    102 O3    c      -0.000328     -0.000281     -0.000199      0.000000
    103 O2    c       0.000723     -0.001003     -0.000912      0.000000
    104 O1    c       0.000058      0.000320     -0.001594      0.000000
    105 O2    c      -0.000542      0.000737      0.002280      0.000000
    106 O2    c      -0.001016      0.000957     -0.001898      0.000000
    107 O2    c      -0.000100      0.000161      0.000041      0.000000
    108 O2    c       0.000688     -0.000948     -0.000088      0.000000
    109 O2    c      -0.000715      0.000480      0.000068      0.000000
    110 O2    c       0.000379     -0.000159      0.000506      0.000000
    111 O2    c      -0.000242      0.000010      0.000477      0.000000
    112 O2    c      -0.000467      0.000626     -0.000873      0.000000
    113 O2    c      -0.000540      0.000133      0.002085      0.000000
    114 O2    c      -0.000166      0.000207      0.000503      0.000000
    115 O3    c      -0.000355     -0.000084      0.000957      0.000000
    116 O2    c       0.000262     -0.000402     -0.000655      0.000000
    117 O2    c      -0.000467      0.000396      0.002291      0.000000
    118 O2    c       0.000729     -0.000435     -0.000778      0.000000
    119 O2    c      -0.000785      0.000564     -0.000663      0.000000
    120 O2    c       0.000098     -0.000013     -0.000582      0.000000
    121 O2    c       0.000060     -0.000451     -0.001065      0.000000
    122 O2    c      -0.000543      0.000774     -0.000021      0.000000
    123 O2    c       0.000257     -0.000367      0.001965      0.000000
    124 O2    c      -0.000961      0.000942     -0.000502      0.000000
    125 O2    c       0.000261     -0.000335     -0.000937      0.000000
    126 O2    c      -0.000173      0.000156      0.000160      0.000000
    127 O2    c      -0.000239      0.000389      0.000062      0.000000
    128 O2    c      -0.000711      0.000561     -0.000839      0.000000
    129 O2    c       0.000881     -0.000630      0.002068      0.000000
    130 O2    c       0.001187     -0.001013     -0.000772      0.000000
    131 O2    c      -0.000945      0.000675     -0.000681      0.000000
    132 O3    c      -0.000559     -0.000149      0.004619      0.000000
    133 O2    c       0.000767     -0.001337     -0.000828      0.000000
    134 O3    c      -0.000428     -0.000170     -0.002214      0.000000
    135 O2    c      -0.000759      0.001074      0.001808      0.000000
    136 O2    c      -0.001171      0.001205     -0.001699      0.000000
    137 O2    c      -0.000105      0.000037     -0.000302      0.000000
    138 O2    c       0.000496     -0.000682     -0.000462      0.000000
    139 O2    c       0.000287     -0.000396     -0.001466      0.000000
    140 O2    c      -0.000010     -0.000149     -0.000964      0.000000
    141 O2    c       0.000844     -0.000459      0.002488      0.000000
    142 O2    c       0.000179      0.000022     -0.001116      0.000000
    143 O2    c      -0.001000      0.000573     -0.000829      0.000000
    144 O2    c      -0.001276      0.000837      0.000683      0.000000
    145 O2    c       0.000353     -0.000554     -0.000447      0.000000
    146 O2    c      -0.000365      0.000167      0.000232      0.000000
    147 O2    c      -0.001232      0.001481      0.002106      0.000000
    148 O2    c      -0.000259      0.000441     -0.000519      0.000000
    149 O2    c       0.000575     -0.000694     -0.001076      0.000000
    150 O2    c       0.000384     -0.000541     -0.000289      0.000000
    151 O2    c      -0.000430     -0.000093     -0.000751      0.000000
    152 O3    c      -0.000247      0.000008     -0.004755      0.000000
    153 O2    c      -0.000387      0.000637     -0.000118      0.000000
    154 O2    c      -0.000516      0.000562     -0.000566      0.000000
    155 O2    c      -0.000981      0.000941      0.001117      0.000000
    156 O2    c       0.000554     -0.000622     -0.001107      0.000000
    157 O2    c      -0.000271      0.000017      0.000904      0.000000
    158 O2    c      -0.001079      0.001394     -0.000902      0.000000
    159 O2    c      -0.000164      0.000307     -0.001727      0.000000
    160 O3    c       0.000100      0.000397     -0.001738      0.000000
    161 O2    c       0.000699     -0.000750     -0.000144      0.000000
    162 O2    c      -0.000570      0.000220      0.000473      0.000000
    163 O1    c       0.000668      0.000282     -0.007888      0.000000
    164 O2    c       0.000507     -0.000584     -0.000885      0.000000
    165 O2    c      -0.000608      0.000589      0.002217      0.000000
    166 O2    c      -0.000220      0.000078     -0.000427      0.000000
    167 O2    c      -0.001253      0.001216     -0.000791      0.000000
    168 O2    c       0.000075      0.000106      0.000456      0.000000
    169 O2    c      -0.000729      0.000508     -0.000953      0.000000
    170 O2    c      -0.000543      0.000711     -0.000463      0.000000
    171 O2    c       0.000449     -0.000631      0.002424      0.000000
    172 O2    c      -0.001230      0.000722     -0.000559      0.000000
    173 O2    c       0.000924     -0.000972     -0.001565      0.000000
    174 O3    c       0.000019      0.000196      0.004451      0.000000
    175 O2    c       0.000024     -0.000012      0.000905      0.000000
    176 O2    c      -0.000644      0.000457     -0.000769      0.000000
    177 O3    c       0.000114     -0.000368     -0.005948      0.000000
    178 O2    c       0.000436     -0.000401      0.000574      0.000000
    179 O2    c       0.000266      0.000065      0.000368      0.000000
    180 O2    c      -0.000646      0.000569      0.000213      0.000000
    181 F     c      -0.000154      0.000016     -0.000412      0.000000
    182 F     c      -0.000031      0.000096      0.000130      0.000000
    183 F     c       0.000036      0.000147      0.000737      0.000000
    184 F     c      -0.000090      0.000178     -0.000248      0.000000
    185 F     c       0.000089      0.000077      0.000039      0.000000
    186 F     c      -0.000200      0.000100     -0.000040      0.000000
    187 O3    s       0.000024      0.000216      0.002950      0.000000
    188 O2    s      -0.000719      0.000665      0.000985      0.000000
    189 O2    s      -0.000368      0.000232     -0.003872      0.000000
    190 O2    s      -0.000095      0.000074      0.000435      0.000000
    191 O2    s      -0.000330      0.000248      0.001562      0.000000
    192 O2    s       0.000324     -0.000793     -0.001390      0.000000
    193 O2    s      -0.000601      0.000247      0.001175      0.000000
    194 O2    s       0.000959     -0.000414     -0.003772      0.000000
    195 O2    s       0.000446     -0.000487     -0.001020      0.000000
    196 O2    s       0.000412     -0.000440      0.001107      0.000000
    197 O2    s      -0.000606      0.000358     -0.001189      0.000000
    198 O2    s      -0.000527      0.000355      0.001105      0.000000
    199 O3    s      -0.000246      0.000178      0.009313      0.000000
    200 O2    s      -0.000791      0.000632     -0.002398      0.000000
    201 O2    s      -0.000233      0.000137      0.000628      0.000000
    202 O2    s      -0.000087      0.000368      0.000419      0.000000
    203 O2    s       0.000421     -0.000710     -0.001293      0.000000
    204 O2    s       0.000219     -0.000382     -0.000219      0.000000
    205 O2    s       0.000162     -0.000459     -0.001186      0.000000
    206 O2    s      -0.000328      0.000166      0.000217      0.000000
    207 O2    s      -0.000320      0.000499     -0.003739      0.000000
    208 O2    s      -0.000916      0.000973      0.001803      0.000000
    209 O2    s      -0.000738      0.000692      0.000968      0.000000
    210 O2    s       0.000444     -0.000661      0.000489      0.000000
    211 O2    s      -0.000670      0.000295      0.001985      0.000000
    212 O3    s      -0.000400      0.000528     -0.001436      0.000000
    213 O2    s       0.000231     -0.000239     -0.004525      0.000000
    214 O2    s       0.000245     -0.000447      0.001112      0.000000
    215 O2    s       0.000485     -0.000504      0.001074      0.000000
    216 O2    s      -0.000188      0.000055     -0.001719      0.000000
    217 O2    s       0.000455     -0.001113      0.000444      0.000000
    218 O2    s       0.000677     -0.000565     -0.000454      0.000000
    219 O2    s      -0.000088     -0.000036      0.000624      0.000000
    220 O2    s      -0.000577      0.000668     -0.000354      0.000000
    221 O3    s      -0.000733      0.000101      0.001903      0.000000
    222 O2    s      -0.000201      0.000030     -0.000940      0.000000
    223 O2    s       0.000212     -0.000179      0.000577      0.000000
    224 O2    s      -0.000962      0.000655      0.001915      0.000000
    225 O2    s      -0.000928      0.001577     -0.003986      0.000000
    226 O2    s      -0.000985      0.001119      0.001432      0.000000
    227 O2    s      -0.000079     -0.000200      0.000889      0.000000
    228 O3    s      -0.000172      0.000137     -0.000273      0.000000
    229 O2    s      -0.000850      0.000707      0.000995      0.000000
    230 O1    s      -0.000788     -0.001156      0.002074      0.000000
    231 O2    s       0.000861     -0.000767     -0.004286      0.000000
    232 O2    s       0.000318     -0.000408      0.001992      0.000000
    233 O2    s      -0.000067      0.000185      0.000215      0.000000
    234 O2    s      -0.001269      0.000770      0.000156      0.000000
    235 O2    s       0.000216     -0.001018      0.000643      0.000000
    236 O2    s      -0.000501      0.000879     -0.000939      0.000000
    237 O2    s      -0.000561      0.000124     -0.000688      0.000000
    238 O2    s       0.000655     -0.000107     -0.000122      0.000000
    239 O2    s       0.000249     -0.000587     -0.002228      0.000000
    240 O2    s      -0.000117     -0.000152     -0.000104      0.000000
    241 O3    s       0.000002      0.000105     -0.001355      0.000000
    242 O2    s      -0.000293      0.000202      0.001016      0.000000
    243 O2    s       0.000593     -0.000392     -0.003967      0.000000
    244 O2    s      -0.000683      0.000752      0.000905      0.000000
    245 O2    s       0.000290     -0.000424      0.001055      0.000000
    246 O2    s      -0.000051     -0.000021      0.000803      0.000000
    247 O2    s      -0.000588      0.000312      0.001756      0.000000
    248 O2    s       0.000523     -0.000445     -0.000001      0.000000
    249 O2    s      -0.000556      0.001017     -0.004526      0.000000
    250 O2    s       0.000574     -0.000664      0.000991      0.000000
    251 O2    s      -0.000495      0.000481      0.001487      0.000000
    252 O2    s      -0.000077     -0.000193     -0.000969      0.000000
    253 O2    s      -0.000135     -0.000079      0.000278      0.000000
    254 O2    s       0.000354     -0.000406      0.001501      0.000000
    255 O2    s      -0.001163      0.001570     -0.004209      0.000000
    256 O2    s      -0.000879      0.001198      0.001507      0.000000
    257 O2    s       0.000161     -0.000609      0.001097      0.000000
    258 O3    s      -0.000063      0.000246     -0.005853      0.000000
    259 O2    s      -0.001056      0.000638      0.001311      0.000000
    260 O3    s      -0.000069      0.000275      0.002428      0.000000
    261 O2    s       0.001090     -0.000993     -0.003820      0.000000
    262 O2    s       0.000669     -0.000397      0.002202      0.000000
    263 O2    s      -0.000141      0.000190      0.000347      0.000000
    264 O2    s      -0.000738      0.000574      0.000468      0.000000
    265 O2    s      -0.000872      0.000454      0.001901      0.000000
    266 O2    s      -0.000317      0.000108      0.001760      0.000000
    267 O2    s      -0.000771      0.000883     -0.004755      0.000000
    268 O2    s      -0.000263      0.000330      0.001295      0.000000
    269 O2    s       0.000194     -0.000550      0.000896      0.000000
    270 O2    s       0.000502     -0.000635     -0.001253      0.000000
    271 O2    s      -0.000855      0.000634      0.000882      0.000000
    272 O2    s      -0.000232     -0.000036     -0.000556      0.000000
    273 O2    s       0.001109     -0.000996     -0.004345      0.000000
    274 O2    s      -0.000046     -0.000161      0.001225      0.000000
    275 O2    s      -0.000905      0.000760      0.001587      0.000000
    276 O2    s      -0.000498      0.000259      0.000011      0.000000
    277 O2    s      -0.000219     -0.000271      0.000680      0.000000
    278 O3    s      -0.000095      0.000133      0.003996      0.000000
    279 O2    s       0.000798     -0.000571      0.000232      0.000000
    280 O2    s       0.000424     -0.000513      0.000228      0.000000
    281 O2    s       0.001018     -0.001100     -0.001235      0.000000
    282 O2    s      -0.000995      0.000835      0.000833      0.000000
    283 O2    s      -0.000087     -0.000075     -0.000919      0.000000
    284 O2    s       0.001743     -0.001669      0.000693      0.000000
    285 O2    s      -0.000032      0.000270      0.000837      0.000000
    286 O3    s      -0.000315      0.000005      0.000672      0.000000
    287 O2    s      -0.001262      0.001270     -0.000601      0.000000
    288 O2    s       0.000282     -0.000730     -0.000419      0.000000
    289 O1    s      -0.000923     -0.000660      0.009889      0.000000
    290 O2    s      -0.000948      0.000722      0.001496      0.000000
    291 O2    s       0.000453     -0.000572     -0.004527      0.000000
    292 O2    s       0.000064      0.000112      0.000489      0.000000
    293 O2    s       0.001090     -0.001533      0.001415      0.000000
    294 O2    s      -0.000017      0.000008     -0.000741      0.000000
    295 O2    s       0.000237     -0.000532      0.001406      0.000000
    296 O2    s       0.000874     -0.000598      0.000364      0.000000
    297 O2    s      -0.000602      0.000797     -0.004473      0.000000
    298 O2    s       0.000457     -0.000921      0.000594      0.000000
    299 O2    s      -0.001577      0.001459      0.002297      0.000000
    300 O3    s      -0.000209      0.000094     -0.005996      0.000000
    301 O2    s      -0.000080      0.000303     -0.000563      0.000000
    302 O2    s       0.000693     -0.000839      0.000161      0.000000
    303 O3    s      -0.000706      0.000445      0.004215      0.000000
    304 O2    s      -0.001350      0.000860     -0.000530      0.000000
    305 O2    s      -0.000096      0.000389     -0.000585      0.000000
    306 O2    s       0.000577     -0.000694     -0.000265      0.000000
    307 F     s      -0.000206      0.000006      0.000439      0.000000
    308 F     s      -0.000055      0.000089     -0.000286      0.000000
    309 F     s      -0.000154      0.000076     -0.000885      0.000000
    310 F     s      -0.000218      0.000294     -0.000080      0.000000
    311 F     s       0.000068      0.000099     -0.000139      0.000000
    312 F     s      -0.000218      0.000058     -0.000093      0.000000
--------------------------------------------------------------------------------
  Maximum abs         0.001743      0.001669      0.009889      0.000000
--------------------------------------------------------------------------------


  Time to end of optimisation =     465.3900 seconds


  Peak dynamic memory used =      19.13 MB 


  Timing analysis for GULP :

--------------------------------------------------------------------------------
  Task / Subroutine                                          Time (Seconds)
--------------------------------------------------------------------------------
  Calculation of reciprocal space energy and derivatives          8.4677
  Calculation of real space energy and derivatives              246.0807
  Calculation of three-body energy and derivatives               28.8545
  Global summation overhead                                       0.0002
--------------------------------------------------------------------------------
  Total CPU time                                                465.3901
--------------------------------------------------------------------------------


  Dump file written as out.res                                                 
  CIF file written as out.cif                                                 


  Job Finished at 21:50.55  6th December   2016                               

