********************************************************************************
*                       GENERAL UTILITY LATTICE PROGRAM                        *
*                                 Julian Gale                                  *
*                      Nanochemistry Research Institute                        *
*                           Department of Chemistry                            *
*                    Curtin University, Western Australia                      *
********************************************************************************
* Version = 4.2.0 * Last modified =  20th January 2014                         *
********************************************************************************
*  optimise     - perform optimisation run                                     *
*  conp         - constant pressure calculation                                *
*  qok          - running with non charge neutral cell is OK                   *
*  rfo          - optimisation step to be determined by RFO method             *
********************************************************************************

  Job Started  at 01:48.00  7th December   2016                               

  Number of CPUs =     1


  Total number of configurations input =   1

********************************************************************************
*  Input for Configuration =   1                                               *
********************************************************************************

  Formula = Si56Ge4O120F6                                               

  Number of irreducible atoms/shells =     312


  Total number atoms/shells =     312

  Dimensionality = 3               :  Bulk   


  Charge on solid   =  -6.000000 =>neutralising background added


  Cartesian lattice vectors (Angstroms) :

       11.970744    0.000000    0.000000
       -5.951446   10.380935    0.000000
        0.066445    0.012870   29.451015

  Cell parameters (Angstroms/Degrees):

  a =      11.9707    alpha =  90.0426
  b =      11.9659    beta  =  89.8707
  c =      29.4511    gamma = 119.8259

  Initial cell volume =        3659.804576 Angs**3

  Temperature of configuration =  0.000     K 

  Pressure of configuration =         0.000 GPa 

  Fractional coordinates of asymmetric unit :

--------------------------------------------------------------------------------
   No.  Atomic       x           y          z         Charge      Occupancy
        Label      (Frac)      (Frac)     (Frac)        (e)         (Frac)  
--------------------------------------------------------------------------------
      1 Si    c    0.699600    0.375700    0.033890     4.00000    1.000000    
      2 Si    c    0.621662 *  0.323951 *  0.365081 *   4.00000    1.000000    
      3 Si    c    0.674934 *  0.294917 *  0.695376 *   4.00000    1.000000    
      4 Si    c    0.295806 *  0.619974 *  0.529995 *   4.00000    1.000000    
      5 Si    c    0.380654 *  0.681932 *  0.863297 *   4.00000    1.000000    
      6 Si    c    0.329783 *  0.709198 *  0.197052 *   4.00000    1.000000    
      7 Si    c    0.380941 *  0.703444 *  0.297803 *   4.00000    1.000000    
      8 Si    c    0.319167 *  0.630815 *  0.966212 *   4.00000    1.000000    
      9 Si    c    0.295601 *  0.674561 *  0.630736 *   4.00000    1.000000    
     10 Si    c    0.619701 *  0.294849 *  0.795974 *   4.00000    1.000000    
     11 Si    c    0.674638 *  0.379593 *  0.465575 *   4.00000    1.000000    
     12 Si    c    0.708513 *  0.329039 *  0.135122 *   4.00000    1.000000    
     13 Ge    c    0.536234 *  0.423952 *  0.967220 *   4.00000    1.000000    
     14 Si    c    0.584370 *  0.112640 *  0.301044 *   4.00000    1.000000    
     15 Si    c    0.886364 *  0.469628 *  0.631461 *   4.00000    1.000000    
     16 Si    c    0.468550 *  0.582560 *  0.464810 *   4.00000    1.000000    
     17 Si    c    0.416776 *  0.887450 *  0.796874 *   4.00000    1.000000    
     18 Si    c    0.118545 *  0.540482 *  0.131608 *   4.00000    1.000000    
     19 Si    c    0.417635 *  0.530339 *  0.362984 *   4.00000    1.000000    
     20 Si    c    0.106447 *  0.587254 *  0.030336 *   4.00000    1.000000    
     21 Si    c    0.468640 *  0.884638 *  0.695343 *   4.00000    1.000000    
     22 Si    c    0.594944 *  0.470460 *  0.864179 *   4.00000    1.000000    
     23 Si    c    0.885450 *  0.416918 *  0.529811 *   4.00000    1.000000    
     24 Si    c    0.534935 *  0.117731 *  0.199464 *   4.00000    1.000000    
     25 Si    c    0.307468 *  0.401165 *  0.847737 *   4.00000    1.000000    
     26 Si    c    0.608454 *  0.910152 *  0.183685 *   4.00000    1.000000    
     27 Si    c    0.094339 *  0.697023 *  0.515706 *   4.00000    1.000000    
     28 Si    c    0.698775 *  0.601632 *  0.349692 *   4.00000    1.000000    
     29 Si    c    0.397502 *  0.094138 *  0.680773 *   4.00000    1.000000    
     30 Si    c    0.904939 *  0.304138 *  0.018243 *   4.00000    1.000000    
     31 Si    c    0.396539 *  0.302201 *  0.479719 *   4.00000    1.000000    
     32 Si    c    0.906982 *  0.608252 *  0.147184 *   4.00000    1.000000    
     33 Si    c    0.697360 *  0.093879 *  0.811282 *   4.00000    1.000000    
     34 Ge    c    0.598128 *  0.701113 *  0.983439 *   4.00000    1.000000    
     35 Si    c    0.094595 *  0.397298 *  0.645540 *   4.00000    1.000000    
     36 Si    c    0.303973 *  0.904320 *  0.314126 *   4.00000    1.000000    
     37 Ge    c    0.249137 *  0.341667 *  0.950641 *   4.00000    1.000000    
     38 Si    c    0.661996 *  0.911891 *  0.284584 *   4.00000    1.000000    
     39 Si    c    0.087139 *  0.747630 *  0.616460 *   4.00000    1.000000    
     40 Si    c    0.747542 *  0.660399 *  0.450448 *   4.00000    1.000000    
     41 Si    c    0.339212 *  0.088395 *  0.781382 *   4.00000    1.000000    
     42 Si    c    0.919657 *  0.260110 *  0.118947 *   4.00000    1.000000    
     43 Si    c    0.340323 *  0.251663 *  0.378912 *   4.00000    1.000000    
     44 Si    c    0.901968 *  0.660220 *  0.046321 *   4.00000    1.000000    
     45 Si    c    0.747071 *  0.085548 *  0.710417 *   4.00000    1.000000    
     46 Ge    c    0.669374 *  0.753070 *  0.881093 *   4.00000    1.000000    
     47 Si    c    0.086829 *  0.339403 *  0.544848 *   4.00000    1.000000    
     48 Si    c    0.256394 *  0.916974 *  0.213492 *   4.00000    1.000000    
     49 Si    c    0.965082 *  0.119764 *  0.966122 *   4.00000    1.000000    
     50 Si    c    0.880002 *  0.849913 *  0.299805 *   4.00000    1.000000    
     51 Si    c    0.149483 *  0.027699 *  0.631197 *   4.00000    1.000000    
     52 Si    c    0.027190 *  0.878036 *  0.465368 *   4.00000    1.000000    
     53 Si    c    0.126698 *  0.156898 *  0.796962 *   4.00000    1.000000    
     54 Si    c    0.859524 *  0.981882 *  0.134165 *   4.00000    1.000000    
     55 Si    c    0.123011 *  0.971748 *  0.364615 *   4.00000    1.000000    
     56 Si    c    0.843378 *  0.883159 *  0.033897 *   4.00000    1.000000    
     57 Si    c    0.027555 *  0.149849 *  0.696452 *   4.00000    1.000000    
     58 Si    c    0.883585 *  0.035307 *  0.863060 *   4.00000    1.000000    
     59 Si    c    0.148615 *  0.121347 *  0.530338 *   4.00000    1.000000    
     60 Si    c    0.976983 *  0.855893 *  0.198893 *   4.00000    1.000000    
     61 O2    c    0.920619 *  0.997358 *  0.998066 *   0.87073    1.000000    
     62 O2    c    0.000387 *  0.929378 *  0.332731 *   0.87073    1.000000    
     63 O2    c    0.072010 *  0.069942 *  0.664975 *   0.87073    1.000000    
     64 O2    c    0.068577 *  0.998800 *  0.498352 *   0.87073    1.000000    
     65 O2    c    0.012998 *  0.091892 *  0.833256 *   0.87073    1.000000    
     66 O2    c    0.936868 *  0.939493 *  0.167712 *   0.87073    1.000000    
     67 O2    c    0.341978 *  0.579087 *  0.330035 *   0.87073    1.000000    
     68 O2    c    0.419150 *  0.758743 *  0.663200 *   0.87073    1.000000    
     69 O2    c    0.226145 *  0.666078 *  0.995608 *   0.87073    1.000000    
     70 O2    c    0.661403 *  0.418288 *  0.828250 *   0.87073    1.000000    
     71 O2    c    0.586350 *  0.245391 *  0.168255 *   0.87073    1.000000    
     72 O2    c    0.759319 *  0.340598 *  0.498036 *   0.87073    1.000000    
     73 O3    c    0.579527 *  0.332026 *  0.001878 *   1.33043    1.000000    
     74 O2    c    0.759777 *  0.419197 *  0.663427 *   0.87073    1.000000    
     75 O2    c    0.660791 *  0.237742 *  0.333484 *   0.87073    1.000000    
     76 O2    c    0.418579 *  0.658832 *  0.497133 *   0.87073    1.000000    
     77 O2    c    0.245911 *  0.589678 *  0.163026 *   0.87073    1.000000    
     78 O2    c    0.339577 *  0.763274 *  0.829940 *   0.87073    1.000000    
     79 O3    c    0.116518 *  0.205619 *  0.971675 *   1.33043    1.000000    
     80 O2    c    0.787707 *  0.911757 *  0.305028 *   0.87073    1.000000    
     81 O2    c    0.086215 *  0.873625 *  0.636503 *   0.87073    1.000000    
     82 O2    c    0.873063 *  0.787313 *  0.470351 *   0.87073    1.000000    
     83 O2    c    0.212009 *  0.086924 *  0.801456 *   0.87073    1.000000    
     84 O2    c    0.921976 *  0.135858 *  0.139986 *   0.87073    1.000000    
     85 O2    c    0.214409 *  0.125628 *  0.358863 *   0.87073    1.000000    
     86 O2    c    0.896031 *  0.782473 *  0.025859 *   0.87073    1.000000    
     87 O2    c    0.873537 *  0.085330 *  0.690415 *   0.87073    1.000000    
     88 O3    c    0.802152 *  0.884468 *  0.855398 *   1.33043    1.000000    
     89 O2    c    0.085686 *  0.212613 *  0.524685 *   0.87073    1.000000    
     90 O2    c    0.130932 *  0.918423 *  0.193549 *   0.87073    1.000000    
     91 O2    c    0.935969 *  0.865002 *  0.249700 *   0.87073    1.000000    
     92 O2    c    0.134747 *  0.069013 *  0.581092 *   0.87073    1.000000    
     93 O2    c    0.925422 *  0.072257 *  0.914826 *   0.87073    1.000000    
     94 O2    c    0.065093 *  0.138973 *  0.747669 *   0.87073    1.000000    
     95 O2    c    0.879282 *  0.944832 *  0.083918 *   0.87073    1.000000    
     96 O2    c    0.069960 *  0.933222 *  0.415256 *   0.87073    1.000000    
     97 O2    c    0.901528 *  0.207542 *  0.978969 *   0.87073    1.000000    
     98 O2    c    0.797998 *  0.698122 *  0.311513 *   0.87073    1.000000    
     99 O2    c    0.301312 *  0.095758 *  0.642313 *   0.87073    1.000000    
    100 O2    c    0.095975 *  0.795149 *  0.477361 *   0.87073    1.000000    
    101 O2    c    0.220040 *  0.309186 *  0.806431 *   0.87073    1.000000    
    102 O2    c    0.707045 *  0.911867 *  0.145325 *   0.87073    1.000000    
    103 O2    c    0.204641 *  0.901456 *  0.352531 *   0.87073    1.000000    
    104 O3    c    0.693637 *  0.812094 *  0.026132 *   1.33043    1.000000    
    105 O2    c    0.096336 *  0.300833 *  0.684003 *   0.87073    1.000000    
    106 O2    c    0.794801 *  0.097846 *  0.849989 *   0.87073    1.000000    
    107 O2    c    0.299855 *  0.203571 *  0.518080 *   0.87073    1.000000    
    108 O2    c    0.906743 *  0.705649 *  0.185541 *   0.87073    1.000000    
    109 O2    c    0.326591 *  0.648502 *  0.247060 *   0.87073    1.000000    
    110 O2    c    0.352941 *  0.675619 *  0.580378 *   0.87073    1.000000    
    111 O2    c    0.317991 *  0.670789 *  0.913169 *   0.87073    1.000000    
    112 O2    c    0.676058 *  0.351786 *  0.745694 *   0.87073    1.000000    
    113 O2    c    0.648829 *  0.326558 *  0.085510 *   0.87073    1.000000    
    114 O2    c    0.676954 *  0.323032 *  0.415498 *   0.87073    1.000000    
    115 O1    c    0.372468 *  0.320130 *  0.967092 *   1.73396    1.000000    
    116 O2    c    0.671499 *  0.043349 *  0.303815 *   0.87073    1.000000    
    117 O2    c    0.954902 *  0.625668 *  0.635027 *   0.87073    1.000000    
    118 O2    c    0.624445 *  0.670243 *  0.468352 *   0.87073    1.000000    
    119 O2    c    0.330033 *  0.956976 *  0.800436 *   0.87073    1.000000    
    120 O2    c    0.051564 *  0.384636 *  0.136008 *   0.87073    1.000000    
    121 O2    c    0.330579 *  0.374147 *  0.360383 *   0.87073    1.000000    
    122 O2    c    0.035650 *  0.672749 *  0.027822 *   0.87073    1.000000    
    123 O2    c    0.624810 *  0.952702 *  0.692566 *   0.87073    1.000000    
    124 O3    c    0.678166 *  0.624059 *  0.858687 *   1.33043    1.000000    
    125 O2    c    0.954516 *  0.329557 *  0.526687 *   0.87073    1.000000    
    126 O2    c    0.379051 *  0.049897 *  0.195840 *   0.87073    1.000000    
    127 O2    c    0.770048 *  0.301027 *  0.012613 *   0.87073    1.000000    
    128 O2    c    0.697662 *  0.466860 *  0.342501 *   0.87073    1.000000    
    129 O2    c    0.531744 *  0.227256 *  0.673205 *   0.87073    1.000000    
    130 O2    c    0.227639 *  0.695704 *  0.508109 *   0.87073    1.000000    
    131 O2    c    0.319226 *  0.540272 *  0.840572 *   0.87073    1.000000    
    132 O2    c    0.474040 *  0.777421 *  0.175373 *   0.87073    1.000000    
    133 O2    c    0.304505 *  0.770117 *  0.320644 *   0.87073    1.000000    
    134 O3    c    0.459703 *  0.714306 *  0.987127 *   1.33043    1.000000    
    135 O2    c    0.227891 *  0.531407 *  0.653182 *   0.87073    1.000000    
    136 O2    c    0.693259 *  0.225661 *  0.818602 *   0.87073    1.000000    
    137 O2    c    0.531275 *  0.304038 *  0.487875 *   0.87073    1.000000    
    138 O2    c    0.777474 *  0.472565 *  0.157169 *   0.87073    1.000000    
    139 O2    c    0.779428 *  0.532091 *  0.026744 *   0.87073    1.000000    
    140 O2    c    0.465989 *  0.250623 *  0.359650 *   0.87073    1.000000    
    141 O2    c    0.747351 *  0.211179 *  0.690496 *   0.87073    1.000000    
    142 O2    c    0.213147 *  0.464189 *  0.525260 *   0.87073    1.000000    
    143 O3    c    0.533672 *  0.755926 *  0.862801 *   1.33043    1.000000    
    144 O2    c    0.256277 *  0.791907 *  0.193112 *   0.87073    1.000000    
    145 O2    c    0.536559 *  0.784453 *  0.303300 *   0.87073    1.000000    
    146 O3    c    0.258987 *  0.478399 *  0.973695 *   1.33043    1.000000    
    147 O2    c    0.213723 *  0.748955 *  0.635940 *   0.87073    1.000000    
    148 O2    c    0.463508 *  0.215751 *  0.800674 *   0.87073    1.000000    
    149 O2    c    0.748636 *  0.535558 *  0.470610 *   0.87073    1.000000    
    150 O2    c    0.792770 *  0.257114 *  0.139068 *   0.87073    1.000000    
    151 O3    c    0.227271 *  0.333634 *  0.892429 *   1.33043    1.000000    
    152 O2    c    0.681109 *  0.912148 *  0.230254 *   0.87073    1.000000    
    153 O2    c    0.089197 *  0.766890 *  0.562145 *   0.87073    1.000000    
    154 O2    c    0.767705 *  0.676550 *  0.396133 *   0.87073    1.000000    
    155 O2    c    0.321818 *  0.089507 *  0.727047 *   0.87073    1.000000    
    156 O2    c    0.916654 *  0.237899 *  0.064684 *   0.87073    1.000000    
    157 O2    c    0.322716 *  0.232302 *  0.433283 *   0.87073    1.000000    
    158 O2    c    0.901470 *  0.677659 *  0.100800 *   0.87073    1.000000    
    159 O2    c    0.767008 *  0.089002 *  0.764708 *   0.87073    1.000000    
    160 O1    c    0.697218 *  0.781426 *  0.937406 *   1.73396    1.000000    
    161 O2    c    0.089504 *  0.322142 *  0.599202 *   0.87073    1.000000    
    162 O2    c    0.235699 *  0.912399 *  0.267845 *   0.87073    1.000000    
    163 O1    c    0.589186 *  0.560664 *  0.000250 *   1.73396    1.000000    
    164 O2    c    0.443030 *  0.028345 *  0.324032 *   0.87073    1.000000    
    165 O2    c    0.969339 *  0.411448 *  0.654812 *   0.87073    1.000000    
    166 O2    c    0.410074 *  0.441582 *  0.488251 *   0.87073    1.000000    
    167 O2    c    0.558419 *  0.967485 *  0.819791 *   0.87073    1.000000    
    168 O2    c    0.036157 *  0.599809 *  0.154716 *   0.87073    1.000000    
    169 O2    c    0.559427 *  0.587085 *  0.340466 *   0.87073    1.000000    
    170 O2    c    0.027980 *  0.444405 *  0.007870 *   0.87073    1.000000    
    171 O2    c    0.412107 *  0.968980 *  0.672019 *   0.87073    1.000000    
    172 O2    c    0.447050 *  0.413744 *  0.847423 *   0.87073    1.000000    
    173 O2    c    0.969594 *  0.557928 *  0.506759 *   0.87073    1.000000    
    174 O2    c    0.593101 *  0.035099 *  0.175754 *   0.87073    1.000000    
    175 O2    c    0.585636 *  0.167937 *  0.250593 *   0.87073    1.000000    
    176 O2    c    0.833128 *  0.417240 *  0.580741 *   0.87073    1.000000    
    177 O3    c    0.605918 *  0.425396 *  0.914269 *   1.33043    1.000000    
    178 O2    c    0.414989 *  0.832025 *  0.746271 *   0.87073    1.000000    
    179 O2    c    0.168016 *  0.591337 *  0.080144 *   0.87073    1.000000    
    180 O2    c    0.416667 *  0.583236 *  0.413857 *   0.87073    1.000000    
    181 F     c    0.455805 *  0.907184 *  0.249240 *   0.56000    1.000000    
    182 F     c    0.093837 *  0.546870 *  0.581149 *   0.56000    1.000000    
    183 F     c    0.484973 *  0.558474 *  0.925666 *   0.56000    1.000000    
    184 F     c    0.544655 *  0.092269 *  0.746384 *   0.56000    1.000000    
    185 F     c    0.909269 *  0.458717 *  0.082659 *   0.56000    1.000000    
    186 F     c    0.547852 *  0.452295 *  0.415107 *   0.56000    1.000000    
    187 O2    s    0.917220 *  0.998785 *  0.998359 *  -2.87073    1.000000    
    188 O2    s    0.000700 *  0.925252 *  0.332629 *  -2.87073    1.000000    
    189 O2    s    0.075660 *  0.074211 *  0.664743 *  -2.87073    1.000000    
    190 O2    s    0.072933 *  0.999066 *  0.498259 *  -2.87073    1.000000    
    191 O2    s    0.011764 *  0.093105 *  0.832382 *  -2.87073    1.000000    
    192 O2    s    0.932732 *  0.934822 *  0.167472 *  -2.87073    1.000000    
    193 O2    s    0.353735 *  0.586737 *  0.330131 *  -2.87073    1.000000    
    194 O2    s    0.411639 *  0.763143 *  0.663193 *  -2.87073    1.000000    
    195 O2    s    0.223573 *  0.654478 *  0.996093 *  -2.87073    1.000000    
    196 O2    s    0.650141 *  0.410549 *  0.828515 *  -2.87073    1.000000    
    197 O2    s    0.593578 *  0.240722 *  0.168085 *  -2.87073    1.000000    
    198 O2    s    0.763733 *  0.352534 *  0.497998 *  -2.87073    1.000000    
    199 O3    s    0.588994 *  0.343248 *  0.002736 *  -3.33043    1.000000    
    200 O2    s    0.764013 *  0.411498 *  0.663459 *  -2.87073    1.000000    
    201 O2    s    0.648860 *  0.233763 *  0.333418 *  -2.87073    1.000000    
    202 O2    s    0.410998 *  0.646986 *  0.497228 *  -2.87073    1.000000    
    203 O2    s    0.241560 *  0.596982 *  0.163329 *  -2.87073    1.000000    
    204 O2    s    0.351591 *  0.767512 *  0.830019 *  -2.87073    1.000000    
    205 O3    s    0.111532 *  0.207766 *  0.969409 *  -3.33043    1.000000    
    206 O2    s    0.784525 *  0.905173 *  0.302383 *  -2.87073    1.000000    
    207 O2    s    0.093025 *  0.876979 *  0.633899 *  -2.87073    1.000000    
    208 O2    s    0.876468 *  0.783869 *  0.467804 *  -2.87073    1.000000    
    209 O2    s    0.216096 *  0.094447 *  0.798942 *  -2.87073    1.000000    
    210 O2    s    0.915158 *  0.132417 *  0.137234 *  -2.87073    1.000000    
    211 O2    s    0.217744 *  0.122369 *  0.361514 *  -2.87073    1.000000    
    212 O2    s    0.891343 *  0.779718 *  0.028786 *  -2.87073    1.000000    
    213 O2    s    0.876784 *  0.092161 *  0.693086 *  -2.87073    1.000000    
    214 O3    s    0.800772 *  0.890355 *  0.858059 *  -3.33043    1.000000    
    215 O2    s    0.092491 *  0.216052 *  0.527348 *  -2.87073    1.000000    
    216 O2    s    0.127625 *  0.911647 *  0.196161 *  -2.87073    1.000000    
    217 O2    s    0.934230 *  0.862249 *  0.249660 *  -2.87073    1.000000    
    218 O2    s    0.137974 *  0.070207 *  0.581069 *  -2.87073    1.000000    
    219 O2    s    0.925145 *  0.073381 *  0.914705 *  -2.87073    1.000000    
    220 O2    s    0.067873 *  0.142213 *  0.747514 *  -2.87073    1.000000    
    221 O2    s    0.873167 *  0.942330 *  0.084171 *  -2.87073    1.000000    
    222 O2    s    0.071080 *  0.931292 *  0.415240 *  -2.87073    1.000000    
    223 O2    s    0.908511 *  0.208337 *  0.981675 *  -2.87073    1.000000    
    224 O2    s    0.796516 *  0.704298 *  0.314183 *  -2.87073    1.000000    
    225 O2    s    0.295072 *  0.088369 *  0.645080 *  -2.87073    1.000000    
    226 O2    s    0.088476 *  0.793859 *  0.480036 *  -2.87073    1.000000    
    227 O2    s    0.219290 *  0.302762 *  0.809626 *  -2.87073    1.000000    
    228 O2    s    0.712888 *  0.919000 *  0.148080 *  -2.87073    1.000000    
    229 O2    s    0.206071 *  0.909195 *  0.349915 *  -2.87073    1.000000    
    230 O3    s    0.702859 *  0.811949 *  0.024015 *  -3.33043    1.000000    
    231 O2    s    0.088808 *  0.294547 *  0.681407 *  -2.87073    1.000000    
    232 O2    s    0.793753 *  0.090994 *  0.847279 *  -2.87073    1.000000    
    233 O2    s    0.293601 *  0.204857 *  0.515484 *  -2.87073    1.000000    
    234 O2    s    0.914330 *  0.711806 *  0.183034 *  -2.87073    1.000000    
    235 O2    s    0.332429 *  0.660200 *  0.247162 *  -2.87073    1.000000    
    236 O2    s    0.341251 *  0.669840 *  0.580403 *  -2.87073    1.000000    
    237 O2    s    0.324566 *  0.667942 *  0.913267 *  -2.87073    1.000000    
    238 O2    s    0.670126 *  0.340041 *  0.745674 *  -2.87073    1.000000    
    239 O2    s    0.660212 *  0.331804 *  0.085503 *  -2.87073    1.000000    
    240 O2    s    0.671029 *  0.328972 *  0.415483 *  -2.87073    1.000000    
    241 O1    s    0.374705 *  0.329681 *  0.965734 *  -3.73396    1.000000    
    242 O2    s    0.661511 *  0.036723 *  0.301507 *  -2.87073    1.000000    
    243 O2    s    0.961647 *  0.622355 *  0.632720 *  -2.87073    1.000000    
    244 O2    s    0.621301 *  0.660217 *  0.466110 *  -2.87073    1.000000    
    245 O2    s    0.339979 *  0.963570 *  0.798060 *  -2.87073    1.000000    
    246 O2    s    0.044587 *  0.387534 *  0.133754 *  -2.87073    1.000000    
    247 O2    s    0.340523 *  0.377369 *  0.362596 *  -2.87073    1.000000    
    248 O2    s    0.029124 *  0.662549 *  0.030024 *  -2.87073    1.000000    
    249 O2    s    0.621575 *  0.959580 *  0.694723 *  -2.87073    1.000000    
    250 O3    s    0.669331 *  0.619417 *  0.861040 *  -3.33043    1.000000    
    251 O2    s    0.961289 *  0.339589 *  0.528924 *  -2.87073    1.000000    
    252 O2    s    0.382237 *  0.042975 *  0.198064 *  -2.87073    1.000000    
    253 O2    s    0.777744 *  0.308999 *  0.015455 *  -2.87073    1.000000    
    254 O2    s    0.689972 *  0.466368 *  0.345609 *  -2.87073    1.000000    
    255 O2    s    0.532325 *  0.220183 *  0.676315 *  -2.87073    1.000000    
    256 O2    s    0.220582 *  0.688032 *  0.511203 *  -2.87073    1.000000    
    257 O2    s    0.324379 *  0.540200 *  0.843705 *  -2.87073    1.000000    
    258 O2    s    0.473347 *  0.784310 *  0.178489 *  -2.87073    1.000000    
    259 O2    s    0.312271 *  0.777387 *  0.317587 *  -2.87073    1.000000    
    260 O3    s    0.456191 *  0.704861 *  0.984687 *  -3.33043    1.000000    
    261 O2    s    0.220835 *  0.532013 *  0.650044 *  -2.87073    1.000000    
    262 O2    s    0.686019 *  0.218783 *  0.815434 *  -2.87073    1.000000    
    263 O2    s    0.531841 *  0.311609 *  0.484698 *  -2.87073    1.000000    
    264 O2    s    0.784048 *  0.472107 *  0.153824 *  -2.87073    1.000000    
    265 O2    s    0.784762 *  0.530324 *  0.029480 *  -2.87073    1.000000    
    266 O2    s    0.468539 *  0.258456 *  0.362272 *  -2.87073    1.000000    
    267 O2    s    0.739670 *  0.206197 *  0.693133 *  -2.87073    1.000000    
    268 O2    s    0.207970 *  0.466916 *  0.527855 *  -2.87073    1.000000    
    269 O3    s    0.528853 *  0.747937 *  0.864355 *  -3.33043    1.000000    
    270 O2    s    0.264113 *  0.796963 *  0.195725 *  -2.87073    1.000000    
    271 O2    s    0.533906 *  0.789883 *  0.300732 *  -2.87073    1.000000    
    272 O3    s    0.264207 *  0.481922 *  0.971085 *  -3.33043    1.000000    
    273 O2    s    0.208478 *  0.740989 *  0.633329 *  -2.87073    1.000000    
    274 O2    s    0.466212 *  0.210107 *  0.798130 *  -2.87073    1.000000    
    275 O2    s    0.740751 *  0.532859 *  0.467946 *  -2.87073    1.000000    
    276 O2    s    0.797779 *  0.265061 *  0.136503 *  -2.87073    1.000000    
    277 O3    s    0.237153 *  0.341154 *  0.892527 *  -3.33043    1.000000    
    278 O2    s    0.671478 *  0.911910 *  0.231141 *  -2.87073    1.000000    
    279 O2    s    0.089510 *  0.757524 *  0.563060 *  -2.87073    1.000000    
    280 O2    s    0.758343 *  0.666993 *  0.397053 *  -2.87073    1.000000    
    281 O2    s    0.331558 *  0.089869 *  0.727989 *  -2.87073    1.000000    
    282 O2    s    0.915780 *  0.247087 *  0.065576 *  -2.87073    1.000000    
    283 O2    s    0.332329 *  0.241695 *  0.432410 *  -2.87073    1.000000    
    284 O2    s    0.902094 *  0.668511 *  0.099953 *  -2.87073    1.000000    
    285 O2    s    0.757600 *  0.089135 *  0.763808 *  -2.87073    1.000000    
    286 O1    s    0.687947 *  0.773346 *  0.936116 *  -3.73396    1.000000    
    287 O2    s    0.089755 *  0.331862 *  0.598329 *  -2.87073    1.000000    
    288 O2    s    0.245068 *  0.912046 *  0.266955 *  -2.87073    1.000000    
    289 O1    s    0.585708 *  0.561686 *  0.996484 *  -3.73396    1.000000    
    290 O2    s    0.442788 *  0.023608 *  0.320576 *  -2.87073    1.000000    
    291 O2    s    0.974343 *  0.416156 *  0.651384 *  -2.87073    1.000000    
    292 O2    s    0.414865 *  0.441234 *  0.484893 *  -2.87073    1.000000    
    293 O2    s    0.558483 *  0.972737 *  0.816496 *  -2.87073    1.000000    
    294 O2    s    0.030790 *  0.594355 *  0.151483 *  -2.87073    1.000000    
    295 O2    s    0.559624 *  0.582543 *  0.343824 *  -2.87073    1.000000    
    296 O2    s    0.022955 *  0.444261 *  0.011273 *  -2.87073    1.000000    
    297 O2    s    0.416630 *  0.973833 *  0.675410 *  -2.87073    1.000000    
    298 O2    s    0.446696 *  0.418262 *  0.849216 *  -2.87073    1.000000    
    299 O2    s    0.974424 *  0.558182 *  0.510141 *  -2.87073    1.000000    
    300 O2    s    0.588508 *  0.030072 *  0.179089 *  -2.87073    1.000000    
    301 O2    s    0.580186 *  0.156891 *  0.250522 *  -2.87073    1.000000    
    302 O2    s    0.844168 *  0.422700 *  0.580742 *  -2.87073    1.000000    
    303 O3    s    0.599784 *  0.429925 *  0.913166 *  -3.33043    1.000000    
    304 O2    s    0.420697 *  0.843181 *  0.746278 *  -2.87073    1.000000    
    305 O2    s    0.156727 *  0.585706 *  0.080357 *  -2.87073    1.000000    
    306 O2    s    0.422137 *  0.577718 *  0.413888 *  -2.87073    1.000000    
    307 F     s    0.455605 *  0.906796 *  0.249278 *  -1.56000    1.000000    
    308 F     s    0.094172 *  0.547038 *  0.581213 *  -1.56000    1.000000    
    309 F     s    0.488125 *  0.559300 *  0.927042 *  -1.56000    1.000000    
    310 F     s    0.544616 *  0.092497 *  0.746433 *  -1.56000    1.000000    
    311 F     s    0.909353 *  0.458760 *  0.082656 *  -1.56000    1.000000    
    312 F     s    0.548110 *  0.452078 *  0.415157 *  -1.56000    1.000000    
--------------------------------------------------------------------------------



********************************************************************************
*  General input information                                                   *
********************************************************************************

  Species output for all configurations : 

--------------------------------------------------------------------------------
  Species    Type    Atomic    Atomic    Charge       Radii (Angs)     Library
                     Number     Mass       (e)     Cova   Ionic  VDW   Symbol
--------------------------------------------------------------------------------
    Si       Core       14      28.09   4.000000   1.200  0.000  2.100          
    O1       Core        8      16.00   1.733957   0.730  0.000  1.360          
    O1       Shell       8       0.00  -3.733957   0.730  0.000  1.360          
    O2       Core        8      16.00   0.870733   0.730  0.000  1.360          
    O2       Shell       8       0.00  -2.870733   0.730  0.000  1.360          
    O3       Core        8      16.00   1.330431   0.730  0.000  1.360          
    O3       Shell       8       0.00  -3.330431   0.730  0.000  1.360          
    F        Core        9      19.00   0.560000   0.710  0.000  1.300          
    F        Shell       9       0.00  -1.560000   0.710  0.000  1.300          
    Ge       Core       32      72.61   4.000000   1.170  0.000  1.750          
--------------------------------------------------------------------------------


  Lattice summation method               =    Ewald          (3-D)
                                         =    Parry          (2-D)
                                         =    Saunders et al (1-D)
  Accuracy factor for lattice sums       =   12.000


  Time limit = Infinity

  Maximum range for interatomic potentials =        16.000000 Angstroms

  Taper potentials to zero over   1.0000 Angstroms using polynomial

  General interatomic potentials :

--------------------------------------------------------------------------------
Atom  Types   Potential         A         B         C         D     Cutoffs(Ang)
  1     2                                                            Min    Max 
--------------------------------------------------------------------------------
Si   c O1   s Buckingham    0.132E+04 0.318      10.1      0.00     0.000 16.000
Si   c O2   s Buckingham    0.132E+04 0.318      10.1      0.00     0.000 16.000
Si   c O3   s Buckingham    0.132E+04 0.318      10.1      0.00     0.000 16.000
Ge   c O1   s Buckingham    0.150E+04 0.326      16.8      0.00     0.000 16.000
Ge   c O2   s Buckingham    0.150E+04 0.326      16.8      0.00     0.000 16.000
Ge   c O3   s Buckingham    0.150E+04 0.326      16.8      0.00     0.000 16.000
O1   s O1   s Buckingham    0.228E+05 0.149      10.9      0.00     0.000 16.000
O1   s O2   s Buckingham    0.228E+05 0.149      10.9      0.00     0.000 16.000
O1   s O3   s Buckingham    0.228E+05 0.149      10.9      0.00     0.000 16.000
O2   s O2   s Buckingham    0.228E+05 0.149      10.9      0.00     0.000 16.000
O2   s O3   s Buckingham    0.228E+05 0.149      10.9      0.00     0.000 16.000
O3   s O3   s Buckingham    0.228E+05 0.149      10.9      0.00     0.000 16.000
Si   c F    s Buckingham     977.     0.282      0.00      0.00     0.000 16.000
Ge   c F    s Buckingham     681.     0.320      0.00      0.00     0.000 16.000
F    s F    s Buckingham     540.     0.262      0.00      0.00     0.000 16.000
O1   s F    s Buckingham    0.168E+04 0.268      0.00      0.00     0.000 16.000
O2   s F    s Buckingham    0.168E+04 0.268      0.00      0.00     0.000 16.000
O3   s F    s Buckingham    0.168E+04 0.268      0.00      0.00     0.000 16.000
O2   c O2   s Spring (c-s)   76.0      0.00      0.00      0.00     0.000  0.800
O3   c O3   s Spring (c-s)   128.      0.00      0.00      0.00     0.000  0.800
O1   c O1   s Spring (c-s)   180.      0.00      0.00      0.00     0.000  0.800
F    c F    s Spring (c-s)   33.5      0.00      0.00      0.00     0.000  0.800
--------------------------------------------------------------------------------

  General Three-body potentials :

  Harmonic form:

--------------------------------------------------------------------------------
Atom    Atom    Atom           Force Constants            Theta     Cutoffs  
  1       2       3     (eVrad**-2/eVrad**-3/eVrad**-4)   (deg)  1-2  1-3  2-3
--------------------------------------------------------------------------------
Si    c O1    s O1    s  1.261        0.0000    0.0000   109.470 0.00 0.00 0.00
                                                                 1.90 1.90 3.50
Si    c O1    s O2    s  1.261        0.0000    0.0000   109.470 0.00 0.00 0.00
                                                                 1.90 1.90 3.50
Si    c O2    s O2    s  1.261        0.0000    0.0000   109.470 0.00 0.00 0.00
                                                                 1.90 1.90 3.50
--------------------------------------------------------------------------------

********************************************************************************
*  Output for configuration   1                                                *
********************************************************************************


  Components of energy : 

--------------------------------------------------------------------------------
  Interatomic potentials     =        2059.81762168 eV
  Three-body potentials      =           0.43996101 eV
  Monopole - monopole (real) =       -6577.88837432 eV
  Monopole - monopole (recip)=       -3194.78387104 eV
  Monopole - monopole (total)=       -9772.67224536 eV
  Neutralising energy        =          -6.45826676 eV
--------------------------------------------------------------------------------
  Total lattice energy       =       -7718.87292943 eV
--------------------------------------------------------------------------------
  Total lattice energy       =         -744753.2439 kJ/(mole unit cells)
--------------------------------------------------------------------------------


  Number of variables =      939

  Maximum number of calculations  =          1000
  Maximum Hessian update interval =            10
  Maximum step size               =   0.010000000
  Maximum parameter tolerance     =   0.000010000
  Maximum function  tolerance     =   0.000010000
  Maximum gradient  tolerance     =   0.001000000
  Maximum gradient  component     =   0.010000000

  Symmetry not applied to optimisation

  Cell parameters to be optimised using strains

  RFO method to be used

  DFP hessian update to be used

  Dumpfile to be written after every cycle

  Start of bulk optimisation :

  Cycle:      0 Energy:     -7718.872929  Gnorm:      0.000249  CPU:    1.044
  ** Hessian has wrong structure
  ** Imaginary eigenvectors =   1
  Cycle:      1 Energy:     -7718.874804  Gnorm:      0.000920  CPU:    6.423
  ** Hessian has wrong structure
  ** Imaginary eigenvectors =   1
  Cycle:      2 Energy:     -7718.878215  Gnorm:      0.002211  CPU:   12.454
  ** Hessian has wrong structure
  ** Imaginary eigenvectors =   1
  Cycle:      3 Energy:     -7718.883804  Gnorm:      0.003528  CPU:   18.486
  ** Hessian has required structure
  Cycle:      4 Energy:     -7718.886929  Gnorm:      0.003507  CPU:   22.221
  ** Hessian has required structure
  Cycle:      5 Energy:     -7718.890026  Gnorm:      0.003559  CPU:   25.286
  ** Hessian has required structure
  Cycle:      6 Energy:     -7718.892401  Gnorm:      0.003468  CPU:   28.353
  ** Hessian has required structure
  Cycle:      7 Energy:     -7718.894323  Gnorm:      0.003336  CPU:   31.419
  ** Hessian has required structure
  Cycle:      8 Energy:     -7718.895958  Gnorm:      0.003197  CPU:   34.485
  ** Hessian has required structure
  Cycle:      9 Energy:     -7718.897376  Gnorm:      0.003054  CPU:   37.552
  ** Hessian has required structure
  Cycle:     10 Energy:     -7718.898618  Gnorm:      0.002915  CPU:   40.617
  ** Hessian has required structure
  Cycle:     11 Energy:     -7718.899712  Gnorm:      0.002779  CPU:   43.748
  ** Hessian has required structure
  Cycle:     12 Energy:     -7718.900681  Gnorm:      0.002648  CPU:   46.814
  ** Hessian has required structure
  Cycle:     13 Energy:     -7718.901542  Gnorm:      0.002521  CPU:   49.878
  ** Hessian has required structure
  Cycle:     14 Energy:     -7718.902302  Gnorm:      0.002400  CPU:   53.599
  ** Hessian has required structure
  Cycle:     15 Energy:     -7718.902986  Gnorm:      0.002291  CPU:   56.664
  ** Hessian has required structure
  Cycle:     16 Energy:     -7718.903597  Gnorm:      0.002184  CPU:   59.732
  ** Hessian has required structure
  Cycle:     17 Energy:     -7718.904143  Gnorm:      0.002082  CPU:   62.798
  ** Hessian has required structure
  Cycle:     18 Energy:     -7718.904631  Gnorm:      0.001984  CPU:   65.863
  ** Hessian has required structure
  Cycle:     19 Energy:     -7718.905069  Gnorm:      0.001889  CPU:   68.929
  ** Hessian has required structure
  Cycle:     20 Energy:     -7718.905461  Gnorm:      0.001799  CPU:   71.995
  ** Hessian has required structure
  Cycle:     21 Energy:     -7718.905813  Gnorm:      0.001712  CPU:   75.061
  ** Hessian has required structure
  Cycle:     22 Energy:     -7718.906129  Gnorm:      0.001630  CPU:   78.126
  ** Hessian has required structure
  Cycle:     23 Energy:     -7718.906413  Gnorm:      0.001551  CPU:   81.190
  ** Hessian has required structure
  Cycle:     24 Energy:     -7718.906667  Gnorm:      0.001474  CPU:   84.912
  ** Hessian has required structure
  Cycle:     25 Energy:     -7718.906897  Gnorm:      0.001403  CPU:   87.977
  ** Hessian has required structure
  Cycle:     26 Energy:     -7718.907103  Gnorm:      0.001335  CPU:   91.042
  ** Hessian has required structure
  Cycle:     27 Energy:     -7718.907288  Gnorm:      0.001270  CPU:   94.138
  ** Hessian has required structure
  Cycle:     28 Energy:     -7718.907454  Gnorm:      0.001208  CPU:   97.203
  ** Hessian has required structure
  Cycle:     29 Energy:     -7718.907604  Gnorm:      0.001149  CPU:  100.269
  ** Hessian has required structure
  Cycle:     30 Energy:     -7718.907739  Gnorm:      0.001093  CPU:  103.335
  ** Hessian has required structure
  Cycle:     31 Energy:     -7718.907861  Gnorm:      0.001039  CPU:  106.399
  ** Hessian has required structure
  Cycle:     32 Energy:     -7718.907970  Gnorm:      0.000988  CPU:  109.463
  ** Hessian has required structure
  Cycle:     33 Energy:     -7718.908068  Gnorm:      0.000940  CPU:  112.527
  ** Hessian has required structure
  Cycle:     34 Energy:     -7718.908157  Gnorm:      0.000893  CPU:  116.246
  ** Hessian has required structure
  Cycle:     35 Energy:     -7718.908237  Gnorm:      0.000849  CPU:  119.310
  ** Hessian has required structure
  Cycle:     36 Energy:     -7718.908309  Gnorm:      0.000807  CPU:  122.373
  ** Hessian has required structure
  Cycle:     37 Energy:     -7718.908373  Gnorm:      0.000767  CPU:  125.464
  ** Hessian has required structure
  Cycle:     38 Energy:     -7718.908432  Gnorm:      0.000730  CPU:  128.528
  ** Hessian has required structure
  Cycle:     39 Energy:     -7718.908484  Gnorm:      0.000694  CPU:  131.591
  ** Hessian has required structure
  Cycle:     40 Energy:     -7718.908513  Gnorm:      0.000673  CPU:  133.995
  ** Hessian has required structure
  Cycle:     41 Energy:     -7718.908536  Gnorm:      0.000656  CPU:  136.398
  ** Hessian has required structure
  Cycle:     42 Energy:     -7718.908556  Gnorm:      0.000641  CPU:  138.800
  ** Hessian has required structure
  Cycle:     43 Energy:     -7718.908574  Gnorm:      0.000627  CPU:  141.201
  ** Hessian has required structure
  Cycle:     44 Energy:     -7718.908597  Gnorm:      0.000608  CPU:  144.312
  ** Hessian has required structure
  Cycle:     45 Energy:     -7718.908616  Gnorm:      0.000593  CPU:  146.716
  ** Hessian has required structure
  Cycle:     46 Energy:     -7718.908632  Gnorm:      0.000579  CPU:  149.120
  ** Hessian has required structure
  Cycle:     47 Energy:     -7718.908646  Gnorm:      0.000567  CPU:  151.524
  ** Hessian has required structure
  Cycle:     48 Energy:     -7718.908660  Gnorm:      0.000555  CPU:  153.928
  ** Hessian has required structure
  Cycle:     49 Energy:     -7718.908672  Gnorm:      0.000543  CPU:  156.331
  ** Hessian has required structure
  Cycle:     50 Energy:     -7718.908684  Gnorm:      0.000532  CPU:  158.734
  ** Hessian has required structure
  Cycle:     51 Energy:     -7718.908696  Gnorm:      0.000521  CPU:  161.136
  ** Hessian has required structure
  Cycle:     52 Energy:     -7718.908707  Gnorm:      0.000510  CPU:  163.540
  ** Hessian has required structure
  Cycle:     53 Energy:     -7718.908718  Gnorm:      0.000500  CPU:  165.942
  ** Hessian has required structure
  Cycle:     54 Energy:     -7718.908732  Gnorm:      0.000485  CPU:  169.003
  ** Hessian has required structure
  Cycle:     55 Energy:     -7718.908744  Gnorm:      0.000473  CPU:  171.406
  ** Hessian has required structure
  Cycle:     56 Energy:     -7718.908754  Gnorm:      0.000462  CPU:  174.031
  ** Hessian has required structure
  Cycle:     57 Energy:     -7718.908763  Gnorm:      0.000452  CPU:  176.435
  ** Hessian has required structure
  Cycle:     58 Energy:     -7718.908772  Gnorm:      0.000442  CPU:  179.017
  ** Hessian has required structure
  Cycle:     59 Energy:     -7718.908780  Gnorm:      0.000433  CPU:  181.419
  ** Hessian has required structure
  Cycle:     60 Energy:     -7718.908788  Gnorm:      0.000424  CPU:  183.821
  ** Hessian has required structure
  Cycle:     61 Energy:     -7718.908795  Gnorm:      0.000416  CPU:  186.224
  ** Hessian has required structure
  Cycle:     62 Energy:     -7718.908802  Gnorm:      0.000407  CPU:  188.627
  ** Hessian has required structure
  Cycle:     63 Energy:     -7718.908809  Gnorm:      0.000399  CPU:  191.031
  ** Hessian has required structure
  Cycle:     64 Energy:     -7718.908818  Gnorm:      0.000387  CPU:  194.103
  ** Hessian has required structure
  Cycle:     65 Energy:     -7718.908825  Gnorm:      0.000377  CPU:  196.507
  ** Hessian has required structure
  Cycle:     66 Energy:     -7718.908832  Gnorm:      0.000368  CPU:  199.073
  ** Hessian has required structure
  Cycle:     67 Energy:     -7718.908838  Gnorm:      0.000360  CPU:  201.496
  ** Hessian has required structure
  Cycle:     68 Energy:     -7718.908843  Gnorm:      0.000353  CPU:  203.901
  ** Hessian has required structure
  Cycle:     69 Energy:     -7718.908848  Gnorm:      0.000345  CPU:  206.307
  ** Hessian has required structure
  Cycle:     70 Energy:     -7718.908853  Gnorm:      0.000338  CPU:  208.711
  ** Hessian has required structure
  Cycle:     71 Energy:     -7718.908858  Gnorm:      0.000331  CPU:  211.117
  ** Hessian has required structure
  Cycle:     72 Energy:     -7718.908862  Gnorm:      0.000325  CPU:  213.521
  ** Hessian has required structure
  Cycle:     73 Energy:     -7718.908866  Gnorm:      0.000318  CPU:  216.135
  ** Hessian has required structure
  Cycle:     74 Energy:     -7718.908872  Gnorm:      0.000308  CPU:  219.199
  ** Hessian has required structure
  Cycle:     75 Energy:     -7718.908877  Gnorm:      0.000301  CPU:  221.602
  ** Hessian has required structure
  Cycle:     76 Energy:     -7718.908881  Gnorm:      0.000294  CPU:  224.004
  ** Hessian has required structure
  Cycle:     77 Energy:     -7718.908885  Gnorm:      0.000287  CPU:  226.407
  ** Hessian has required structure
  Cycle:     78 Energy:     -7718.908888  Gnorm:      0.000281  CPU:  228.811
  ** Hessian has required structure
  Cycle:     79 Energy:     -7718.908891  Gnorm:      0.000275  CPU:  231.214
  ** Hessian has required structure
  Cycle:     80 Energy:     -7718.908894  Gnorm:      0.000270  CPU:  233.618
  ** Hessian has required structure
  Cycle:     81 Energy:     -7718.908897  Gnorm:      0.000264  CPU:  236.021
  ** Hessian has required structure
  Cycle:     82 Energy:     -7718.908900  Gnorm:      0.000259  CPU:  238.427
  ** Hessian has required structure
  Cycle:     83 Energy:     -7718.908903  Gnorm:      0.000253  CPU:  240.831
  ** Hessian has required structure
  Cycle:     84 Energy:     -7718.908906  Gnorm:      0.000246  CPU:  243.897
  ** Hessian has required structure
  Cycle:     85 Energy:     -7718.908909  Gnorm:      0.000240  CPU:  246.300
  ** Hessian has required structure
  Cycle:     86 Energy:     -7718.908912  Gnorm:      0.000234  CPU:  248.921
  ** Hessian has required structure
  Cycle:     87 Energy:     -7718.908914  Gnorm:      0.000229  CPU:  251.322
  ** Hessian has required structure
  Cycle:     88 Energy:     -7718.908916  Gnorm:      0.000224  CPU:  253.929
  ** Hessian has required structure
  Cycle:     89 Energy:     -7718.908918  Gnorm:      0.000220  CPU:  256.333
  ** Hessian has required structure
  Cycle:     90 Energy:     -7718.908920  Gnorm:      0.000215  CPU:  258.886
  ** Hessian has required structure
  Cycle:     91 Energy:     -7718.908922  Gnorm:      0.000211  CPU:  261.354
  ** Hessian has required structure
  Cycle:     92 Energy:     -7718.908924  Gnorm:      0.000206  CPU:  263.930
  ** Hessian has required structure
  Cycle:     93 Energy:     -7718.908926  Gnorm:      0.000202  CPU:  266.337
  ** Hessian has required structure
  Cycle:     94 Energy:     -7718.908928  Gnorm:      0.000196  CPU:  269.457
  ** Hessian has required structure
  Cycle:     95 Energy:     -7718.908930  Gnorm:      0.000191  CPU:  271.862
  ** Hessian has required structure
  Cycle:     96 Energy:     -7718.908932  Gnorm:      0.000187  CPU:  274.267
  ** Hessian has required structure
  Cycle:     97 Energy:     -7718.908933  Gnorm:      0.000183  CPU:  276.673
  ** Hessian has required structure
  Cycle:     98 Energy:     -7718.908934  Gnorm:      0.000179  CPU:  279.077
  ** Hessian has required structure
  Cycle:     99 Energy:     -7718.908936  Gnorm:      0.000175  CPU:  281.483
  ** Hessian has required structure
  Cycle:    100 Energy:     -7718.908937  Gnorm:      0.000171  CPU:  283.887
  ** Hessian has required structure
  Cycle:    101 Energy:     -7718.908938  Gnorm:      0.000168  CPU:  286.293
  ** Hessian has required structure
  Cycle:    102 Energy:     -7718.908939  Gnorm:      0.000164  CPU:  288.698
  ** Hessian has required structure
  Cycle:    103 Energy:     -7718.908940  Gnorm:      0.000161  CPU:  291.104
  ** Hessian has required structure
  Cycle:    104 Energy:     -7718.908942  Gnorm:      0.000156  CPU:  294.207
  ** Hessian has required structure
  Cycle:    105 Energy:     -7718.908943  Gnorm:      0.000152  CPU:  296.612
  ** Hessian has required structure
  Cycle:    106 Energy:     -7718.908944  Gnorm:      0.000149  CPU:  299.152
  ** Hessian has required structure
  Cycle:    107 Energy:     -7718.908945  Gnorm:      0.000146  CPU:  301.556
  ** Hessian has required structure
  Cycle:    108 Energy:     -7718.908946  Gnorm:      0.000142  CPU:  303.961
  ** Hessian has required structure
  Cycle:    109 Energy:     -7718.908947  Gnorm:      0.000139  CPU:  306.365
  ** Hessian has required structure
  Cycle:    110 Energy:     -7718.908948  Gnorm:      0.000137  CPU:  308.770
  ** Hessian has required structure
  Cycle:    111 Energy:     -7718.908948  Gnorm:      0.000134  CPU:  311.174
  ** Hessian has required structure
  Cycle:    112 Energy:     -7718.908949  Gnorm:      0.000131  CPU:  313.576
  ** Hessian has required structure
  Cycle:    113 Energy:     -7718.908950  Gnorm:      0.000128  CPU:  315.981
  ** Hessian has required structure
  Cycle:    114 Energy:     -7718.908951  Gnorm:      0.000125  CPU:  319.041
  ** Hessian has required structure
  Cycle:    115 Energy:     -7718.908951  Gnorm:      0.000121  CPU:  321.445
  ** Hessian has required structure
  Cycle:    116 Energy:     -7718.908952  Gnorm:      0.000119  CPU:  323.848
  ** Hessian has required structure
  Cycle:    117 Energy:     -7718.908953  Gnorm:      0.000116  CPU:  326.253
  ** Hessian has required structure
  Cycle:    118 Energy:     -7718.908953  Gnorm:      0.000114  CPU:  328.656
  ** Hessian has required structure
  Cycle:    119 Energy:     -7718.908954  Gnorm:      0.000111  CPU:  331.059
  ** Hessian has required structure
  Cycle:    120 Energy:     -7718.908954  Gnorm:      0.000109  CPU:  333.463
  ** Hessian has required structure
  Cycle:    121 Energy:     -7718.908955  Gnorm:      0.000107  CPU:  335.866
  ** Hessian has required structure
  Cycle:    122 Energy:     -7718.908955  Gnorm:      0.000104  CPU:  338.271
  ** Hessian has required structure
  Cycle:    123 Energy:     -7718.908956  Gnorm:      0.000102  CPU:  340.675
  ** Hessian has required structure
  Cycle:    124 Energy:     -7718.908956  Gnorm:      0.000099  CPU:  343.735
  ** Hessian has required structure
  Cycle:    125 Energy:     -7718.908957  Gnorm:      0.000097  CPU:  346.140
  ** Hessian has required structure
  Cycle:    126 Energy:     -7718.908957  Gnorm:      0.000095  CPU:  348.543
  ** Hessian has required structure
  Cycle:    127 Energy:     -7718.908957  Gnorm:      0.000092  CPU:  350.945
  ** Hessian has required structure
  Cycle:    128 Energy:     -7718.908958  Gnorm:      0.000091  CPU:  353.422
  ** Hessian has required structure
  Cycle:    129 Energy:     -7718.908958  Gnorm:      0.000089  CPU:  355.825
  ** Hessian has required structure
  Cycle:    130 Energy:     -7718.908958  Gnorm:      0.000087  CPU:  358.228
  ** Hessian has required structure
  Cycle:    131 Energy:     -7718.908959  Gnorm:      0.000085  CPU:  360.632
  ** Hessian has required structure
  Cycle:    132 Energy:     -7718.908959  Gnorm:      0.000083  CPU:  363.035
  ** Hessian has required structure
  Cycle:    133 Energy:     -7718.908959  Gnorm:      0.000082  CPU:  365.438
  ** Hessian has required structure
  Cycle:    134 Energy:     -7718.908960  Gnorm:      0.000079  CPU:  368.497
  ** Hessian has required structure
  Cycle:    135 Energy:     -7718.908960  Gnorm:      0.000077  CPU:  370.900
  ** Hessian has required structure
  Cycle:    136 Energy:     -7718.908960  Gnorm:      0.000075  CPU:  373.302
  ** Hessian has required structure
  Cycle:    137 Energy:     -7718.908961  Gnorm:      0.000074  CPU:  375.760
  ** Hessian has required structure
  Cycle:    138 Energy:     -7718.908961  Gnorm:      0.000072  CPU:  378.164
  ** Hessian has required structure
  Cycle:    139 Energy:     -7718.908961  Gnorm:      0.000071  CPU:  380.567
  ** Hessian has required structure
  Cycle:    140 Energy:     -7718.908961  Gnorm:      0.000069  CPU:  382.969
  ** Hessian has required structure
  Cycle:    141 Energy:     -7718.908961  Gnorm:      0.000068  CPU:  385.374
  ** Hessian has required structure
  Cycle:    142 Energy:     -7718.908962  Gnorm:      0.000066  CPU:  387.848
  ** Hessian has required structure
  Cycle:    143 Energy:     -7718.908962  Gnorm:      0.000065  CPU:  390.250
  ** Hessian has required structure
  Cycle:    144 Energy:     -7718.908962  Gnorm:      0.000063  CPU:  393.310
  ** Hessian has required structure
  Cycle:    145 Energy:     -7718.908962  Gnorm:      0.000061  CPU:  395.715
  ** Hessian has required structure
  Cycle:    146 Energy:     -7718.908962  Gnorm:      0.000060  CPU:  398.322
  ** Hessian has required structure
  Cycle:    147 Energy:     -7718.908962  Gnorm:      0.000059  CPU:  400.727
  ** Hessian has required structure
  Cycle:    148 Energy:     -7718.908963  Gnorm:      0.000058  CPU:  403.133
  ** Hessian has required structure
  Cycle:    149 Energy:     -7718.908963  Gnorm:      0.000056  CPU:  405.541
  ** Hessian has required structure
  Cycle:    150 Energy:     -7718.908963  Gnorm:      0.000055  CPU:  407.945
  ** Hessian has required structure
  Cycle:    151 Energy:     -7718.908963  Gnorm:      0.000054  CPU:  410.350
  ** Hessian has required structure
  Cycle:    152 Energy:     -7718.908963  Gnorm:      0.000053  CPU:  412.755
  ** Hessian has required structure
  Cycle:    153 Energy:     -7718.908963  Gnorm:      0.000052  CPU:  415.160
  ** Hessian has required structure
  Cycle:    154 Energy:     -7718.908963  Gnorm:      0.000050  CPU:  418.262
  ** Hessian has required structure
  Cycle:    155 Energy:     -7718.908963  Gnorm:      0.000049  CPU:  420.666
  ** Hessian has required structure
  Cycle:    156 Energy:     -7718.908964  Gnorm:      0.000048  CPU:  423.071
  ** Hessian has required structure
  Cycle:    157 Energy:     -7718.908964  Gnorm:      0.000047  CPU:  425.475
  ** Hessian has required structure
  Cycle:    158 Energy:     -7718.908964  Gnorm:      0.000046  CPU:  427.879
  ** Hessian has required structure
  Cycle:    159 Energy:     -7718.908964  Gnorm:      0.000045  CPU:  430.283
  ** Hessian has required structure
  Cycle:    160 Energy:     -7718.908964  Gnorm:      0.000044  CPU:  432.688
  ** Hessian has required structure
  Cycle:    161 Energy:     -7718.908964  Gnorm:      0.000043  CPU:  435.093
  ** Hessian has required structure
  Cycle:    162 Energy:     -7718.908964  Gnorm:      0.000042  CPU:  437.533
  ** Hessian has required structure
  Cycle:    163 Energy:     -7718.908964  Gnorm:      0.000041  CPU:  439.937
  ** Hessian has required structure
  Cycle:    164 Energy:     -7718.908964  Gnorm:      0.000040  CPU:  442.999
  ** Hessian has required structure
  Cycle:    165 Energy:     -7718.908964  Gnorm:      0.000039  CPU:  445.403
  ** Hessian has required structure
  Cycle:    166 Energy:     -7718.908964  Gnorm:      0.000038  CPU:  447.809
  ** Hessian has required structure
  Cycle:    167 Energy:     -7718.908964  Gnorm:      0.000037  CPU:  450.214
  ** Hessian has required structure
  Cycle:    168 Energy:     -7718.908965  Gnorm:      0.000037  CPU:  452.618
  ** Hessian has required structure
  Cycle:    169 Energy:     -7718.908965  Gnorm:      0.000036  CPU:  455.023
  ** Hessian has required structure
  Cycle:    170 Energy:     -7718.908965  Gnorm:      0.000035  CPU:  457.427
  ** Hessian has required structure
  Cycle:    171 Energy:     -7718.908965  Gnorm:      0.000034  CPU:  459.832
  ** Hessian has required structure
  Cycle:    172 Energy:     -7718.908965  Gnorm:      0.000034  CPU:  462.236
  ** Hessian has required structure
  Cycle:    173 Energy:     -7718.908965  Gnorm:      0.000033  CPU:  464.638
  ** Hessian has required structure
  Cycle:    174 Energy:     -7718.908965  Gnorm:      0.000032  CPU:  467.772
  ** Hessian has required structure
  Cycle:    175 Energy:     -7718.908965  Gnorm:      0.000031  CPU:  470.176
  ** Hessian has required structure
  Cycle:    176 Energy:     -7718.908965  Gnorm:      0.000030  CPU:  472.580
  ** Hessian has required structure
  Cycle:    177 Energy:     -7718.908965  Gnorm:      0.000030  CPU:  474.987
  ** Hessian has required structure
  Cycle:    178 Energy:     -7718.908965  Gnorm:      0.000029  CPU:  477.392
  ** Hessian has required structure
  Cycle:    179 Energy:     -7718.908965  Gnorm:      0.000029  CPU:  479.797
  ** Hessian has required structure
  Cycle:    180 Energy:     -7718.908965  Gnorm:      0.000028  CPU:  482.201
  ** Hessian has required structure
  Cycle:    181 Energy:     -7718.908965  Gnorm:      0.000027  CPU:  484.606
  ** Hessian has required structure


  **** Optimisation achieved ****


  Final energy =   -7718.90896511 eV
  Final Gnorm  =       0.00002680

  Components of energy : 

--------------------------------------------------------------------------------
  Interatomic potentials     =        2059.91495147 eV
  Three-body potentials      =           0.44338708 eV
  Monopole - monopole (real) =       -6576.69357623 eV
  Monopole - monopole (recip)=       -3196.11277904 eV
  Monopole - monopole (total)=       -9772.80635527 eV
  Neutralising energy        =          -6.46094839 eV
--------------------------------------------------------------------------------
  Total lattice energy       =       -7718.90896511 eV
--------------------------------------------------------------------------------
  Total lattice energy       =         -744756.7208 kJ/(mole unit cells)
--------------------------------------------------------------------------------

  Final fractional coordinates of atoms :

--------------------------------------------------------------------------------
   No.  Atomic        x           y          z          Radius
        Label       (Frac)      (Frac)     (Frac)       (Angs) 
--------------------------------------------------------------------------------
     1  Si    c     0.699600    0.375700    0.033890    0.000000
     2  Si    c     0.626256    0.335417    0.363973    0.000000
     3  Si    c     0.684124    0.315284    0.695246    0.000000
     4  Si    c     0.300061    0.635523    0.527607    0.000000
     5  Si    c     0.388414    0.700777    0.861374    0.000000
     6  Si    c     0.333131    0.719781    0.194446    0.000000
     7  Si    c     0.383514    0.712484    0.295239    0.000000
     8  Si    c     0.322129    0.648384    0.964055    0.000000
     9  Si    c     0.304223    0.693726    0.628466    0.000000
    10  Si    c     0.627989    0.313231    0.795924    0.000000
    11  Si    c     0.678936    0.394867    0.464585    0.000000
    12  Si    c     0.711648    0.335077    0.134619    0.000000
    13  Ge    c     0.544282    0.434906    0.969263    0.000000
    14  Si    c     0.588332    0.121720    0.300596    0.000000
    15  Si    c     0.894443    0.488789    0.631045    0.000000
    16  Si    c     0.471725    0.596892    0.462077    0.000000
    17  Si    c     0.425358    0.905352    0.794971    0.000000
    18  Si    c     0.121228    0.550198    0.128430    0.000000
    19  Si    c     0.421154    0.540642    0.360144    0.000000
    20  Si    c     0.103408    0.593652    0.026867    0.000000
    21  Si    c     0.478176    0.904992    0.693212    0.000000
    22  Si    c     0.603040    0.489291    0.864902    0.000000
    23  Si    c     0.889873    0.432949    0.529255    0.000000
    24  Si    c     0.538492    0.126374    0.199053    0.000000
    25  Si    c     0.314287    0.418919    0.847183    0.000000
    26  Si    c     0.612778    0.920140    0.181852    0.000000
    27  Si    c     0.098378    0.712577    0.514223    0.000000
    28  Si    c     0.702587    0.612026    0.347498    0.000000
    29  Si    c     0.406698    0.114060    0.679227    0.000000
    30  Si    c     0.904814    0.308164    0.016086    0.000000
    31  Si    c     0.400384    0.317418    0.477618    0.000000
    32  Si    c     0.908022    0.616343    0.144559    0.000000
    33  Si    c     0.706404    0.112843    0.810308    0.000000
    34  Ge    c     0.595941    0.712293    0.977520    0.000000
    35  Si    c     0.103360    0.417096    0.644117    0.000000
    36  Si    c     0.307308    0.913297    0.312687    0.000000
    37  Ge    c     0.253535    0.357122    0.949619    0.000000
    38  Si    c     0.665302    0.921033    0.283005    0.000000
    39  Si    c     0.095258    0.766319    0.615118    0.000000
    40  Si    c     0.750951    0.674574    0.448341    0.000000
    41  Si    c     0.347911    0.106148    0.779883    0.000000
    42  Si    c     0.923224    0.267848    0.116973    0.000000
    43  Si    c     0.344484    0.262841    0.376734    0.000000
    44  Si    c     0.895893    0.663456    0.043486    0.000000
    45  Si    c     0.756719    0.106401    0.709263    0.000000
    46  Ge    c     0.678160    0.774207    0.878611    0.000000
    47  Si    c     0.091310    0.355360    0.543369    0.000000
    48  Si    c     0.259370    0.926648    0.212018    0.000000
    49  Si    c     0.971300    0.128303    0.964527    0.000000
    50  Si    c     0.883150    0.859054    0.297569    0.000000
    51  Si    c     0.158198    0.046817    0.629385    0.000000
    52  Si    c     0.030871    0.892483    0.463485    0.000000
    53  Si    c     0.136413    0.175270    0.794893    0.000000
    54  Si    c     0.862422    0.989698    0.131185    0.000000
    55  Si    c     0.127050    0.982115    0.362623    0.000000
    56  Si    c     0.841952    0.889559    0.030126    0.000000
    57  Si    c     0.037158    0.170434    0.694492    0.000000
    58  Si    c     0.893037    0.052832    0.860530    0.000000
    59  Si    c     0.153110    0.137310    0.528497    0.000000
    60  Si    c     0.979828    0.865416    0.196493    0.000000
    61  O2    c     0.929711    0.005684    0.995838    0.000000
    62  O2    c     0.004759    0.938889    0.330272    0.000000
    63  O2    c     0.080388    0.090238    0.662529    0.000000
    64  O2    c     0.072608    0.014410    0.496266    0.000000
    65  O2    c     0.021601    0.110937    0.830540    0.000000
    66  O2    c     0.940506    0.947791    0.164595    0.000000
    67  O2    c     0.344840    0.587676    0.326868    0.000000
    68  O2    c     0.429205    0.779438    0.660529    0.000000
    69  O2    c     0.221523    0.675847    0.992147    0.000000
    70  O2    c     0.668312    0.434985    0.829255    0.000000
    71  O2    c     0.591268    0.254577    0.168438    0.000000
    72  O2    c     0.762532    0.356361    0.497690    0.000000
    73  O3    c     0.577043    0.334327    0.002283    0.000000
    74  O2    c     0.769421    0.439829    0.663644    0.000000
    75  O2    c     0.665253    0.247231    0.333240    0.000000
    76  O2    c     0.421371    0.673577    0.494134    0.000000
    77  O2    c     0.249640    0.601266    0.159539    0.000000
    78  O2    c     0.347129    0.780733    0.827419    0.000000
    79  O3    c     0.122406    0.221007    0.971160    0.000000
    80  O2    c     0.790647    0.920320    0.303560    0.000000
    81  O2    c     0.095525    0.893062    0.635210    0.000000
    82  O2    c     0.876518    0.802490    0.468234    0.000000
    83  O2    c     0.220045    0.103880    0.799658    0.000000
    84  O2    c     0.927007    0.144252    0.137403    0.000000
    85  O2    c     0.218915    0.135742    0.356550    0.000000
    86  O2    c     0.890126    0.784625    0.022773    0.000000
    87  O2    c     0.882925    0.106470    0.688920    0.000000
    88  O3    c     0.809567    0.902450    0.851360    0.000000
    89  O2    c     0.089033    0.227548    0.523410    0.000000
    90  O2    c     0.134143    0.928543    0.192064    0.000000
    91  O2    c     0.936922    0.874453    0.247097    0.000000
    92  O2    c     0.142075    0.085289    0.579053    0.000000
    93  O2    c     0.937596    0.084475    0.912437    0.000000
    94  O2    c     0.076146    0.158933    0.745397    0.000000
    95  O2    c     0.878219    0.950315    0.080821    0.000000
    96  O2    c     0.073901    0.945909    0.413276    0.000000
    97  O2    c     0.901578    0.210670    0.977131    0.000000
    98  O2    c     0.801773    0.707290    0.309201    0.000000
    99  O2    c     0.310394    0.115939    0.640712    0.000000
   100  O2    c     0.098968    0.809513    0.475864    0.000000
   101  O2    c     0.230885    0.327298    0.804925    0.000000
   102  O2    c     0.710619    0.921659    0.143376    0.000000
   103  O2    c     0.208160    0.910877    0.351101    0.000000
   104  O3    c     0.694213    0.824319    0.021167    0.000000
   105  O2    c     0.106291    0.321548    0.682488    0.000000
   106  O2    c     0.804213    0.116539    0.849050    0.000000
   107  O2    c     0.304009    0.220279    0.516067    0.000000
   108  O2    c     0.910258    0.714984    0.183049    0.000000
   109  O2    c     0.329073    0.658069    0.244222    0.000000
   110  O2    c     0.359467    0.692920    0.577858    0.000000
   111  O2    c     0.324455    0.690952    0.910987    0.000000
   112  O2    c     0.684887    0.371661    0.745869    0.000000
   113  O2    c     0.647517    0.326315    0.085091    0.000000
   114  O2    c     0.681686    0.336980    0.414634    0.000000
   115  O1    c     0.379267    0.338459    0.964865    0.000000
   116  O2    c     0.675246    0.052312    0.302921    0.000000
   117  O2    c     0.963547    0.645032    0.634184    0.000000
   118  O2    c     0.627815    0.684943    0.465791    0.000000
   119  O2    c     0.338699    0.974896    0.798546    0.000000
   120  O2    c     0.055253    0.394667    0.133104    0.000000
   121  O2    c     0.334320    0.384286    0.357721    0.000000
   122  O2    c     0.028915    0.675103    0.024762    0.000000
   123  O2    c     0.634481    0.973692    0.690761    0.000000
   124  O3    c     0.685429    0.641984    0.858058    0.000000
   125  O2    c     0.958257    0.345124    0.525695    0.000000
   126  O2    c     0.382641    0.059527    0.194872    0.000000
   127  O2    c     0.767610    0.301369    0.010616    0.000000
   128  O2    c     0.701979    0.477278    0.340889    0.000000
   129  O2    c     0.541115    0.247717    0.672486    0.000000
   130  O2    c     0.231121    0.710574    0.506061    0.000000
   131  O2    c     0.326756    0.557705    0.839271    0.000000
   132  O2    c     0.477571    0.787803    0.173178    0.000000
   133  O2    c     0.307034    0.778681    0.318502    0.000000
   134  O3    c     0.460678    0.731831    0.986470    0.000000
   135  O2    c     0.237368    0.551414    0.651225    0.000000
   136  O2    c     0.701988    0.244303    0.818217    0.000000
   137  O2    c     0.535184    0.319993    0.486414    0.000000
   138  O2    c     0.780180    0.480310    0.155549    0.000000
   139  O2    c     0.772619    0.532116    0.024972    0.000000
   140  O2    c     0.470469    0.261489    0.358041    0.000000
   141  O2    c     0.757265    0.232435    0.690034    0.000000
   142  O2    c     0.216945    0.479485    0.523214    0.000000
   143  O3    c     0.541477    0.775638    0.859692    0.000000
   144  O2    c     0.259016    0.801799    0.191018    0.000000
   145  O2    c     0.539264    0.793513    0.301113    0.000000
   146  O3    c     0.265044    0.495747    0.971347    0.000000
   147  O2    c     0.222684    0.768258    0.634057    0.000000
   148  O2    c     0.471572    0.233801    0.799957    0.000000
   149  O2    c     0.752486    0.551003    0.469161    0.000000
   150  O2    c     0.797595    0.265077    0.138310    0.000000
   151  O3    c     0.231605    0.351322    0.891250    0.000000
   152  O2    c     0.684716    0.921802    0.228639    0.000000
   153  O2    c     0.095237    0.783886    0.560754    0.000000
   154  O2    c     0.771435    0.688760    0.393984    0.000000
   155  O2    c     0.330624    0.108161    0.725510    0.000000
   156  O2    c     0.918368    0.244487    0.062669    0.000000
   157  O2    c     0.326549    0.245434    0.431153    0.000000
   158  O2    c     0.898107    0.682100    0.098116    0.000000
   159  O2    c     0.776412    0.108947    0.763631    0.000000
   160  O1    c     0.705833    0.805808    0.934798    0.000000
   161  O2    c     0.096106    0.340200    0.597756    0.000000
   162  O2    c     0.238955    0.921888    0.266424    0.000000
   163  O1    c     0.592136    0.575519    0.998355    0.000000
   164  O2    c     0.446835    0.036824    0.323286    0.000000
   165  O2    c     0.978717    0.431777    0.653968    0.000000
   166  O2    c     0.413318    0.456706    0.485718    0.000000
   167  O2    c     0.567137    0.986339    0.818189    0.000000
   168  O2    c     0.037897    0.608782    0.151070    0.000000
   169  O2    c     0.563030    0.596753    0.337814    0.000000
   170  O2    c     0.025914    0.449283    0.005016    0.000000
   171  O2    c     0.421804    0.989367    0.670042    0.000000
   172  O2    c     0.453916    0.431996    0.849596    0.000000
   173  O2    c     0.972893    0.573138    0.505825    0.000000
   174  O2    c     0.597224    0.044966    0.174707    0.000000
   175  O2    c     0.589315    0.176931    0.250297    0.000000
   176  O2    c     0.839228    0.434533    0.580400    0.000000
   177  O3    c     0.614663    0.448358    0.915470    0.000000
   178  O2    c     0.424334    0.851626    0.743951    0.000000
   179  O2    c     0.166077    0.598621    0.076626    0.000000
   180  O2    c     0.420024    0.595508    0.410856    0.000000
   181  F     c     0.458657    0.916764    0.247631    0.000000
   182  F     c     0.100191    0.564224    0.579639    0.000000
   183  F     c     0.495559    0.594740    0.924722    0.000000
   184  F     c     0.554114    0.112637    0.745119    0.000000
   185  F     c     0.902517    0.460269    0.079434    0.000000
   186  F     c     0.551593    0.465214    0.412963    0.000000
   187  O2    s     0.925206    0.007352    0.995908    0.000000
   188  O2    s     0.004882    0.934795    0.330245    0.000000
   189  O2    s     0.084226    0.094408    0.662418    0.000000
   190  O2    s     0.076969    0.014575    0.496220    0.000000
   191  O2    s     0.020518    0.111891    0.829765    0.000000
   192  O2    s     0.936266    0.943147    0.164488    0.000000
   193  O2    s     0.356620    0.595558    0.327054    0.000000
   194  O2    s     0.421478    0.783619    0.660611    0.000000
   195  O2    s     0.219834    0.664668    0.992790    0.000000
   196  O2    s     0.657291    0.427617    0.829384    0.000000
   197  O2    s     0.598292    0.249566    0.168106    0.000000
   198  O2    s     0.767162    0.368287    0.497555    0.000000
   199  O3    s     0.586832    0.346031    0.002958    0.000000
   200  O2    s     0.773483    0.432015    0.663561    0.000000
   201  O2    s     0.653298    0.243393    0.333056    0.000000
   202  O2    s     0.414006    0.661774    0.494312    0.000000
   203  O2    s     0.244999    0.608197    0.159927    0.000000
   204  O2    s     0.359239    0.785295    0.827567    0.000000
   205  O3    s     0.117608    0.222612    0.968760    0.000000
   206  O2    s     0.787504    0.913860    0.300819    0.000000
   207  O2    s     0.102149    0.896295    0.632546    0.000000
   208  O2    s     0.879965    0.798877    0.465710    0.000000
   209  O2    s     0.224328    0.111651    0.797149    0.000000
   210  O2    s     0.919903    0.140930    0.134673    0.000000
   211  O2    s     0.222184    0.132629    0.359254    0.000000
   212  O2    s     0.885988    0.781987    0.025684    0.000000
   213  O2    s     0.886255    0.113236    0.691582    0.000000
   214  O3    s     0.808457    0.908440    0.854280    0.000000
   215  O2    s     0.096059    0.231192    0.525987    0.000000
   216  O2    s     0.130793    0.921651    0.194588    0.000000
   217  O2    s     0.935656    0.871676    0.247123    0.000000
   218  O2    s     0.145144    0.086785    0.579069    0.000000
   219  O2    s     0.936347    0.085781    0.912377    0.000000
   220  O2    s     0.078629    0.162086    0.745302    0.000000
   221  O2    s     0.872613    0.948414    0.081233    0.000000
   222  O2    s     0.075012    0.943924    0.413260    0.000000
   223  O2    s     0.909137    0.212287    0.979885    0.000000
   224  O2    s     0.800245    0.713575    0.311878    0.000000
   225  O2    s     0.304138    0.108443    0.643443    0.000000
   226  O2    s     0.091639    0.808350    0.478506    0.000000
   227  O2    s     0.229648    0.320881    0.808190    0.000000
   228  O2    s     0.716357    0.928604    0.146084    0.000000
   229  O2    s     0.209632    0.918636    0.348430    0.000000
   230  O3    s     0.704267    0.824376    0.019372    0.000000
   231  O2    s     0.098620    0.315173    0.679858    0.000000
   232  O2    s     0.803141    0.109674    0.846206    0.000000
   233  O2    s     0.297728    0.221351    0.513461    0.000000
   234  O2    s     0.917527    0.720983    0.180511    0.000000
   235  O2    s     0.334991    0.669799    0.244374    0.000000
   236  O2    s     0.347775    0.687159    0.577924    0.000000
   237  O2    s     0.330801    0.687778    0.911067    0.000000
   238  O2    s     0.678978    0.359890    0.745788    0.000000
   239  O2    s     0.659547    0.332324    0.084946    0.000000
   240  O2    s     0.675693    0.342812    0.414570    0.000000
   241  O1    s     0.381248    0.347182    0.963921    0.000000
   242  O2    s     0.665237    0.045738    0.300592    0.000000
   243  O2    s     0.970180    0.641632    0.631868    0.000000
   244  O2    s     0.624655    0.674824    0.463578    0.000000
   245  O2    s     0.348630    0.981565    0.796201    0.000000
   246  O2    s     0.048142    0.397277    0.130919    0.000000
   247  O2    s     0.344287    0.387643    0.359966    0.000000
   248  O2    s     0.022906    0.665277    0.026951    0.000000
   249  O2    s     0.631200    0.980490    0.692956    0.000000
   250  O3    s     0.676708    0.637380    0.860379    0.000000
   251  O2    s     0.965168    0.355227    0.527923    0.000000
   252  O2    s     0.385769    0.052500    0.197104    0.000000
   253  O2    s     0.775438    0.309798    0.013663    0.000000
   254  O2    s     0.694275    0.476872    0.343981    0.000000
   255  O2    s     0.541637    0.240576    0.675564    0.000000
   256  O2    s     0.224218    0.703039    0.509181    0.000000
   257  O2    s     0.331817    0.557678    0.842415    0.000000
   258  O2    s     0.476838    0.794615    0.176305    0.000000
   259  O2    s     0.314868    0.786041    0.315482    0.000000
   260  O3    s     0.456267    0.721884    0.983470    0.000000
   261  O2    s     0.230130    0.551885    0.648111    0.000000
   262  O2    s     0.694752    0.237451    0.815027    0.000000
   263  O2    s     0.535794    0.327442    0.483208    0.000000
   264  O2    s     0.786635    0.479695    0.152198    0.000000
   265  O2    s     0.778481    0.530856    0.027640    0.000000
   266  O2    s     0.473002    0.269412    0.360649    0.000000
   267  O2    s     0.749482    0.227321    0.692630    0.000000
   268  O2    s     0.211903    0.482314    0.525832    0.000000
   269  O3    s     0.536469    0.767661    0.861392    0.000000
   270  O2    s     0.266926    0.806863    0.193643    0.000000
   271  O2    s     0.536668    0.798961    0.298569    0.000000
   272  O3    s     0.269659    0.498613    0.968860    0.000000
   273  O2    s     0.217293    0.760216    0.631463    0.000000
   274  O2    s     0.474407    0.228204    0.797397    0.000000
   275  O2    s     0.744582    0.548109    0.466471    0.000000
   276  O2    s     0.802239    0.272806    0.135648    0.000000
   277  O3    s     0.241704    0.358641    0.891366    0.000000
   278  O2    s     0.675113    0.921539    0.229506    0.000000
   279  O2    s     0.095565    0.774534    0.561656    0.000000
   280  O2    s     0.762056    0.679228    0.394897    0.000000
   281  O2    s     0.340413    0.108562    0.726439    0.000000
   282  O2    s     0.917484    0.253605    0.063541    0.000000
   283  O2    s     0.336203    0.254844    0.430278    0.000000
   284  O2    s     0.898908    0.673154    0.097319    0.000000
   285  O2    s     0.767025    0.109073    0.762727    0.000000
   286  O1    s     0.696300    0.796945    0.933052    0.000000
   287  O2    s     0.096356    0.349878    0.596868    0.000000
   288  O2    s     0.248281    0.921500    0.265516    0.000000
   289  O1    s     0.588385    0.574496    0.994543    0.000000
   290  O2    s     0.446585    0.032221    0.319788    0.000000
   291  O2    s     0.983519    0.436315    0.650517    0.000000
   292  O2    s     0.418177    0.456300    0.482379    0.000000
   293  O2    s     0.567266    0.991554    0.814933    0.000000
   294  O2    s     0.032603    0.603264    0.147972    0.000000
   295  O2    s     0.563236    0.592357    0.341198    0.000000
   296  O2    s     0.021051    0.449249    0.008417    0.000000
   297  O2    s     0.426242    0.994178    0.673456    0.000000
   298  O2    s     0.453826    0.436565    0.850948    0.000000
   299  O2    s     0.977940    0.573539    0.509186    0.000000
   300  O2    s     0.592597    0.039809    0.178022    0.000000
   301  O2    s     0.583845    0.165797    0.250191    0.000000
   302  O2    s     0.850273    0.440033    0.580360    0.000000
   303  O3    s     0.608438    0.451569    0.914364    0.000000
   304  O2    s     0.429983    0.862684    0.744015    0.000000
   305  O2    s     0.155130    0.593107    0.076929    0.000000
   306  O2    s     0.425500    0.590014    0.410948    0.000000
   307  F     s     0.458400    0.916401    0.247661    0.000000
   308  F     s     0.100533    0.564381    0.579695    0.000000
   309  F     s     0.500715    0.599760    0.926875    0.000000
   310  F     s     0.554119    0.112983    0.745157    0.000000
   311  F     s     0.901747    0.459785    0.079299    0.000000
   312  F     s     0.551830    0.465003    0.413003    0.000000
--------------------------------------------------------------------------------

  Final Cartesian lattice vectors (Angstroms) :

       11.971232   -0.015389   -0.006937
       -5.965034   10.385869   -0.037127
        0.049363   -0.102336   29.421283


  Final cell parameters and derivatives :

--------------------------------------------------------------------------------
       a           11.971244 Angstrom     dE/de1(xx)     0.000740 eV/strain
       b           11.977031 Angstrom     dE/de2(yy)    -0.000182 eV/strain
       c           29.421503 Angstrom     dE/de3(zz)     0.000500 eV/strain
       alpha       90.398302 Degrees      dE/de4(yz)    -0.000154 eV/strain
       beta        89.936816 Degrees      dE/de5(xz)     0.000146 eV/strain
       gamma      119.943906 Degrees      dE/de6(xy)    -0.000007 eV/strain
--------------------------------------------------------------------------------

  Primitive cell volume =          3655.249443 Angs**3

  Density of cell =      1.770610 g/cm**3

  Non-primitive cell volume =          3655.249443 Angs**3


  Final internal derivatives :

--------------------------------------------------------------------------------
   No.  Atomic          a             b             c           Radius
        Label          (eV)          (eV)          (eV)        (eV/Angs)
--------------------------------------------------------------------------------
      1 Si    c       0.000000      0.000000      0.000000      0.000000
      2 Si    c      -0.000030     -0.000041      0.000146      0.000000
      3 Si    c      -0.000014     -0.000044     -0.000019      0.000000
      4 Si    c       0.000075     -0.000033      0.000123      0.000000
      5 Si    c       0.000368     -0.001189      0.000756      0.000000
      6 Si    c      -0.000023     -0.000114      0.000063      0.000000
      7 Si    c       0.000030     -0.000037      0.000032      0.000000
      8 Si    c       0.000841     -0.001674     -0.003020      0.000000
      9 Si    c       0.000047     -0.000067      0.000091      0.000000
     10 Si    c       0.000009      0.000015     -0.000179      0.000000
     11 Si    c       0.000057     -0.000104     -0.000029      0.000000
     12 Si    c       0.000143     -0.000076      0.000035      0.000000
     13 Ge    c       0.000944     -0.000100      0.001091      0.000000
     14 Si    c      -0.000008      0.000005     -0.000007      0.000000
     15 Si    c       0.000033     -0.000092     -0.000094      0.000000
     16 Si    c       0.000068     -0.000058      0.000011      0.000000
     17 Si    c       0.000021     -0.000162      0.000036      0.000000
     18 Si    c      -0.000015     -0.000113      0.000423      0.000000
     19 Si    c      -0.000002     -0.000033      0.000047      0.000000
     20 Si    c      -0.000029     -0.000083      0.000463      0.000000
     21 Si    c      -0.000011     -0.000125     -0.000036      0.000000
     22 Si    c      -0.000753      0.001486     -0.000091      0.000000
     23 Si    c       0.000035     -0.000060      0.000031      0.000000
     24 Si    c      -0.000017     -0.000032      0.000167      0.000000
[...]
     58 Si    c       0.000027     -0.000055     -0.000988      0.000000
     59 Si    c       0.000050     -0.000075     -0.000082      0.000000
     60 Si    c      -0.000053     -0.000127      0.000017      0.000000
     61 O2    c       0.000275      0.000322     -0.000897      0.000000
     62 O2    c      -0.000009     -0.000036      0.000029      0.000000
     63 O2    c      -0.000068     -0.000110      0.000143      0.000000
     64 O2    c       0.000066     -0.000043      0.000077      0.000000
     65 O2    c       0.000000     -0.000076      0.000132      0.000000
     66 O2    c      -0.000081      0.000011     -0.000106      0.000000
     67 O2    c       0.000007     -0.000026      0.000128      0.000000
     68 O2    c      -0.000020     -0.000068      0.000092      0.000000
     69 O2    c      -0.000234      0.000276      0.000473      0.000000
     70 O2    c       0.000048      0.000069     -0.000079      0.000000
     71 O2    c      -0.000101     -0.000089      0.000059      0.000000
     72 O2    c       0.000096     -0.000074      0.000065      0.000000
     73 O3    c       0.000577     -0.000534      0.001304      0.000000
     74 O2    c      -0.000028     -0.000078      0.000083      0.000000
     75 O2    c       0.000031     -0.000094     -0.000111      0.000000
     76 O2    c       0.000117     -0.000037      0.000069      0.000000
     77 O2    c      -0.000059     -0.000105      0.000097      0.000000
     78 O2    c       0.000025     -0.000116     -0.000018      0.000000
     79 O3    c       0.000227      0.000093      0.000385      0.000000
     80 O2    c       0.000004      0.000012      0.000097      0.000000
     81 O2    c       0.000009     -0.000114      0.000050      0.000000
     82 O2    c       0.000057     -0.000093     -0.000004      0.000000
     83 O2    c       0.000020     -0.000072      0.000029      0.000000
     84 O2    c      -0.000045     -0.000079      0.000107      0.000000
     85 O2    c       0.000007     -0.000017      0.000099      0.000000
     86 O2    c       0.000327     -0.000328      0.000063      0.000000
     87 O2    c      -0.000023     -0.000099      0.000017      0.000000
     88 O3    c       0.000076     -0.000133     -0.000346      0.000000
     89 O2    c       0.000067     -0.000024      0.000008      0.000000
     90 O2    c      -0.000039     -0.000098      0.000015      0.000000
     91 O2    c       0.000018     -0.000071     -0.000099      0.000000
     92 O2    c       0.000006     -0.000076      0.000163      0.000000
     93 O2    c       0.000006     -0.000011      0.000486      0.000000
     94 O2    c      -0.000029     -0.000110      0.000125      0.000000
     95 O2    c       0.000160     -0.000070     -0.000209      0.000000
     96 O2    c       0.000008     -0.000049      0.000053      0.000000
     97 O2    c      -0.000072      0.000322      0.000187      0.000000
     98 O2    c      -0.000024     -0.000016     -0.000061      0.000000
     99 O2    c      -0.000021     -0.000073      0.000045      0.000000
    100 O2    c       0.000102     -0.000047      0.000078      0.000000
    101 O2    c      -0.000084     -0.000083     -0.000143      0.000000
    102 O2    c      -0.000117     -0.000088      0.000137      0.000000
    103 O2    c       0.000036     -0.000040      0.000005      0.000000
    104 O3    c      -0.000052     -0.000479      0.000991      0.000000
    105 O2    c       0.000006     -0.000112      0.000020      0.000000
    106 O2    c      -0.000077      0.000052     -0.000038      0.000000
    107 O2    c       0.000060     -0.000077      0.000054      0.000000
    108 O2    c      -0.000084     -0.000098     -0.000015      0.000000
    109 O2    c       0.000003     -0.000058      0.000120      0.000000
    110 O2    c       0.000058     -0.000050      0.000017      0.000000
    111 O2    c       0.000053     -0.000377     -0.000304      0.000000
    112 O2    c       0.000030     -0.000044     -0.000054      0.000000
    113 O2    c      -0.000042      0.000009     -0.000019      0.000000
    114 O2    c       0.000004     -0.000074      0.000019      0.000000
    115 O1    c      -0.002342     -0.001152      0.001276      0.000000
    116 O2    c       0.000021     -0.000037      0.000005      0.000000
    117 O2    c       0.000010     -0.000098      0.000020      0.000000
    118 O2    c       0.000031     -0.000049      0.000069      0.000000
    119 O2    c       0.000007     -0.000035      0.000012      0.000000
    120 O2    c      -0.000023     -0.000033      0.000156      0.000000
    121 O2    c      -0.000012     -0.000009      0.000063      0.000000
    122 O2    c       0.000086      0.000122     -0.000016      0.000000
    123 O2    c      -0.000018     -0.000069      0.000092      0.000000
    124 O3    c      -0.000210     -0.000082      0.000638      0.000000
    125 O2    c       0.000074     -0.000039      0.000008      0.000000
    126 O2    c      -0.000047     -0.000080      0.000077      0.000000
    127 O2    c       0.000227     -0.000159     -0.000127      0.000000
    128 O2    c       0.000001     -0.000050      0.000014      0.000000
    129 O2    c      -0.000004     -0.000077      0.000047      0.000000
    130 O2    c       0.000110     -0.000048      0.000011      0.000000
    131 O2    c       0.000135     -0.000118      0.000465      0.000000
    132 O2    c      -0.000017     -0.000083      0.000077      0.000000
    133 O2    c       0.000018     -0.000003      0.000064      0.000000
    134 O3    c      -0.002717      0.001396      0.002384      0.000000
    135 O2    c       0.000018     -0.000089      0.000035      0.000000
    136 O2    c       0.000004     -0.000056     -0.000043      0.000000
    137 O2    c       0.000060     -0.000094      0.000067      0.000000
    138 O2    c      -0.000075     -0.000054      0.000113      0.000000
    139 O2    c      -0.000405      0.000752     -0.000833      0.000000
    140 O2    c       0.000027     -0.000059      0.000044      0.000000
    141 O2    c      -0.000005     -0.000094      0.000016      0.000000
    142 O2    c       0.000098     -0.000020      0.000017      0.000000
    143 O3    c       0.000284     -0.000474     -0.000476      0.000000
    144 O2    c      -0.000036     -0.000073      0.000043      0.000000
    145 O2    c       0.000014     -0.000021      0.000016      0.000000
    146 O3    c       0.000209      0.000011     -0.000436      0.000000
    147 O2    c       0.000029     -0.000083      0.000061      0.000000
    148 O2    c       0.000012     -0.000040     -0.000061      0.000000
    149 O2    c       0.000074     -0.000102      0.000052      0.000000
    150 O2    c      -0.000128      0.000004      0.000099      0.000000
    151 O3    c      -0.000082      0.000068     -0.000388      0.000000
    152 O2    c      -0.000016     -0.000033      0.000071      0.000000
    153 O2    c       0.000077     -0.000058      0.000027      0.000000
    154 O2    c       0.000023     -0.000051     -0.000140      0.000000
    155 O2    c      -0.000021     -0.000070      0.000042      0.000000
    156 O2    c       0.000021      0.000028      0.000193      0.000000
    157 O2    c       0.000031     -0.000058      0.000151      0.000000
    158 O2    c       0.000018      0.000044     -0.000048      0.000000
    159 O2    c       0.000023     -0.000043     -0.000043      0.000000
    160 O1    c       0.002375      0.000690     -0.005585      0.000000
    161 O2    c       0.000025     -0.000067     -0.000001      0.000000
    162 O2    c      -0.000019     -0.000064      0.000034      0.000000
    163 O1    c       0.001047      0.000221      0.008591      0.000000
    164 O2    c      -0.000005     -0.000011     -0.000003      0.000000
    165 O2    c      -0.000014     -0.000085      0.000035      0.000000
    166 O2    c       0.000060     -0.000047      0.000054      0.000000
    167 O2    c       0.000001     -0.000088     -0.000031      0.000000
    168 O2    c      -0.000014     -0.000068      0.000133      0.000000
    169 O2    c      -0.000003     -0.000029      0.000078      0.000000
    170 O2    c       0.000139      0.000046     -0.000032      0.000000
    171 O2    c      -0.000025     -0.000078      0.000041      0.000000
    172 O2    c       0.000141      0.000128     -0.000235      0.000000
    173 O2    c       0.000072     -0.000035     -0.000004      0.000000
    174 O2    c      -0.000028     -0.000087     -0.000004      0.000000
    175 O2    c      -0.000004     -0.000043     -0.000049      0.000000
    176 O2    c       0.000051     -0.000082      0.000039      0.000000
    177 O3    c       0.001312     -0.000656     -0.005120      0.000000
    178 O2    c      -0.000026     -0.000109     -0.000003      0.000000
    179 O2    c       0.000093      0.000013     -0.000195      0.000000
    180 O2    c       0.000034     -0.000045      0.000144      0.000000
    181 F     c       0.000006     -0.000032      0.000030      0.000000
    182 F     c       0.000044     -0.000057      0.000034      0.000000
    183 F     c       0.002518     -0.001907      0.009606      0.000000
    184 F     c       0.000001     -0.000075      0.000019      0.000000
    185 F     c      -0.000001      0.000020     -0.000108      0.000000
    186 F     c       0.000019     -0.000059      0.000030      0.000000
    187 O2    s      -0.000218     -0.000127     -0.000022      0.000000
    188 O2    s       0.000008     -0.000044      0.000079      0.000000
    189 O2    s      -0.000027     -0.000120     -0.000011      0.000000
    190 O2    s       0.000040     -0.000057      0.000012      0.000000
    191 O2    s       0.000036     -0.000140     -0.000074      0.000000
    192 O2    s       0.000017     -0.000056      0.000169      0.000000
    193 O2    s       0.000008     -0.000010      0.000012      0.000000
    194 O2    s       0.000012     -0.000072      0.000014      0.000000
    195 O2    s       0.000192      0.000084      0.000263      0.000000
    196 O2    s       0.000108     -0.000243      0.000135      0.000000
    197 O2    s      -0.000097     -0.000122      0.000000      0.000000
    198 O2    s       0.000069     -0.000073      0.000003      0.000000
    199 O3    s      -0.000544      0.000460     -0.001472      0.000000
    200 O2    s       0.000011     -0.000103     -0.000029      0.000000
    201 O2    s      -0.000018     -0.000007      0.000010      0.000000
    202 O2    s       0.000088     -0.000026      0.000007      0.000000
    203 O2    s      -0.000024     -0.000086      0.000016      0.000000
    204 O2    s      -0.000066      0.000164      0.000022      0.000000
    205 O3    s       0.000227     -0.000473     -0.000220      0.000000
    206 O2    s       0.000005     -0.000002     -0.000062      0.000000
    207 O2    s       0.000014     -0.000085     -0.000014      0.000000
    208 O2    s       0.000050     -0.000052      0.000078      0.000000
    209 O2    s       0.000035     -0.000077      0.000165      0.000000
    210 O2    s      -0.000054     -0.000043     -0.000051      0.000000
    211 O2    s      -0.000014     -0.000027     -0.000008      0.000000
    212 O2    s       0.000271      0.000098     -0.000239      0.000000
    213 O2    s      -0.000022     -0.000079      0.000047      0.000000
    214 O3    s      -0.000078      0.000044      0.000494      0.000000
    215 O2    s       0.000065     -0.000046      0.000068      0.000000
    216 O2    s       0.000005     -0.000120      0.000022      0.000000
    217 O2    s       0.000000     -0.000050      0.000156      0.000000
    218 O2    s      -0.000003     -0.000052     -0.000009      0.000000
    219 O2    s      -0.000139     -0.000157      0.000139      0.000000
    220 O2    s      -0.000037     -0.000105     -0.000007      0.000000
    221 O2    s       0.000019      0.000176      0.000188      0.000000
    222 O2    s       0.000020     -0.000048      0.000059      0.000000
    223 O2    s      -0.000029      0.000003      0.000121      0.000000
    224 O2    s      -0.000019     -0.000036      0.000185      0.000000
    225 O2    s      -0.000005     -0.000068      0.000062      0.000000
    226 O2    s       0.000085     -0.000022      0.000010      0.000000
    227 O2    s      -0.000020     -0.000200     -0.000147      0.000000
    228 O2    s      -0.000073     -0.000032     -0.000052      0.000000
    229 O2    s       0.000017     -0.000026      0.000026      0.000000
    230 O3    s      -0.000508      0.000682     -0.002068      0.000000
    231 O2    s      -0.000010     -0.000110      0.000013      0.000000
    232 O2    s      -0.000085      0.000008      0.000090      0.000000
    233 O2    s       0.000069     -0.000086      0.000014      0.000000
    234 O2    s      -0.000020     -0.000070      0.000139      0.000000
    235 O2    s      -0.000012     -0.000033      0.000038      0.000000
    236 O2    s       0.000053     -0.000028      0.000048      0.000000
    237 O2    s      -0.000290      0.000650      0.000617      0.000000
    238 O2    s       0.000021     -0.000093      0.000021      0.000000
    239 O2    s       0.000065      0.000009     -0.000595      0.000000
    240 O2    s       0.000021     -0.000083      0.000030      0.000000
    241 O1    s       0.002362      0.001053     -0.002811      0.000000
    242 O2    s      -0.000018     -0.000005      0.000012      0.000000
    243 O2    s       0.000017     -0.000078      0.000016      0.000000
    244 O2    s       0.000071     -0.000065      0.000008      0.000000
    245 O2    s       0.000021     -0.000025      0.000146      0.000000
    246 O2    s       0.000030     -0.000076     -0.000059      0.000000
    247 O2    s      -0.000000     -0.000041      0.000058      0.000000
    248 O2    s       0.000174      0.000072      0.000066      0.000000
    249 O2    s      -0.000017     -0.000082      0.000031      0.000000
    250 O3    s       0.001099     -0.000239     -0.002550      0.000000
    251 O2    s       0.000073     -0.000037      0.000048      0.000000
    252 O2    s      -0.000029     -0.000086     -0.000066      0.000000
    253 O2    s      -0.000134      0.000219      0.000061      0.000000
    254 O2    s      -0.000021     -0.000027      0.000039      0.000000
    255 O2    s      -0.000007     -0.000081      0.000054      0.000000
    256 O2    s       0.000078     -0.000027      0.000081      0.000000
    257 O2    s      -0.000623      0.000138     -0.001632      0.000000
    258 O2    s      -0.000049     -0.000058      0.000005      0.000000
    259 O2    s       0.000023     -0.000012      0.000017      0.000000
    260 O3    s       0.003190     -0.001088     -0.002916      0.000000
    261 O2    s       0.000004     -0.000088      0.000015      0.000000
    262 O2    s      -0.000028     -0.000072      0.000190      0.000000
    263 O2    s       0.000042     -0.000071     -0.000008      0.000000
    264 O2    s      -0.000124      0.000001      0.000244      0.000000
    265 O2    s       0.001102     -0.000992      0.001211      0.000000
    266 O2    s      -0.000033     -0.000034      0.000024      0.000000
    267 O2    s      -0.000026     -0.000078      0.000027      0.000000
    268 O2    s       0.000078     -0.000033      0.000077      0.000000
    269 O3    s      -0.000259      0.000852      0.001500      0.000000
    270 O2    s      -0.000012     -0.000070      0.000054      0.000000
    271 O2    s       0.000002     -0.000014      0.000051      0.000000
    272 O3    s      -0.000994     -0.000393      0.002180      0.000000
    273 O2    s       0.000010     -0.000071     -0.000016      0.000000
    274 O2    s       0.000014     -0.000054      0.000215      0.000000
    275 O2    s       0.000022     -0.000061     -0.000008      0.000000
    276 O2    s      -0.000051     -0.000256      0.000178      0.000000
    277 O3    s       0.000401     -0.000751      0.001200      0.000000
    278 O2    s      -0.000023     -0.000039     -0.000020      0.000000
    279 O2    s       0.000065     -0.000040      0.000033      0.000000
    280 O2    s       0.000018     -0.000038      0.000172      0.000000
    281 O2    s       0.000011     -0.000085      0.000108      0.000000
    282 O2    s       0.000117     -0.000187     -0.000309      0.000000
    283 O2    s       0.000021     -0.000060     -0.000011      0.000000
    284 O2    s       0.000143     -0.000021     -0.000011      0.000000
    285 O2    s      -0.000005     -0.000037      0.000138      0.000000
    286 O1    s      -0.003543     -0.000378      0.007080      0.000000
    287 O2    s       0.000036     -0.000081      0.000055      0.000000
    288 O2    s      -0.000015     -0.000068      0.000019      0.000000
    289 O1    s       0.000164     -0.000836     -0.004511      0.000000
    290 O2    s      -0.000001     -0.000003      0.000010      0.000000
    291 O2    s       0.000010     -0.000108      0.000002      0.000000
    292 O2    s       0.000065     -0.000064      0.000034      0.000000
    293 O2    s       0.000019     -0.000045      0.000180      0.000000
    294 O2    s       0.000077     -0.000056     -0.000112      0.000000
    295 O2    s      -0.000013     -0.000021      0.000044      0.000000
    296 O2    s       0.000027      0.000032      0.000031      0.000000
    297 O2    s      -0.000006     -0.000071      0.000098      0.000000
    298 O2    s       0.000416     -0.001295     -0.000113      0.000000
    299 O2    s       0.000078     -0.000045      0.000074      0.000000
    300 O2    s      -0.000073     -0.000085      0.000012      0.000000
    301 O2    s      -0.000004     -0.000034      0.000031      0.000000
    302 O2    s       0.000024     -0.000080      0.000008      0.000000
    303 O3    s      -0.001709     -0.000072      0.006206      0.000000
    304 O2    s      -0.000040     -0.000016      0.000094      0.000000
    305 O2    s      -0.000041      0.000031      0.000215      0.000000
    306 O2    s       0.000025     -0.000038      0.000021      0.000000
    307 F     s      -0.000005     -0.000040      0.000034      0.000000
    308 F     s       0.000054     -0.000060      0.000024      0.000000
    309 F     s      -0.003306      0.002670     -0.009884      0.000000
    310 F     s      -0.000005     -0.000067      0.000062      0.000000
    311 F     s       0.000372      0.000074      0.000270      0.000000
    312 F     s       0.000016     -0.000054      0.000064      0.000000
--------------------------------------------------------------------------------
  Maximum abs         0.003543      0.002670      0.009884      0.000000
--------------------------------------------------------------------------------


  Time to end of optimisation =     487.0111 seconds


  Peak dynamic memory used =      19.13 MB 


  Timing analysis for GULP :

--------------------------------------------------------------------------------
  Task / Subroutine                                          Time (Seconds)
--------------------------------------------------------------------------------
  Calculation of reciprocal space energy and derivatives          9.0330
  Calculation of real space energy and derivatives              258.4292
  Calculation of three-body energy and derivatives               29.7002
  Global summation overhead                                       0.0002
--------------------------------------------------------------------------------
  Total CPU time                                                487.0111
--------------------------------------------------------------------------------


  Dump file written as out.res                                                 
  CIF file written as out.cif                                                 


  Job Finished at 01:56.07  7th December   2016                               

