********************************************************************************
*                       GENERAL UTILITY LATTICE PROGRAM                        *
*                                 Julian Gale                                  *
*                      Nanochemistry Research Institute                        *
*                           Department of Chemistry                            *
*                    Curtin University, Western Australia                      *
********************************************************************************
* Version = 4.2.0 * Last modified =  20th January 2014                         *
********************************************************************************
*  optimise     - perform optimisation run                                     *
*  conp         - constant pressure calculation                                *
*  qok          - running with non charge neutral cell is OK                   *
*  rfo          - optimisation step to be determined by RFO method             *
********************************************************************************

  Job Started  at 09:02.59  8th December   2016                               

  Number of CPUs =     1


  Total number of configurations input =   1

********************************************************************************
*  Input for Configuration =   1                                               *
********************************************************************************

  Formula = Ge4Si56O120F6                                               

  Number of irreducible atoms/shells =     312


  Total number atoms/shells =     312

  Dimensionality = 3               :  Bulk   


  Charge on solid   =  -6.000000 =>neutralising background added


  Cartesian lattice vectors (Angstroms) :

       11.902100    0.000000    0.000000
       -5.951050   10.307521    0.000000
        0.000000    0.000000   29.692000

  Cell parameters (Angstroms/Degrees):

  a =      11.9021    alpha =  90.0000
  b =      11.9021    beta  =  90.0000
  c =      29.6920    gamma = 120.0000

  Initial cell volume =        3642.648563 Angs**3

  Temperature of configuration =  0.000     K 

  Pressure of configuration =         0.000 GPa 

  Fractional coordinates of asymmetric unit :

--------------------------------------------------------------------------------
   No.  Atomic       x           y          z         Charge      Occupancy
        Label      (Frac)      (Frac)     (Frac)        (e)         (Frac)  
--------------------------------------------------------------------------------
      1 Ge    c    0.699600    0.375700    0.033890     4.00000    1.000000    
      2 Si    c    0.623272 *  0.325431 *  0.367006 *   4.00000    1.000000    
      3 Si    c    0.677421 *  0.297712 *  0.697692 *   4.00000    1.000000    
      4 Si    c    0.300167 *  0.623214 *  0.533169 *   4.00000    1.000000    
      5 Si    c    0.374733 *  0.677828 *  0.865922 *   4.00000    1.000000    
      6 Si    c    0.324034 *  0.702485 *  0.201204 *   4.00000    1.000000    
      7 Si    c    0.376879 *  0.699854 *  0.300717 *   4.00000    1.000000    
      8 Si    c    0.322777 *  0.625277 *  0.966573 *   4.00000    1.000000    
      9 Si    c    0.298597 *  0.676931 *  0.632763 *   4.00000    1.000000    
     10 Si    c    0.625494 *  0.299665 *  0.797120 *   4.00000    1.000000    
     11 Si    c    0.674537 *  0.376810 *  0.466824 *   4.00000    1.000000    
     12 Si    c    0.695843 *  0.323318 *  0.135698 *   4.00000    1.000000    
     13 Ge    c    0.527024 *  0.419245 *  0.964834 *   4.00000    1.000000    
     14 Si    c    0.585470 *  0.115594 *  0.302323 *   4.00000    1.000000    
     15 Si    c    0.885224 *  0.468871 *  0.632385 *   4.00000    1.000000    
     16 Si    c    0.470145 *  0.584923 *  0.467239 *   4.00000    1.000000    
     17 Si    c    0.414965 *  0.885533 *  0.799680 *   4.00000    1.000000    
     18 Si    c    0.119111 *  0.534046 *  0.134125 *   4.00000    1.000000    
     19 Si    c    0.415121 *  0.529795 *  0.366565 *   4.00000    1.000000    
     20 Si    c    0.115109 *  0.585582 *  0.032564 *   4.00000    1.000000    
     21 Si    c    0.468274 *  0.884041 *  0.699009 *   4.00000    1.000000    
     22 Ge    c    0.583408 *  0.469928 *  0.863758 *   4.00000    1.000000    
     23 Si    c    0.884113 *  0.414672 *  0.531715 *   4.00000    1.000000    
     24 Si    c    0.531316 *  0.115566 *  0.201649 *   4.00000    1.000000    
     25 Si    c    0.297475 *  0.396219 *  0.849535 *   4.00000    1.000000    
     26 Si    c    0.602807 *  0.904834 *  0.186246 *   4.00000    1.000000    
     27 Si    c    0.096550 *  0.697817 *  0.518209 *   4.00000    1.000000    
     28 Si    c    0.698159 *  0.603480 *  0.352569 *   4.00000    1.000000    
     29 Si    c    0.397446 *  0.095511 *  0.684795 *   4.00000    1.000000    
     30 Si    c    0.904348 *  0.300508 *  0.016096 *   4.00000    1.000000    
     31 Si    c    0.396480 *  0.301839 *  0.481133 *   4.00000    1.000000    
     32 Si    c    0.904433 *  0.604312 *  0.147979 *   4.00000    1.000000    
     33 Si    c    0.698500 *  0.095861 *  0.813455 *   4.00000    1.000000    
     34 Si    c    0.604585 *  0.701776 *  0.982470 *   4.00000    1.000000    
     35 Si    c    0.095707 *  0.397852 *  0.647198 *   4.00000    1.000000    
     36 Si    c    0.302263 *  0.903375 *  0.315796 *   4.00000    1.000000    
     37 Si    c    0.246944 *  0.337653 *  0.950456 *   4.00000    1.000000    
     38 Si    c    0.660360 *  0.912143 *  0.286067 *   4.00000    1.000000    
     39 Si    c    0.087589 *  0.748483 *  0.617819 *   4.00000    1.000000    
     40 Si    c    0.749244 *  0.660645 *  0.452252 *   4.00000    1.000000    
     41 Si    c    0.339892 *  0.089314 *  0.784617 *   4.00000    1.000000    
     42 Ge    c    0.911074 *  0.253981 *  0.117453 *   4.00000    1.000000    
     43 Si    c    0.339374 *  0.250698 *  0.381435 *   4.00000    1.000000    
     44 Si    c    0.912138 *  0.664077 *  0.047416 *   4.00000    1.000000    
     45 Si    c    0.748583 *  0.086796 *  0.713720 *   4.00000    1.000000    
     46 Si    c    0.662337 *  0.751418 *  0.881323 *   4.00000    1.000000    
     47 Si    c    0.087754 *  0.339597 *  0.547594 *   4.00000    1.000000    
     48 Si    c    0.251734 *  0.912494 *  0.216248 *   4.00000    1.000000    
     49 Si    c    0.967965 *  0.119732 *  0.965727 *   4.00000    1.000000    
     50 Si    c    0.878298 *  0.849306 *  0.301037 *   4.00000    1.000000    
     51 Si    c    0.151525 *  0.029545 *  0.633141 *   4.00000    1.000000    
     52 Si    c    0.030503 *  0.878565 *  0.467262 *   4.00000    1.000000    
     53 Si    c    0.120140 *  0.150639 *  0.798875 *   4.00000    1.000000    
     54 Si    c    0.849703 *  0.970110 *  0.134821 *   4.00000    1.000000    
     55 Si    c    0.121339 *  0.969500 *  0.366496 *   4.00000    1.000000    
     56 Si    c    0.849345 *  0.881828 *  0.033394 *   4.00000    1.000000    
     57 Si    c    0.029664 *  0.151341 *  0.698288 *   4.00000    1.000000    
     58 Si    c    0.879273 *  0.031615 *  0.864959 *   4.00000    1.000000    
     59 Si    c    0.150686 *  0.121737 *  0.532604 *   4.00000    1.000000    
     60 Si    c    0.970783 *  0.848209 *  0.200517 *   4.00000    1.000000    
     61 O2    c    0.926921 *  0.000722 *  0.999565 *   0.87073    1.000000    
     62 O2    c    0.999484 *  0.927684 *  0.334001 *   0.87073    1.000000    
     63 O2    c    0.072961 *  0.073273 *  0.665501 *   0.87073    1.000000    
     64 O2    c    0.072266 *  0.000408 *  0.499738 *   0.87073    1.000000    
     65 O2    c    0.999744 *  0.071590 *  0.831950 *   0.87073    1.000000    
     66 O2    c    0.926448 *  0.923226 *  0.167004 *   0.87073    1.000000    
     67 O2    c    0.337869 *  0.577099 *  0.333690 *   0.87073    1.000000    
     68 O2    c    0.420119 *  0.759335 *  0.666380 *   0.87073    1.000000    
     69 O2    c    0.241307 *  0.664541 *  0.000280 *   0.87073    1.000000    
     70 O3    c    0.667768 *  0.424943 *  0.826698 *   1.33043    1.000000    
     71 O2    c    0.577487 *  0.242900 *  0.171032 *   0.87073    1.000000    
     72 O2    c    0.758147 *  0.337001 *  0.499649 *   0.87073    1.000000    
     73 O1    c    0.568831 *  0.331678 *  0.000822 *   1.73396    1.000000    
     74 O2    c    0.759236 *  0.419675 *  0.664351 *   0.87073    1.000000    
     75 O2    c    0.663235 *  0.241630 *  0.334316 *   0.87073    1.000000    
     76 O2    c    0.422874 *  0.662096 *  0.500153 *   0.87073    1.000000    
     77 O2    c    0.242544 *  0.582571 *  0.167135 *   0.87073    1.000000    
     78 O2    c    0.336381 *  0.760054 *  0.832311 *   0.87073    1.000000    
     79 O2    c    0.121230 *  0.213560 *  0.971379 *   0.87073    1.000000    
     80 O2    c    0.788070 *  0.914093 *  0.306277 *   0.87073    1.000000    
     81 O2    c    0.086341 *  0.874394 *  0.638257 *   0.87073    1.000000    
     82 O2    c    0.875843 *  0.786288 *  0.472877 *   0.87073    1.000000    
     83 O2    c    0.212074 *  0.087508 *  0.804861 *   0.87073    1.000000    
     84 O3    c    0.916395 *  0.121654 *  0.140585 *   1.33043    1.000000    
     85 O2    c    0.213690 *  0.124147 *  0.360822 *   0.87073    1.000000    
     86 O2    c    0.915861 *  0.793299 *  0.028009 *   0.87073    1.000000    
     87 O2    c    0.874529 *  0.085805 *  0.693246 *   0.87073    1.000000    
     88 O2    c    0.784821 *  0.878324 *  0.859898 *   0.87073    1.000000    
     89 O2    c    0.085840 *  0.211960 *  0.527331 *   0.87073    1.000000    
     90 O2    c    0.125978 *  0.913673 *  0.195725 *   0.87073    1.000000    
     91 O2    c    0.930163 *  0.860086 *  0.250759 *   0.87073    1.000000    
     92 O2    c    0.140189 *  0.069926 *  0.582801 *   0.87073    1.000000    
     93 O2    c    0.932478 *  0.066911 *  0.915311 *   0.87073    1.000000    
     94 O2    c    0.070055 *  0.138304 *  0.748413 *   0.87073    1.000000    
     95 O2    c    0.859792 *  0.930817 *  0.083946 *   0.87073    1.000000    
     96 O2    c    0.069429 *  0.930681 *  0.416900 *   0.87073    1.000000    
     97 O2    c    0.900575 *  0.204424 *  0.976281 *   0.87073    1.000000    
     98 O2    c    0.794036 *  0.697594 *  0.313477 *   0.87073    1.000000    
     99 O2    c    0.303077 *  0.098179 *  0.645779 *   0.87073    1.000000    
    100 O2    c    0.100345 *  0.796231 *  0.479582 *   0.87073    1.000000    
    101 O2    c    0.198605 *  0.302912 *  0.811015 *   0.87073    1.000000    
    102 O2    c    0.696616 *  0.902381 *  0.147081 *   0.87073    1.000000    
    103 O2    c    0.203701 *  0.899594 *  0.354395 *   0.87073    1.000000    
    104 O2    c    0.697135 *  0.801372 *  0.020976 *   0.87073    1.000000    
    105 O2    c    0.098423 *  0.303489 *  0.686266 *   0.87073    1.000000    
    106 O2    c    0.796645 *  0.101019 *  0.852457 *   0.87073    1.000000    
    107 O2    c    0.302354 *  0.205962 *  0.520183 *   0.87073    1.000000    
    108 O2    c    0.902897 *  0.696487 *  0.187882 *   0.87073    1.000000    
    109 O2    c    0.318261 *  0.640630 *  0.250935 *   0.87073    1.000000    
    110 O2    c    0.359357 *  0.681771 *  0.582936 *   0.87073    1.000000    
    111 O2    c    0.321248 *  0.679106 *  0.916263 *   0.87073    1.000000    
    112 O2    c    0.682619 *  0.357442 *  0.747134 *   0.87073    1.000000    
    113 O3    c    0.634537 *  0.314674 *  0.087208 *   1.33043    1.000000    
    114 O2    c    0.678449 *  0.321501 *  0.416906 *   0.87073    1.000000    
    115 O3    c    0.360029 *  0.319484 *  0.969867 *   1.33043    1.000000    
    116 O2    c    0.672922 *  0.045982 *  0.304832 *   0.87073    1.000000    
    117 O2    c    0.953360 *  0.625650 *  0.635292 *   0.87073    1.000000    
    118 O2    c    0.627161 *  0.673238 *  0.469887 *   0.87073    1.000000    
    119 O2    c    0.327071 *  0.954380 *  0.802812 *   0.87073    1.000000    
    120 O3    c    0.055340 *  0.380897 *  0.137016 *   1.33043    1.000000    
    121 O2    c    0.326758 *  0.372794 *  0.363826 *   0.87073    1.000000    
    122 O2    c    0.046578 *  0.673499 *  0.030149 *   0.87073    1.000000    
    123 O2    c    0.625042 *  0.952597 *  0.696584 *   0.87073    1.000000    
    124 O3    c    0.679862 *  0.638058 *  0.861133 *   1.33043    1.000000    
    125 O2    c    0.953753 *  0.327245 *  0.529056 *   0.87073    1.000000    
    126 O2    c    0.374378 *  0.046268 *  0.198706 *   0.87073    1.000000    
    127 O3    c    0.769951 *  0.294179 *  0.008240 *   1.33043    1.000000    
    128 O2    c    0.700711 *  0.470031 *  0.345429 *   0.87073    1.000000    
    129 O2    c    0.531658 *  0.229960 *  0.677015 *   0.87073    1.000000    
    130 O2    c    0.232312 *  0.699815 *  0.511268 *   0.87073    1.000000    
    131 O2    c    0.297620 *  0.532064 *  0.846078 *   0.87073    1.000000    
    132 O2    c    0.468568 *  0.769145 *  0.179721 *   0.87073    1.000000    
    133 O2    c    0.300285 *  0.767608 *  0.322702 *   0.87073    1.000000    
    134 O2    c    0.468746 *  0.702077 *  0.986320 *   0.87073    1.000000    
    135 O2    c    0.231286 *  0.532006 *  0.654106 *   0.87073    1.000000    
    136 O2    c    0.700527 *  0.231081 *  0.820206 *   0.87073    1.000000    
    137 O2    c    0.529909 *  0.299328 *  0.488330 *   0.87073    1.000000    
    138 O2    c    0.768560 *  0.471673 *  0.154543 *   0.87073    1.000000    
    139 O3    c    0.786833 *  0.544607 *  0.026756 *   1.33043    1.000000    
    140 O2    c    0.466583 *  0.252046 *  0.361892 *   0.87073    1.000000    
    141 O2    c    0.749262 *  0.212592 *  0.693216 *   0.87073    1.000000    
    142 O2    c    0.215886 *  0.466066 *  0.528909 *   0.87073    1.000000    
    143 O2    c    0.530578 *  0.745555 *  0.863955 *   0.87073    1.000000    
    144 O2    c    0.250136 *  0.785512 *  0.196323 *   0.87073    1.000000    
    145 O2    c    0.534056 *  0.784029 *  0.304853 *   0.87073    1.000000    
    146 O2    c    0.252890 *  0.469182 *  0.968539 *   0.87073    1.000000    
    147 O2    c    0.214393 *  0.749629 *  0.637699 *   0.87073    1.000000    
    148 O2    c    0.466832 *  0.216732 *  0.803732 *   0.87073    1.000000    
    149 O2    c    0.747939 *  0.533480 *  0.471823 *   0.87073    1.000000    
    150 O3    c    0.778763 *  0.251070 *  0.141466 *   1.33043    1.000000    
    151 O2    c    0.231075 *  0.321444 *  0.896178 *   0.87073    1.000000    
    152 O2    c    0.679889 *  0.911954 *  0.232145 *   0.87073    1.000000    
    153 O2    c    0.090315 *  0.768830 *  0.563925 *   0.87073    1.000000    
    154 O2    c    0.769896 *  0.679740 *  0.398336 *   0.87073    1.000000    
    155 O2    c    0.320675 *  0.089021 *  0.730648 *   0.87073    1.000000    
    156 O3    c    0.911258 *  0.226458 *  0.060505 *   1.33043    1.000000    
    157 O2    c    0.320269 *  0.230088 *  0.435351 *   0.87073    1.000000    
    158 O2    c    0.911037 *  0.678785 *  0.101726 *   0.87073    1.000000    
    159 O2    c    0.769029 *  0.089305 *  0.767613 *   0.87073    1.000000    
    160 O2    c    0.679504 *  0.767686 *  0.935543 *   0.87073    1.000000    
    161 O2    c    0.088223 *  0.320264 *  0.601486 *   0.87073    1.000000    
    162 O2    c    0.231197 *  0.909633 *  0.270126 *   0.87073    1.000000    
    163 O3    c    0.589992 *  0.565709 *  0.994457 *   1.33043    1.000000    
    164 O2    c    0.442883 *  0.029196 *  0.324755 *   0.87073    1.000000    
    165 O2    c    0.970101 *  0.412557 *  0.655960 *   0.87073    1.000000    
    166 O2    c    0.412487 *  0.442745 *  0.489854 *   0.87073    1.000000    
    167 O2    c    0.557645 *  0.969038 *  0.822296 *   0.87073    1.000000    
    168 O2    c    0.028530 *  0.586703 *  0.155346 *   0.87073    1.000000    
    169 O2    c    0.557237 *  0.587466 *  0.343870 *   0.87073    1.000000    
    170 O2    c    0.031048 *  0.444008 *  0.009390 *   0.87073    1.000000    
    171 O2    c    0.412282 *  0.969911 *  0.676277 *   0.87073    1.000000    
    172 O3    c    0.433827 *  0.411962 *  0.837329 *   1.33043    1.000000    
    173 O2    c    0.970537 *  0.557270 *  0.509289 *   0.87073    1.000000    
    174 O2    c    0.587574 *  0.030505 *  0.177788 *   0.87073    1.000000    
    175 O2    c    0.586571 *  0.169068 *  0.251898 *   0.87073    1.000000    
    176 O2    c    0.830523 *  0.413664 *  0.582204 *   0.87073    1.000000    
    177 O1    c    0.593202 *  0.407662 *  0.914465 *   1.73396    1.000000    
    178 O2    c    0.413562 *  0.830196 *  0.749452 *   0.87073    1.000000    
    179 O2    c    0.168829 *  0.585458 *  0.082901 *   0.87073    1.000000    
    180 O2    c    0.415314 *  0.584631 *  0.416878 *   0.87073    1.000000    
    181 F     c    0.451371 *  0.903298 *  0.251057 *   0.56000    1.000000    
    182 F     c    0.096429 *  0.548591 *  0.582846 *   0.56000    1.000000    
    183 F     c    0.466927 *  0.532648 *  0.917385 *   0.56000    1.000000    
    184 F     c    0.548341 *  0.097566 *  0.749838 *   0.56000    1.000000    
    185 F     c    0.898106 *  0.444461 *  0.080645 *   0.56000    1.000000    
    186 F     c    0.547623 *  0.452380 *  0.416828 *   0.56000    1.000000    
    187 O2    s    0.922892 *  0.000775 *  0.999615 *  -2.87073    1.000000    
    188 O2    s    0.999643 *  0.923729 *  0.333922 *  -2.87073    1.000000    
    189 O2    s    0.076853 *  0.077048 *  0.665533 *  -2.87073    1.000000    
    190 O2    s    0.076240 *  0.000275 *  0.499778 *  -2.87073    1.000000    
    191 O2    s    0.999760 *  0.075879 *  0.831928 *  -2.87073    1.000000    
    192 O2    s    0.923042 *  0.919746 *  0.167248 *  -2.87073    1.000000    
    193 O2    s    0.350050 *  0.585007 *  0.333658 *  -2.87073    1.000000    
    194 O2    s    0.412591 *  0.763856 *  0.666311 *  -2.87073    1.000000    
    195 O2    s    0.236880 *  0.652105 *  0.999995 *  -2.87073    1.000000    
    196 O3    s    0.656879 *  0.415327 *  0.826447 *  -3.33043    1.000000    
    197 O2    s    0.584491 *  0.237535 *  0.170705 *  -2.87073    1.000000    
    198 O2    s    0.762835 *  0.349415 *  0.499606 *  -2.87073    1.000000    
    199 O1    s    0.576897 *  0.341717 *  0.001005 *  -3.73396    1.000000    
    200 O2    s    0.763915 *  0.412073 *  0.664466 *  -2.87073    1.000000    
    201 O2    s    0.650777 *  0.237003 *  0.334379 *  -2.87073    1.000000    
    202 O2    s    0.414959 *  0.649961 *  0.500170 *  -2.87073    1.000000    
    203 O2    s    0.238239 *  0.590234 *  0.167243 *  -2.87073    1.000000    
    204 O2    s    0.348742 *  0.764361 *  0.832600 *  -2.87073    1.000000    
    205 O2    s    0.117682 *  0.216415 *  0.968546 *  -2.87073    1.000000    
    206 O2    s    0.784455 *  0.906856 *  0.303652 *  -2.87073    1.000000    
    207 O2    s    0.093536 *  0.877943 *  0.635598 *  -2.87073    1.000000    
    208 O2    s    0.879080 *  0.783059 *  0.470110 *  -2.87073    1.000000    
    209 O2    s    0.215716 *  0.094618 *  0.802174 *  -2.87073    1.000000    
    210 O3    s    0.908777 *  0.115486 *  0.138155 *  -3.33043    1.000000    
    211 O2    s    0.216914 *  0.120913 *  0.363562 *  -2.87073    1.000000    
    212 O2    s    0.908423 *  0.789498 *  0.030583 *  -2.87073    1.000000    
    213 O2    s    0.878090 *  0.093014 *  0.695880 *  -2.87073    1.000000    
    214 O2    s    0.782329 *  0.881926 *  0.862756 *  -2.87073    1.000000    
    215 O2    s    0.093062 *  0.215626 *  0.529954 *  -2.87073    1.000000    
    216 O2    s    0.122414 *  0.906466 *  0.198356 *  -2.87073    1.000000    
    217 O2    s    0.928900 *  0.857479 *  0.250762 *  -2.87073    1.000000    
    218 O2    s    0.142711 *  0.071173 *  0.582795 *  -2.87073    1.000000    
    219 O2    s    0.930402 *  0.068789 *  0.915240 *  -2.87073    1.000000    
    220 O2    s    0.071082 *  0.141179 *  0.748476 *  -2.87073    1.000000    
    221 O2    s    0.857444 *  0.929685 *  0.083817 *  -2.87073    1.000000    
    222 O2    s    0.070838 *  0.929222 *  0.416894 *  -2.87073    1.000000    
    223 O2    s    0.908542 *  0.204786 *  0.979077 *  -2.87073    1.000000    
    224 O2    s    0.793112 *  0.704100 *  0.316159 *  -2.87073    1.000000    
    225 O2    s    0.296392 *  0.090353 *  0.648448 *  -2.87073    1.000000    
    226 O2    s    0.092398 *  0.794952 *  0.482207 *  -2.87073    1.000000    
    227 O2    s    0.200223 *  0.296214 *  0.813697 *  -2.87073    1.000000    
    228 O2    s    0.702812 *  0.909788 *  0.149854 *  -2.87073    1.000000    
    229 O2    s    0.204989 *  0.907545 *  0.351735 *  -2.87073    1.000000    
    230 O2    s    0.703776 *  0.799828 *  0.018320 *  -2.87073    1.000000    
    231 O2    s    0.090638 *  0.296816 *  0.683511 *  -2.87073    1.000000    
    232 O2    s    0.795502 *  0.093112 *  0.849876 *  -2.87073    1.000000    
    233 O2    s    0.295839 *  0.206898 *  0.517465 *  -2.87073    1.000000    
    234 O2    s    0.910520 *  0.703244 *  0.185040 *  -2.87073    1.000000    
    235 O2    s    0.324899 *  0.652954 *  0.250923 *  -2.87073    1.000000    
    236 O2    s    0.347124 *  0.675236 *  0.582957 *  -2.87073    1.000000    
    237 O2    s    0.326873 *  0.673534 *  0.916245 *  -2.87073    1.000000    
    238 O2    s    0.676117 *  0.345059 *  0.746934 *  -2.87073    1.000000    
    239 O3    s    0.645759 *  0.320172 *  0.088142 *  -3.33043    1.000000    
    240 O2    s    0.672402 *  0.327574 *  0.416928 *  -2.87073    1.000000    
    241 O3    s    0.360983 *  0.329271 *  0.967355 *  -3.33043    1.000000    
    242 O2    s    0.662373 *  0.038981 *  0.302605 *  -2.87073    1.000000    
    243 O2    s    0.960452 *  0.622340 *  0.633126 *  -2.87073    1.000000    
    244 O2    s    0.623653 *  0.662608 *  0.467729 *  -2.87073    1.000000    
    245 O2    s    0.337744 *  0.961391 *  0.800625 *  -2.87073    1.000000    
    246 O3    s    0.050128 *  0.386403 *  0.135005 *  -3.33043    1.000000    
    247 O2    s    0.337395 *  0.376304 *  0.365974 *  -2.87073    1.000000    
    248 O2    s    0.039837 *  0.663147 *  0.032163 *  -2.87073    1.000000    
    249 O2    s    0.621738 *  0.959568 *  0.698631 *  -2.87073    1.000000    
    250 O3    s    0.670469 *  0.636707 *  0.863501 *  -3.33043    1.000000    
    251 O2    s    0.960772 *  0.337762 *  0.531258 *  -2.87073    1.000000    
    252 O2    s    0.377505 *  0.039144 *  0.200888 *  -2.87073    1.000000    
    253 O3    s    0.778799 *  0.301398 *  0.011200 *  -3.33043    1.000000    
    254 O2    s    0.692184 *  0.468939 *  0.348460 *  -2.87073    1.000000    
    255 O2    s    0.532439 *  0.222519 *  0.680000 *  -2.87073    1.000000    
    256 O2    s    0.224736 *  0.691446 *  0.514280 *  -2.87073    1.000000    
    257 O2    s    0.306016 *  0.533506 *  0.848596 *  -2.87073    1.000000    
    258 O2    s    0.467777 *  0.776722 *  0.182701 *  -2.87073    1.000000    
    259 O2    s    0.308642 *  0.775192 *  0.319652 *  -2.87073    1.000000    
    260 O2    s    0.467133 *  0.693651 *  0.983784 *  -2.87073    1.000000    
    261 O2    s    0.223825 *  0.532842 *  0.651115 *  -2.87073    1.000000    
    262 O2    s    0.692422 *  0.223111 *  0.817130 *  -2.87073    1.000000    
    263 O2    s    0.531000 *  0.307871 *  0.485289 *  -2.87073    1.000000    
    264 O2    s    0.775857 *  0.470815 *  0.151850 *  -2.87073    1.000000    
    265 O3    s    0.793660 *  0.544334 *  0.029490 *  -3.33043    1.000000    
    266 O2    s    0.469156 *  0.259676 *  0.364500 *  -2.87073    1.000000    
    267 O2    s    0.741586 *  0.207715 *  0.695852 *  -2.87073    1.000000    
    268 O2    s    0.210736 *  0.468731 *  0.531310 *  -2.87073    1.000000    
    269 O2    s    0.527573 *  0.738525 *  0.866017 *  -2.87073    1.000000    
    270 O2    s    0.258039 *  0.790590 *  0.198968 *  -2.87073    1.000000    
    271 O2    s    0.531356 *  0.789158 *  0.302424 *  -2.87073    1.000000    
    272 O2    s    0.260092 *  0.472304 *  0.966463 *  -2.87073    1.000000    
    273 O2    s    0.209445 *  0.741854 *  0.635063 *  -2.87073    1.000000    
    274 O2    s    0.468696 *  0.211209 *  0.801137 *  -2.87073    1.000000    
    275 O2    s    0.740286 *  0.530878 *  0.469206 *  -2.87073    1.000000    
    276 O3    s    0.781893 *  0.258432 *  0.138723 *  -3.33043    1.000000    
    277 O2    s    0.239790 *  0.331029 *  0.896944 *  -2.87073    1.000000    
    278 O2    s    0.669710 *  0.911212 *  0.233090 *  -2.87073    1.000000    
    279 O2    s    0.090748 *  0.759217 *  0.564864 *  -2.87073    1.000000    
    280 O2    s    0.760141 *  0.669673 *  0.399221 *  -2.87073    1.000000    
    281 O2    s    0.330874 *  0.089854 *  0.731546 *  -2.87073    1.000000    
    282 O3    s    0.910490 *  0.235776 *  0.060958 *  -3.33043    1.000000    
    283 O2    s    0.330334 *  0.239842 *  0.434461 *  -2.87073    1.000000    
    284 O2    s    0.910357 *  0.669210 *  0.100987 *  -2.87073    1.000000    
    285 O2    s    0.759507 *  0.089771 *  0.766651 *  -2.87073    1.000000    
    286 O2    s    0.669980 *  0.759095 *  0.934677 *  -2.87073    1.000000    
    287 O2    s    0.089009 *  0.330533 *  0.600570 *  -2.87073    1.000000    
    288 O2    s    0.240842 *  0.909217 *  0.269202 *  -2.87073    1.000000    
    289 O3    s    0.586694 *  0.569095 *  0.990901 *  -3.33043    1.000000    
    290 O2    s    0.442618 *  0.024575 *  0.321457 *  -2.87073    1.000000    
    291 O2    s    0.974975 *  0.417093 *  0.652541 *  -2.87073    1.000000    
    292 O2    s    0.416937 *  0.442440 *  0.486501 *  -2.87073    1.000000    
    293 O2    s    0.557592 *  0.973745 *  0.819059 *  -2.87073    1.000000    
    294 O2    s    0.024307 *  0.582841 *  0.152304 *  -2.87073    1.000000    
    295 O2    s    0.557554 *  0.583016 *  0.347209 *  -2.87073    1.000000    
    296 O2    s    0.026725 *  0.444114 *  0.012517 *  -2.87073    1.000000    
    297 O2    s    0.416769 *  0.974548 *  0.679593 *  -2.87073    1.000000    
    298 O3    s    0.431114 *  0.414961 *  0.840768 *  -3.33043    1.000000    
    299 O2    s    0.975172 *  0.557500 *  0.512555 *  -2.87073    1.000000    
    300 O2    s    0.583218 *  0.025666 *  0.181123 *  -2.87073    1.000000    
    301 O2    s    0.580631 *  0.157713 *  0.252017 *  -2.87073    1.000000    
    302 O2    s    0.841929 *  0.419587 *  0.582173 *  -2.87073    1.000000    
    303 O1    s    0.587583 *  0.413305 *  0.914174 *  -3.73396    1.000000    
    304 O2    s    0.419339 *  0.841551 *  0.749477 *  -2.87073    1.000000    
    305 O2    s    0.158138 *  0.580263 *  0.082866 *  -2.87073    1.000000    
    306 O2    s    0.420918 *  0.579042 *  0.416892 *  -2.87073    1.000000    
    307 F     s    0.451033 *  0.902741 *  0.251069 *  -1.56000    1.000000    
    308 F     s    0.096814 *  0.548814 *  0.582828 *  -1.56000    1.000000    
    309 F     s    0.469527 *  0.529613 *  0.917707 *  -1.56000    1.000000    
    310 F     s    0.548476 *  0.097981 *  0.749939 *  -1.56000    1.000000    
    311 F     s    0.896002 *  0.442001 *  0.080269 *  -1.56000    1.000000    
    312 F     s    0.547807 *  0.452178 *  0.416827 *  -1.56000    1.000000    
--------------------------------------------------------------------------------



********************************************************************************
*  General input information                                                   *
********************************************************************************

  Species output for all configurations : 

--------------------------------------------------------------------------------
  Species    Type    Atomic    Atomic    Charge       Radii (Angs)     Library
                     Number     Mass       (e)     Cova   Ionic  VDW   Symbol
--------------------------------------------------------------------------------
    Si       Core       14      28.09   4.000000   1.200  0.000  2.100          
    O1       Core        8      16.00   1.733957   0.730  0.000  1.360          
    O1       Shell       8       0.00  -3.733957   0.730  0.000  1.360          
    O2       Core        8      16.00   0.870733   0.730  0.000  1.360          
    O2       Shell       8       0.00  -2.870733   0.730  0.000  1.360          
    O3       Core        8      16.00   1.330431   0.730  0.000  1.360          
    O3       Shell       8       0.00  -3.330431   0.730  0.000  1.360          
    F        Core        9      19.00   0.560000   0.710  0.000  1.300          
    F        Shell       9       0.00  -1.560000   0.710  0.000  1.300          
    Ge       Core       32      72.61   4.000000   1.170  0.000  1.750          
--------------------------------------------------------------------------------


  Lattice summation method               =    Ewald          (3-D)
                                         =    Parry          (2-D)
                                         =    Saunders et al (1-D)
  Accuracy factor for lattice sums       =   12.000


  Time limit = Infinity

  Maximum range for interatomic potentials =        16.000000 Angstroms

  Taper potentials to zero over   1.0000 Angstroms using polynomial

  General interatomic potentials :

--------------------------------------------------------------------------------
Atom  Types   Potential         A         B         C         D     Cutoffs(Ang)
  1     2                                                            Min    Max 
--------------------------------------------------------------------------------
Si   c O1   s Buckingham    0.132E+04 0.318      10.1      0.00     0.000 16.000
Si   c O2   s Buckingham    0.132E+04 0.318      10.1      0.00     0.000 16.000
Si   c O3   s Buckingham    0.132E+04 0.318      10.1      0.00     0.000 16.000
Ge   c O1   s Buckingham    0.150E+04 0.326      16.8      0.00     0.000 16.000
Ge   c O2   s Buckingham    0.150E+04 0.326      16.8      0.00     0.000 16.000
Ge   c O3   s Buckingham    0.150E+04 0.326      16.8      0.00     0.000 16.000
O1   s O1   s Buckingham    0.228E+05 0.149      10.9      0.00     0.000 16.000
O1   s O2   s Buckingham    0.228E+05 0.149      10.9      0.00     0.000 16.000
O1   s O3   s Buckingham    0.228E+05 0.149      10.9      0.00     0.000 16.000
O2   s O2   s Buckingham    0.228E+05 0.149      10.9      0.00     0.000 16.000
O2   s O3   s Buckingham    0.228E+05 0.149      10.9      0.00     0.000 16.000
O3   s O3   s Buckingham    0.228E+05 0.149      10.9      0.00     0.000 16.000
Si   c F    s Buckingham     977.     0.282      0.00      0.00     0.000 16.000
Ge   c F    s Buckingham     681.     0.320      0.00      0.00     0.000 16.000
F    s F    s Buckingham     540.     0.262      0.00      0.00     0.000 16.000
O1   s F    s Buckingham    0.168E+04 0.268      0.00      0.00     0.000 16.000
O2   s F    s Buckingham    0.168E+04 0.268      0.00      0.00     0.000 16.000
O3   s F    s Buckingham    0.168E+04 0.268      0.00      0.00     0.000 16.000
O2   c O2   s Spring (c-s)   76.0      0.00      0.00      0.00     0.000  0.800
O3   c O3   s Spring (c-s)   128.      0.00      0.00      0.00     0.000  0.800
O1   c O1   s Spring (c-s)   180.      0.00      0.00      0.00     0.000  0.800
F    c F    s Spring (c-s)   33.5      0.00      0.00      0.00     0.000  0.800
--------------------------------------------------------------------------------

  General Three-body potentials :

  Harmonic form:

--------------------------------------------------------------------------------
Atom    Atom    Atom           Force Constants            Theta     Cutoffs  
  1       2       3     (eVrad**-2/eVrad**-3/eVrad**-4)   (deg)  1-2  1-3  2-3
--------------------------------------------------------------------------------
Si    c O1    s O1    s  1.261        0.0000    0.0000   109.470 0.00 0.00 0.00
                                                                 1.90 1.90 3.50
Si    c O1    s O2    s  1.261        0.0000    0.0000   109.470 0.00 0.00 0.00
                                                                 1.90 1.90 3.50
Si    c O2    s O2    s  1.261        0.0000    0.0000   109.470 0.00 0.00 0.00
                                                                 1.90 1.90 3.50
--------------------------------------------------------------------------------

********************************************************************************
*  Output for configuration   1                                                *
********************************************************************************


  Components of energy : 

--------------------------------------------------------------------------------
  Interatomic potentials     =        2074.75007917 eV
  Three-body potentials      =           0.37568450 eV
  Monopole - monopole (real) =       -6588.43032086 eV
  Monopole - monopole (recip)=       -3199.45948036 eV
  Monopole - monopole (total)=       -9787.88980122 eV
  Neutralising energy        =          -6.46838985 eV
--------------------------------------------------------------------------------
  Total lattice energy       =       -7719.23242740 eV
--------------------------------------------------------------------------------
  Total lattice energy       =         -744787.9300 kJ/(mole unit cells)
--------------------------------------------------------------------------------


  Number of variables =      939

  Maximum number of calculations  =          1000
  Maximum Hessian update interval =            10
  Maximum step size               =   0.010000000
  Maximum parameter tolerance     =   0.000010000
  Maximum function  tolerance     =   0.000010000
  Maximum gradient  tolerance     =   0.001000000
  Maximum gradient  component     =   0.010000000

  Symmetry not applied to optimisation

  Cell parameters to be optimised using strains

  RFO method to be used

  DFP hessian update to be used

  Dumpfile to be written after every cycle

  Start of bulk optimisation :

  Cycle:      0 Energy:     -7719.232427  Gnorm:      0.066788  CPU:    1.020
  ** Hessian has wrong structure
  ** Imaginary eigenvectors =   1
  ** Hessian has wrong structure
  ** Imaginary eigenvectors =   1
  Cycle:      1 Energy:     -7719.241139  Gnorm:      0.066780  CPU:    8.061
  ** Hessian has wrong structure
  ** Imaginary eigenvectors =   1
  ** Hessian has wrong structure
  ** Imaginary eigenvectors =   1
  Cycle:      2 Energy:     -7719.263874  Gnorm:      0.066829  CPU:   15.430
  ** Hessian has wrong structure
  ** Imaginary eigenvectors =   1
  ** Hessian has wrong structure
  ** Imaginary eigenvectors =   1
  Cycle:      3 Energy:     -7719.317474  Gnorm:      0.067419  CPU:   22.470
  ** Hessian has wrong structure
  ** Imaginary eigenvectors =   1
  Cycle:      4 Energy:     -7719.387840  Gnorm:      0.071788  CPU:   27.511
  ** Hessian has required structure
  Cycle:      5 Energy:     -7719.433986  Gnorm:      0.068215  CPU:   31.228
  ** Hessian has required structure
  Cycle:      6 Energy:     -7719.475155  Gnorm:      0.064828  CPU:   34.287
  ** Hessian has required structure
  Cycle:      7 Energy:     -7719.511391  Gnorm:      0.061594  CPU:   37.344
  ** Hessian has required structure
  Cycle:      8 Energy:     -7719.543427  Gnorm:      0.058517  CPU:   40.402
  ** Hessian has required structure
  Cycle:      9 Energy:     -7719.571866  Gnorm:      0.055592  CPU:   43.459
  ** Hessian has required structure
  Cycle:     10 Energy:     -7719.597183  Gnorm:      0.052813  CPU:   46.519
  ** Hessian has required structure
  Cycle:     11 Energy:     -7719.619768  Gnorm:      0.050172  CPU:   49.575
  ** Hessian has required structure
  Cycle:     12 Energy:     -7719.639946  Gnorm:      0.047662  CPU:   52.634
  ** Hessian has required structure
  Cycle:     13 Energy:     -7719.657998  Gnorm:      0.045278  CPU:   55.691
  ** Hessian has required structure
  Cycle:     14 Energy:     -7719.674163  Gnorm:      0.043013  CPU:   58.750
  ** Hessian has required structure
  Cycle:     15 Energy:     -7719.688586  Gnorm:      0.040867  CPU:   62.469
  ** Hessian has required structure
  Cycle:     16 Energy:     -7719.701586  Gnorm:      0.038829  CPU:   65.531
  ** Hessian has required structure
  Cycle:     17 Energy:     -7719.713253  Gnorm:      0.036891  CPU:   68.590
  ** Hessian has required structure
  Cycle:     18 Energy:     -7719.723728  Gnorm:      0.035049  CPU:   71.651
  ** Hessian has required structure
  Cycle:     19 Energy:     -7719.733137  Gnorm:      0.033299  CPU:   74.710
  ** Hessian has required structure
  Cycle:     20 Energy:     -7719.741592  Gnorm:      0.031636  CPU:   77.771
  ** Hessian has required structure
  Cycle:     21 Energy:     -7719.749192  Gnorm:      0.030056  CPU:   80.831
  ** Hessian has required structure
  Cycle:     22 Energy:     -7719.756025  Gnorm:      0.028555  CPU:   83.890
  ** Hessian has required structure
  Cycle:     23 Energy:     -7719.762172  Gnorm:      0.027128  CPU:   86.950
  ** Hessian has required structure
  Cycle:     24 Energy:     -7719.767701  Gnorm:      0.025773  CPU:   90.009
  ** Hessian has required structure
  Cycle:     25 Energy:     -7719.772663  Gnorm:      0.024487  CPU:   93.728
  ** Hessian has required structure
  Cycle:     26 Energy:     -7719.777143  Gnorm:      0.023264  CPU:   96.788
  ** Hessian has required structure
  Cycle:     27 Energy:     -7719.781175  Gnorm:      0.022102  CPU:   99.849
  ** Hessian has required structure
  Cycle:     28 Energy:     -7719.784805  Gnorm:      0.020998  CPU:  102.909
  ** Hessian has required structure
  Cycle:     29 Energy:     -7719.788073  Gnorm:      0.019949  CPU:  105.969
  ** Hessian has required structure
  Cycle:     30 Energy:     -7719.791017  Gnorm:      0.018952  CPU:  109.029
  ** Hessian has required structure
  Cycle:     31 Energy:     -7719.793668  Gnorm:      0.018005  CPU:  112.090
  ** Hessian has required structure
  Cycle:     32 Energy:     -7719.796057  Gnorm:      0.017105  CPU:  115.151
  ** Hessian has required structure
  Cycle:     33 Energy:     -7719.798208  Gnorm:      0.016251  CPU:  118.211
  ** Hessian has required structure
  Cycle:     34 Energy:     -7719.800146  Gnorm:      0.015439  CPU:  121.271
  ** Hessian has required structure
  Cycle:     35 Energy:     -7719.801890  Gnorm:      0.014668  CPU:  124.991
  ** Hessian has required structure
  Cycle:     36 Energy:     -7719.803464  Gnorm:      0.013935  CPU:  128.053
  ** Hessian has required structure
  Cycle:     37 Energy:     -7719.804883  Gnorm:      0.013239  CPU:  131.121
  ** Hessian has required structure
  Cycle:     38 Energy:     -7719.806162  Gnorm:      0.012577  CPU:  134.180
  ** Hessian has required structure
  Cycle:     39 Energy:     -7719.807314  Gnorm:      0.011949  CPU:  137.241
  ** Hessian has required structure
  Cycle:     40 Energy:     -7719.808353  Gnorm:      0.011351  CPU:  140.303
  ** Hessian has required structure
  Cycle:     41 Energy:     -7719.809290  Gnorm:      0.010784  CPU:  143.364
  ** Hessian has required structure
  Cycle:     42 Energy:     -7719.810134  Gnorm:      0.010245  CPU:  146.426
  ** Hessian has required structure
  Cycle:     43 Energy:     -7719.810895  Gnorm:      0.009733  CPU:  149.487
  ** Hessian has required structure
  Cycle:     44 Energy:     -7719.811582  Gnorm:      0.009247  CPU:  152.546
  ** Hessian has required structure
  Cycle:     45 Energy:     -7719.812199  Gnorm:      0.008785  CPU:  156.267
  ** Hessian has required structure
  Cycle:     46 Energy:     -7719.812758  Gnorm:      0.008346  CPU:  159.328
  ** Hessian has required structure
  Cycle:     47 Energy:     -7719.813261  Gnorm:      0.007929  CPU:  162.391
  ** Hessian has required structure
  Cycle:     48 Energy:     -7719.813715  Gnorm:      0.007532  CPU:  165.451
  ** Hessian has required structure
  Cycle:     49 Energy:     -7719.814124  Gnorm:      0.007156  CPU:  168.513
  ** Hessian has required structure
  Cycle:     50 Energy:     -7719.814493  Gnorm:      0.006798  CPU:  171.575
  ** Hessian has required structure
  Cycle:     51 Energy:     -7719.814826  Gnorm:      0.006458  CPU:  174.635
  ** Hessian has required structure
  Cycle:     52 Energy:     -7719.815126  Gnorm:      0.006136  CPU:  177.698
  ** Hessian has required structure
  Cycle:     53 Energy:     -7719.815397  Gnorm:      0.005829  CPU:  180.759
  ** Hessian has required structure
  Cycle:     54 Energy:     -7719.815642  Gnorm:      0.005538  CPU:  183.822
  ** Hessian has required structure
  Cycle:     55 Energy:     -7719.815862  Gnorm:      0.005261  CPU:  187.554
  ** Hessian has required structure
  Cycle:     56 Energy:     -7719.816060  Gnorm:      0.004998  CPU:  190.615
  ** Hessian has required structure
  Cycle:     57 Energy:     -7719.816240  Gnorm:      0.004748  CPU:  193.675
  ** Hessian has required structure
  Cycle:     58 Energy:     -7719.816401  Gnorm:      0.004511  CPU:  196.735
  ** Hessian has required structure
  Cycle:     59 Energy:     -7719.816547  Gnorm:      0.004285  CPU:  199.797
  ** Hessian has required structure
  Cycle:     60 Energy:     -7719.816627  Gnorm:      0.004157  CPU:  202.195
  ** Hessian has required structure
  Cycle:     61 Energy:     -7719.816691  Gnorm:      0.004051  CPU:  204.809
  ** Hessian has required structure
  Cycle:     62 Energy:     -7719.816746  Gnorm:      0.003958  CPU:  207.229
  ** Hessian has required structure
  Cycle:     63 Energy:     -7719.816796  Gnorm:      0.003871  CPU:  209.787
  ** Hessian has required structure
  Cycle:     64 Energy:     -7719.816842  Gnorm:      0.003789  CPU:  212.185
  ** Hessian has required structure
  Cycle:     65 Energy:     -7719.816904  Gnorm:      0.003676  CPU:  215.243
  ** Hessian has required structure
  Cycle:     66 Energy:     -7719.816954  Gnorm:      0.003582  CPU:  217.641
  ** Hessian has required structure
  Cycle:     67 Energy:     -7719.816997  Gnorm:      0.003500  CPU:  220.040
  ** Hessian has required structure
  Cycle:     68 Energy:     -7719.817036  Gnorm:      0.003423  CPU:  222.438
  ** Hessian has required structure
  Cycle:     69 Energy:     -7719.817072  Gnorm:      0.003351  CPU:  224.837
  ** Hessian has required structure
  Cycle:     70 Energy:     -7719.817106  Gnorm:      0.003281  CPU:  227.235
  ** Hessian has required structure
  Cycle:     71 Energy:     -7719.817138  Gnorm:      0.003214  CPU:  229.633
  ** Hessian has required structure
  Cycle:     72 Energy:     -7719.817169  Gnorm:      0.003148  CPU:  232.031
  ** Hessian has required structure
  Cycle:     73 Energy:     -7719.817198  Gnorm:      0.003083  CPU:  234.431
  ** Hessian has required structure
  Cycle:     74 Energy:     -7719.817226  Gnorm:      0.003020  CPU:  236.830
  ** Hessian has required structure
  Cycle:     75 Energy:     -7719.817266  Gnorm:      0.002930  CPU:  239.888
  ** Hessian has required structure
  Cycle:     76 Energy:     -7719.817297  Gnorm:      0.002855  CPU:  242.286
  ** Hessian has required structure
  Cycle:     77 Energy:     -7719.817325  Gnorm:      0.002789  CPU:  244.894
  ** Hessian has required structure
  Cycle:     78 Energy:     -7719.817349  Gnorm:      0.002728  CPU:  247.311
  ** Hessian has required structure
  Cycle:     79 Energy:     -7719.817372  Gnorm:      0.002671  CPU:  249.874
  ** Hessian has required structure
  Cycle:     80 Energy:     -7719.817394  Gnorm:      0.002615  CPU:  252.342
  ** Hessian has required structure
  Cycle:     81 Energy:     -7719.817414  Gnorm:      0.002561  CPU:  254.945
  ** Hessian has required structure
  Cycle:     82 Energy:     -7719.817434  Gnorm:      0.002509  CPU:  257.343
  ** Hessian has required structure
  Cycle:     83 Energy:     -7719.817452  Gnorm:      0.002457  CPU:  259.914
  ** Hessian has required structure
  Cycle:     84 Energy:     -7719.817470  Gnorm:      0.002407  CPU:  262.365
  ** Hessian has required structure
  Cycle:     85 Energy:     -7719.817495  Gnorm:      0.002335  CPU:  265.634
  ** Hessian has required structure
  Cycle:     86 Energy:     -7719.817515  Gnorm:      0.002275  CPU:  268.034
  ** Hessian has required structure
  Cycle:     87 Energy:     -7719.817533  Gnorm:      0.002223  CPU:  270.432
  ** Hessian has required structure
  Cycle:     88 Energy:     -7719.817548  Gnorm:      0.002175  CPU:  272.830
  ** Hessian has required structure
  Cycle:     89 Energy:     -7719.817563  Gnorm:      0.002129  CPU:  275.228
  ** Hessian has required structure
  Cycle:     90 Energy:     -7719.817576  Gnorm:      0.002084  CPU:  277.628
  ** Hessian has required structure
  Cycle:     91 Energy:     -7719.817589  Gnorm:      0.002041  CPU:  280.084
  ** Hessian has required structure
  Cycle:     92 Energy:     -7719.817602  Gnorm:      0.001999  CPU:  282.537
  ** Hessian has required structure
  Cycle:     93 Energy:     -7719.817614  Gnorm:      0.001958  CPU:  284.937
  ** Hessian has required structure
  Cycle:     94 Energy:     -7719.817625  Gnorm:      0.001918  CPU:  287.336
  ** Hessian has required structure
  Cycle:     95 Energy:     -7719.817641  Gnorm:      0.001861  CPU:  290.395
  ** Hessian has required structure
  Cycle:     96 Energy:     -7719.817654  Gnorm:      0.001814  CPU:  292.794
  ** Hessian has required structure
  Cycle:     97 Energy:     -7719.817665  Gnorm:      0.001772  CPU:  295.191
  ** Hessian has required structure
  Cycle:     98 Energy:     -7719.817675  Gnorm:      0.001733  CPU:  297.590
  ** Hessian has required structure
  Cycle:     99 Energy:     -7719.817684  Gnorm:      0.001696  CPU:  299.989
  ** Hessian has required structure
  Cycle:    100 Energy:     -7719.817692  Gnorm:      0.001661  CPU:  302.387
  ** Hessian has required structure
  Cycle:    101 Energy:     -7719.817701  Gnorm:      0.001627  CPU:  304.786
  ** Hessian has required structure
  Cycle:    102 Energy:     -7719.817709  Gnorm:      0.001593  CPU:  307.184
  ** Hessian has required structure
  Cycle:    103 Energy:     -7719.817716  Gnorm:      0.001561  CPU:  309.583
  ** Hessian has required structure
  Cycle:    104 Energy:     -7719.817723  Gnorm:      0.001529  CPU:  311.982
  ** Hessian has required structure
  Cycle:    105 Energy:     -7719.817733  Gnorm:      0.001483  CPU:  315.043
  ** Hessian has required structure
  Cycle:    106 Energy:     -7719.817742  Gnorm:      0.001445  CPU:  317.442
  ** Hessian has required structure
  Cycle:    107 Energy:     -7719.817748  Gnorm:      0.001412  CPU:  319.998
  ** Hessian has required structure
  Cycle:    108 Energy:     -7719.817755  Gnorm:      0.001381  CPU:  322.397
  ** Hessian has required structure
  Cycle:    109 Energy:     -7719.817761  Gnorm:      0.001352  CPU:  324.795
  ** Hessian has required structure
  Cycle:    110 Energy:     -7719.817766  Gnorm:      0.001324  CPU:  327.193
  ** Hessian has required structure
  Cycle:    111 Energy:     -7719.817771  Gnorm:      0.001297  CPU:  329.592
  ** Hessian has required structure
  Cycle:    112 Energy:     -7719.817776  Gnorm:      0.001270  CPU:  331.990
  ** Hessian has required structure
  Cycle:    113 Energy:     -7719.817781  Gnorm:      0.001244  CPU:  334.389
  ** Hessian has required structure
  Cycle:    114 Energy:     -7719.817786  Gnorm:      0.001219  CPU:  336.787
  ** Hessian has required structure
  Cycle:    115 Energy:     -7719.817792  Gnorm:      0.001182  CPU:  339.846
  ** Hessian has required structure
  Cycle:    116 Energy:     -7719.817797  Gnorm:      0.001152  CPU:  342.245
  ** Hessian has required structure
  Cycle:    117 Energy:     -7719.817802  Gnorm:      0.001125  CPU:  344.642
  ** Hessian has required structure
  Cycle:    118 Energy:     -7719.817806  Gnorm:      0.001101  CPU:  347.042
  ** Hessian has required structure
  Cycle:    119 Energy:     -7719.817809  Gnorm:      0.001078  CPU:  349.441
  ** Hessian has required structure
  Cycle:    120 Energy:     -7719.817813  Gnorm:      0.001055  CPU:  351.840
  ** Hessian has required structure
  Cycle:    121 Energy:     -7719.817816  Gnorm:      0.001033  CPU:  354.239
  ** Hessian has required structure
  Cycle:    122 Energy:     -7719.817819  Gnorm:      0.001012  CPU:  356.638
  ** Hessian has required structure
  Cycle:    123 Energy:     -7719.817822  Gnorm:      0.000991  CPU:  359.037
  ** Hessian has required structure
  Cycle:    124 Energy:     -7719.817825  Gnorm:      0.000971  CPU:  361.436
  ** Hessian has required structure
  Cycle:    125 Energy:     -7719.817829  Gnorm:      0.000942  CPU:  364.495
  ** Hessian has required structure
  Cycle:    126 Energy:     -7719.817833  Gnorm:      0.000918  CPU:  366.894
  ** Hessian has required structure
  Cycle:    127 Energy:     -7719.817835  Gnorm:      0.000897  CPU:  369.293
  ** Hessian has required structure
  Cycle:    128 Energy:     -7719.817838  Gnorm:      0.000877  CPU:  371.692
  ** Hessian has required structure
  Cycle:    129 Energy:     -7719.817840  Gnorm:      0.000859  CPU:  374.091
  ** Hessian has required structure
  Cycle:    130 Energy:     -7719.817843  Gnorm:      0.000841  CPU:  376.490
  ** Hessian has required structure
  Cycle:    131 Energy:     -7719.817845  Gnorm:      0.000824  CPU:  378.889
  ** Hessian has required structure
  Cycle:    132 Energy:     -7719.817847  Gnorm:      0.000807  CPU:  381.287
  ** Hessian has required structure
  Cycle:    133 Energy:     -7719.817849  Gnorm:      0.000790  CPU:  383.686
  ** Hessian has required structure
  Cycle:    134 Energy:     -7719.817850  Gnorm:      0.000774  CPU:  386.086
  ** Hessian has required structure
  Cycle:    135 Energy:     -7719.817853  Gnorm:      0.000751  CPU:  389.144
  ** Hessian has required structure
  Cycle:    136 Energy:     -7719.817855  Gnorm:      0.000732  CPU:  391.543
  ** Hessian has required structure
  Cycle:    137 Energy:     -7719.817857  Gnorm:      0.000715  CPU:  393.941
  ** Hessian has required structure
  Cycle:    138 Energy:     -7719.817858  Gnorm:      0.000699  CPU:  396.339
  ** Hessian has required structure
  Cycle:    139 Energy:     -7719.817860  Gnorm:      0.000684  CPU:  398.737
  ** Hessian has required structure
  Cycle:    140 Energy:     -7719.817861  Gnorm:      0.000670  CPU:  401.136
  ** Hessian has required structure
  Cycle:    141 Energy:     -7719.817863  Gnorm:      0.000656  CPU:  403.535
  ** Hessian has required structure
  Cycle:    142 Energy:     -7719.817864  Gnorm:      0.000643  CPU:  405.933
  ** Hessian has required structure
  Cycle:    143 Energy:     -7719.817865  Gnorm:      0.000630  CPU:  408.332
  ** Hessian has required structure
  Cycle:    144 Energy:     -7719.817866  Gnorm:      0.000617  CPU:  410.730
  ** Hessian has required structure
  Cycle:    145 Energy:     -7719.817868  Gnorm:      0.000598  CPU:  413.789
  ** Hessian has required structure
  Cycle:    146 Energy:     -7719.817869  Gnorm:      0.000583  CPU:  416.188
  ** Hessian has required structure
  Cycle:    147 Energy:     -7719.817870  Gnorm:      0.000570  CPU:  418.771
  ** Hessian has required structure
  Cycle:    148 Energy:     -7719.817872  Gnorm:      0.000557  CPU:  421.170
  ** Hessian has required structure
  Cycle:    149 Energy:     -7719.817872  Gnorm:      0.000546  CPU:  423.569
  ** Hessian has required structure
  Cycle:    150 Energy:     -7719.817873  Gnorm:      0.000534  CPU:  425.970
  ** Hessian has required structure
  Cycle:    151 Energy:     -7719.817874  Gnorm:      0.000523  CPU:  428.369
  ** Hessian has required structure
  Cycle:    152 Energy:     -7719.817875  Gnorm:      0.000512  CPU:  430.768
  ** Hessian has required structure
  Cycle:    153 Energy:     -7719.817876  Gnorm:      0.000502  CPU:  433.167
  ** Hessian has required structure
  Cycle:    154 Energy:     -7719.817877  Gnorm:      0.000492  CPU:  435.566
  ** Hessian has required structure
  Cycle:    155 Energy:     -7719.817878  Gnorm:      0.000477  CPU:  438.624
  ** Hessian has required structure
  Cycle:    156 Energy:     -7719.817878  Gnorm:      0.000465  CPU:  441.022
  ** Hessian has required structure
  Cycle:    157 Energy:     -7719.817879  Gnorm:      0.000454  CPU:  443.422
  ** Hessian has required structure
  Cycle:    158 Energy:     -7719.817880  Gnorm:      0.000444  CPU:  445.820
  ** Hessian has required structure
  Cycle:    159 Energy:     -7719.817880  Gnorm:      0.000435  CPU:  448.220
  ** Hessian has required structure
  Cycle:    160 Energy:     -7719.817881  Gnorm:      0.000426  CPU:  450.618
  ** Hessian has required structure
  Cycle:    161 Energy:     -7719.817881  Gnorm:      0.000417  CPU:  453.017
  ** Hessian has required structure
  Cycle:    162 Energy:     -7719.817882  Gnorm:      0.000408  CPU:  455.561
  ** Hessian has required structure
  Cycle:    163 Energy:     -7719.817882  Gnorm:      0.000400  CPU:  457.960
  ** Hessian has required structure
  Cycle:    164 Energy:     -7719.817883  Gnorm:      0.000392  CPU:  460.358
  ** Hessian has required structure
  Cycle:    165 Energy:     -7719.817884  Gnorm:      0.000380  CPU:  463.416
  ** Hessian has required structure
  Cycle:    166 Energy:     -7719.817884  Gnorm:      0.000370  CPU:  465.957
  ** Hessian has required structure
  Cycle:    167 Energy:     -7719.817885  Gnorm:      0.000362  CPU:  468.355
  ** Hessian has required structure
  Cycle:    168 Energy:     -7719.817885  Gnorm:      0.000354  CPU:  470.753
  ** Hessian has required structure
  Cycle:    169 Energy:     -7719.817885  Gnorm:      0.000347  CPU:  473.151
  ** Hessian has required structure
  Cycle:    170 Energy:     -7719.817886  Gnorm:      0.000339  CPU:  475.550
  ** Hessian has required structure
  Cycle:    171 Energy:     -7719.817886  Gnorm:      0.000332  CPU:  477.949
  ** Hessian has required structure
  Cycle:    172 Energy:     -7719.817886  Gnorm:      0.000325  CPU:  480.611
  ** Hessian has required structure
  Cycle:    173 Energy:     -7719.817887  Gnorm:      0.000319  CPU:  483.010
  ** Hessian has required structure
  Cycle:    174 Energy:     -7719.817887  Gnorm:      0.000312  CPU:  485.632
  ** Hessian has required structure
  Cycle:    175 Energy:     -7719.817887  Gnorm:      0.000303  CPU:  488.692
  ** Hessian has required structure
  Cycle:    176 Energy:     -7719.817888  Gnorm:      0.000295  CPU:  491.127
  ** Hessian has required structure
  Cycle:    177 Energy:     -7719.817888  Gnorm:      0.000288  CPU:  493.525
  ** Hessian has required structure
  Cycle:    178 Energy:     -7719.817888  Gnorm:      0.000282  CPU:  495.924
  ** Hessian has required structure
  Cycle:    179 Energy:     -7719.817889  Gnorm:      0.000276  CPU:  498.324
  ** Hessian has required structure
  Cycle:    180 Energy:     -7719.817889  Gnorm:      0.000270  CPU:  500.723
  ** Hessian has required structure
  Cycle:    181 Energy:     -7719.817889  Gnorm:      0.000265  CPU:  503.123
  ** Hessian has required structure
  Cycle:    182 Energy:     -7719.817889  Gnorm:      0.000259  CPU:  505.521
  ** Hessian has required structure
  Cycle:    183 Energy:     -7719.817889  Gnorm:      0.000254  CPU:  507.921
  ** Hessian has required structure
  Cycle:    184 Energy:     -7719.817890  Gnorm:      0.000249  CPU:  510.320
  ** Hessian has required structure
  Cycle:    185 Energy:     -7719.817890  Gnorm:      0.000241  CPU:  513.378
  ** Hessian has required structure
  Cycle:    186 Energy:     -7719.817890  Gnorm:      0.000235  CPU:  515.776
  ** Hessian has required structure
  Cycle:    187 Energy:     -7719.817890  Gnorm:      0.000230  CPU:  518.244
  ** Hessian has required structure
  Cycle:    188 Energy:     -7719.817890  Gnorm:      0.000225  CPU:  520.643
  ** Hessian has required structure
  Cycle:    189 Energy:     -7719.817891  Gnorm:      0.000220  CPU:  523.042
  ** Hessian has required structure
  Cycle:    190 Energy:     -7719.817891  Gnorm:      0.000216  CPU:  525.441
  ** Hessian has required structure
  Cycle:    191 Energy:     -7719.817891  Gnorm:      0.000211  CPU:  527.840
  ** Hessian has required structure
  Cycle:    192 Energy:     -7719.817891  Gnorm:      0.000207  CPU:  530.238
  ** Hessian has required structure
  Cycle:    193 Energy:     -7719.817891  Gnorm:      0.000203  CPU:  532.635
  ** Hessian has required structure
  Cycle:    194 Energy:     -7719.817891  Gnorm:      0.000198  CPU:  535.034
  ** Hessian has required structure
  Cycle:    195 Energy:     -7719.817891  Gnorm:      0.000192  CPU:  538.093
  ** Hessian has required structure
  Cycle:    196 Energy:     -7719.817892  Gnorm:      0.000188  CPU:  540.493
  ** Hessian has required structure
  Cycle:    197 Energy:     -7719.817892  Gnorm:      0.000183  CPU:  543.067
  ** Hessian has required structure
  Cycle:    198 Energy:     -7719.817892  Gnorm:      0.000179  CPU:  545.466
  ** Hessian has required structure
  Cycle:    199 Energy:     -7719.817892  Gnorm:      0.000175  CPU:  547.864
  ** Hessian has required structure
  Cycle:    200 Energy:     -7719.817892  Gnorm:      0.000172  CPU:  550.264
  ** Hessian has required structure
  Cycle:    201 Energy:     -7719.817892  Gnorm:      0.000168  CPU:  552.662
  ** Hessian has required structure
  Cycle:    202 Energy:     -7719.817892  Gnorm:      0.000165  CPU:  555.060
  ** Hessian has required structure
  Cycle:    203 Energy:     -7719.817892  Gnorm:      0.000161  CPU:  557.460
  ** Hessian has required structure
  Cycle:    204 Energy:     -7719.817892  Gnorm:      0.000158  CPU:  559.859
  ** Hessian has required structure
  Cycle:    205 Energy:     -7719.817892  Gnorm:      0.000153  CPU:  562.916
  ** Hessian has required structure
  Cycle:    206 Energy:     -7719.817893  Gnorm:      0.000149  CPU:  565.314
  ** Hessian has required structure
  Cycle:    207 Energy:     -7719.817893  Gnorm:      0.000146  CPU:  567.713
  ** Hessian has required structure
  Cycle:    208 Energy:     -7719.817893  Gnorm:      0.000143  CPU:  570.111
  ** Hessian has required structure
  Cycle:    209 Energy:     -7719.817893  Gnorm:      0.000140  CPU:  572.510
  ** Hessian has required structure
  Cycle:    210 Energy:     -7719.817893  Gnorm:      0.000137  CPU:  574.908
  ** Hessian has required structure
  Cycle:    211 Energy:     -7719.817893  Gnorm:      0.000134  CPU:  577.306
  ** Hessian has required structure
  Cycle:    212 Energy:     -7719.817893  Gnorm:      0.000131  CPU:  579.704
  ** Hessian has required structure
  Cycle:    213 Energy:     -7719.817893  Gnorm:      0.000129  CPU:  582.103
  ** Hessian has required structure
  Cycle:    214 Energy:     -7719.817893  Gnorm:      0.000126  CPU:  584.502
  ** Hessian has required structure
  Cycle:    215 Energy:     -7719.817893  Gnorm:      0.000122  CPU:  587.561
  ** Hessian has required structure
  Cycle:    216 Energy:     -7719.817893  Gnorm:      0.000119  CPU:  589.961
  ** Hessian has required structure
  Cycle:    217 Energy:     -7719.817893  Gnorm:      0.000116  CPU:  592.361
  ** Hessian has required structure
  Cycle:    218 Energy:     -7719.817893  Gnorm:      0.000114  CPU:  594.759
  ** Hessian has required structure
  Cycle:    219 Energy:     -7719.817893  Gnorm:      0.000111  CPU:  597.158
  ** Hessian has required structure
  Cycle:    220 Energy:     -7719.817893  Gnorm:      0.000109  CPU:  599.557
  ** Hessian has required structure
  Cycle:    221 Energy:     -7719.817893  Gnorm:      0.000107  CPU:  601.955
  ** Hessian has required structure
  Cycle:    222 Energy:     -7719.817893  Gnorm:      0.000105  CPU:  604.353
  ** Hessian has required structure
  Cycle:    223 Energy:     -7719.817893  Gnorm:      0.000103  CPU:  606.751
  ** Hessian has required structure
  Cycle:    224 Energy:     -7719.817893  Gnorm:      0.000100  CPU:  609.149
  ** Hessian has required structure
  Cycle:    225 Energy:     -7719.817893  Gnorm:      0.000097  CPU:  612.207
  ** Hessian has required structure
  Cycle:    226 Energy:     -7719.817894  Gnorm:      0.000095  CPU:  614.605
  ** Hessian has required structure
  Cycle:    227 Energy:     -7719.817894  Gnorm:      0.000093  CPU:  617.004
  ** Hessian has required structure
  Cycle:    228 Energy:     -7719.817894  Gnorm:      0.000091  CPU:  619.405
  ** Hessian has required structure
  Cycle:    229 Energy:     -7719.817894  Gnorm:      0.000089  CPU:  621.803
  ** Hessian has required structure
  Cycle:    230 Energy:     -7719.817894  Gnorm:      0.000087  CPU:  624.203
  ** Hessian has required structure
  Cycle:    231 Energy:     -7719.817894  Gnorm:      0.000085  CPU:  626.602
  ** Hessian has required structure
  Cycle:    232 Energy:     -7719.817894  Gnorm:      0.000083  CPU:  629.000
  ** Hessian has required structure
  Cycle:    233 Energy:     -7719.817894  Gnorm:      0.000082  CPU:  631.401
  ** Hessian has required structure
  Cycle:    234 Energy:     -7719.817894  Gnorm:      0.000080  CPU:  633.799
  ** Hessian has required structure
  Cycle:    235 Energy:     -7719.817894  Gnorm:      0.000078  CPU:  636.857
  ** Hessian has required structure
  Cycle:    236 Energy:     -7719.817894  Gnorm:      0.000076  CPU:  639.255
  ** Hessian has required structure
  Cycle:    237 Energy:     -7719.817894  Gnorm:      0.000074  CPU:  641.826
  ** Hessian has required structure
  Cycle:    238 Energy:     -7719.817894  Gnorm:      0.000072  CPU:  644.224
  ** Hessian has required structure
  Cycle:    239 Energy:     -7719.817894  Gnorm:      0.000071  CPU:  646.624
  ** Hessian has required structure
  Cycle:    240 Energy:     -7719.817894  Gnorm:      0.000069  CPU:  649.023
  ** Hessian has required structure
  Cycle:    241 Energy:     -7719.817894  Gnorm:      0.000068  CPU:  651.423
  ** Hessian has required structure
  Cycle:    242 Energy:     -7719.817894  Gnorm:      0.000067  CPU:  653.821
  ** Hessian has required structure
  Cycle:    243 Energy:     -7719.817894  Gnorm:      0.000065  CPU:  656.219
  ** Hessian has required structure
  Cycle:    244 Energy:     -7719.817894  Gnorm:      0.000064  CPU:  658.617
  ** Hessian has required structure
  Cycle:    245 Energy:     -7719.817894  Gnorm:      0.000062  CPU:  661.675
  ** Hessian has required structure
  Cycle:    246 Energy:     -7719.817894  Gnorm:      0.000060  CPU:  664.074
  ** Hessian has required structure
  Cycle:    247 Energy:     -7719.817894  Gnorm:      0.000059  CPU:  666.473
  ** Hessian has required structure
  Cycle:    248 Energy:     -7719.817894  Gnorm:      0.000058  CPU:  668.872
  ** Hessian has required structure
  Cycle:    249 Energy:     -7719.817894  Gnorm:      0.000056  CPU:  671.270
  ** Hessian has required structure
  Cycle:    250 Energy:     -7719.817894  Gnorm:      0.000055  CPU:  673.670
  ** Hessian has required structure
  Cycle:    251 Energy:     -7719.817894  Gnorm:      0.000054  CPU:  676.067
  ** Hessian has required structure
  Cycle:    252 Energy:     -7719.817894  Gnorm:      0.000053  CPU:  678.466
  ** Hessian has required structure
  Cycle:    253 Energy:     -7719.817894  Gnorm:      0.000052  CPU:  680.865
  ** Hessian has required structure
  Cycle:    254 Energy:     -7719.817894  Gnorm:      0.000051  CPU:  683.265
  ** Hessian has required structure
  Cycle:    255 Energy:     -7719.817894  Gnorm:      0.000049  CPU:  686.324
  ** Hessian has required structure
  Cycle:    256 Energy:     -7719.817894  Gnorm:      0.000048  CPU:  688.723
  ** Hessian has required structure
  Cycle:    257 Energy:     -7719.817894  Gnorm:      0.000047  CPU:  691.261
  ** Hessian has required structure
  Cycle:    258 Energy:     -7719.817894  Gnorm:      0.000046  CPU:  693.659
  ** Hessian has required structure
  Cycle:    259 Energy:     -7719.817894  Gnorm:      0.000045  CPU:  696.059
  ** Hessian has required structure
  Cycle:    260 Energy:     -7719.817894  Gnorm:      0.000044  CPU:  698.457
  ** Hessian has required structure


  **** Too many failed attempts to optimise ****

  Final energy =   -7719.81789404 eV
  Final Gnorm  =       0.00004316

  Components of energy : 

--------------------------------------------------------------------------------
  Interatomic potentials     =        2061.69296441 eV
  Three-body potentials      =           0.44109435 eV
  Monopole - monopole (real) =       -6584.07990500 eV
  Monopole - monopole (recip)=       -3191.41991113 eV
  Monopole - monopole (total)=       -9775.49981613 eV
  Neutralising energy        =          -6.45213667 eV
--------------------------------------------------------------------------------
  Total lattice energy       =       -7719.81789404 eV
--------------------------------------------------------------------------------
  Total lattice energy       =         -744844.4186 kJ/(mole unit cells)
--------------------------------------------------------------------------------

  Final fractional coordinates of atoms :

--------------------------------------------------------------------------------
   No.  Atomic        x           y          z          Radius
        Label       (Frac)      (Frac)     (Frac)       (Angs) 
--------------------------------------------------------------------------------
     1  Ge    c     0.699600    0.375700    0.033890    0.000000
     2  Si    c     0.624278    0.321803    0.366941    0.000000
     3  Si    c     0.677881    0.282868    0.692819    0.000000
     4  Si    c     0.301526    0.614146    0.531917    0.000000
     5  Si    c     0.383560    0.667524    0.864491    0.000000
     6  Si    c     0.336662    0.714802    0.199787    0.000000
     7  Si    c     0.386165    0.703968    0.299826    0.000000
     8  Si    c     0.328616    0.612866    0.966360    0.000000
     9  Si    c     0.297848    0.663789    0.632292    0.000000
    10  Si    c     0.630222    0.289344    0.793071    0.000000
    11  Si    c     0.678357    0.374182    0.466680    0.000000
    12  Si    c     0.703548    0.323338    0.138557    0.000000
    13  Ge    c     0.528084    0.415774    0.961663    0.000000
    14  Si    c     0.585058    0.111243    0.303742    0.000000
    15  Si    c     0.889935    0.460086    0.630361    0.000000
    16  Si    c     0.473279    0.577933    0.466800    0.000000
    17  Si    c     0.425117    0.880653    0.798302    0.000000
    18  Si    c     0.131319    0.535849    0.134653    0.000000
    19  Si    c     0.422003    0.528908    0.365434    0.000000
    20  Si    c     0.118834    0.579319    0.031029    0.000000
    21  Si    c     0.470240    0.871866    0.697165    0.000000
    22  Ge    c     0.590418    0.452970    0.861983    0.000000
    23  Si    c     0.891505    0.411140    0.529426    0.000000
    24  Si    c     0.531821    0.119890    0.203072    0.000000
    25  Si    c     0.301433    0.384565    0.848323    0.000000
    26  Si    c     0.613065    0.917584    0.185316    0.000000
    27  Si    c     0.099547    0.691785    0.516156    0.000000
    28  Si    c     0.703067    0.601019    0.351767    0.000000
    29  Si    c     0.399495    0.083724    0.681888    0.000000
    30  Si    c     0.904672    0.293983    0.015252    0.000000
    31  Si    c     0.401328    0.296231    0.481212    0.000000
    32  Si    c     0.915049    0.604756    0.149432    0.000000
    33  Si    c     0.704749    0.085771    0.810232    0.000000
    34  Si    c     0.612840    0.693595    0.984124    0.000000
    35  Si    c     0.097069    0.385979    0.646206    0.000000
    36  Si    c     0.306421    0.902607    0.316447    0.000000
    37  Si    c     0.249617    0.323433    0.950698    0.000000
    38  Si    c     0.665735    0.912965    0.286045    0.000000
    39  Si    c     0.089752    0.737891    0.616485    0.000000
    40  Si    c     0.751795    0.656146    0.452243    0.000000
    41  Si    c     0.348051    0.084298    0.782510    0.000000
    42  Ge    c     0.918371    0.271434    0.115229    0.000000
    43  Si    c     0.343055    0.248436    0.380814    0.000000
    44  Si    c     0.919974    0.664359    0.046774    0.000000
    45  Si    c     0.749244    0.071990    0.709965    0.000000
    46  Si    c     0.670259    0.737473    0.881332    0.000000
    47  Si    c     0.092919    0.333107    0.545913    0.000000
    48  Si    c     0.255577    0.917204    0.216457    0.000000
    49  Si    c     0.967481    0.115964    0.964110    0.000000
    50  Si    c     0.883023    0.848518    0.300335    0.000000
    51  Si    c     0.151376    0.017220    0.631684    0.000000
    52  Si    c     0.030570    0.873539    0.465883    0.000000
    53  Si    c     0.123131    0.139104    0.798303    0.000000
    54  Si    c     0.860607    0.986225    0.133753    0.000000
    55  Si    c     0.125188    0.969348    0.365575    0.000000
    56  Si    c     0.853952    0.883000    0.034094    0.000000
    57  Si    c     0.029162    0.136317    0.697139    0.000000
    58  Si    c     0.883295    0.019199    0.863582    0.000000
    59  Si    c     0.154011    0.114488    0.530970    0.000000
    60  Si    c     0.976001    0.853194    0.199256    0.000000
    61  O2    c     0.926680    0.998711    0.998768    0.000000
    62  O2    c     0.006499    0.929065    0.331735    0.000000
    63  O2    c     0.073767    0.058136    0.665368    0.000000
    64  O2    c     0.074116    0.994251    0.498566    0.000000
    65  O2    c     0.005726    0.055105    0.832033    0.000000
    66  O2    c     0.931790    0.929980    0.166125    0.000000
    67  O2    c     0.347115    0.579066    0.332244    0.000000
    68  O2    c     0.419216    0.745603    0.665734    0.000000
    69  O2    c     0.242849    0.651530    0.997728    0.000000
    70  O3    c     0.672118    0.415407    0.821931    0.000000
    71  O2    c     0.581440    0.249905    0.172748    0.000000
    72  O2    c     0.765457    0.334355    0.498084    0.000000
    73  O1    c     0.571765    0.332748    0.000808    0.000000
    74  O2    c     0.760940    0.406905    0.660660    0.000000
    75  O2    c     0.662934    0.235588    0.335771    0.000000
    76  O2    c     0.424160    0.653552    0.499460    0.000000
    77  O2    c     0.260070    0.597002    0.165026    0.000000
    78  O2    c     0.349989    0.756624    0.832021    0.000000
    79  O2    c     0.119671    0.204211    0.969734    0.000000
    80  O2    c     0.791903    0.911836    0.306117    0.000000
    81  O2    c     0.087981    0.862938    0.636690    0.000000
    82  O2    c     0.877293    0.782296    0.472055    0.000000
    83  O2    c     0.222529    0.084442    0.803058    0.000000
    84  O3    c     0.927647    0.134976    0.137914    0.000000
    85  O2    c     0.216754    0.123754    0.360859    0.000000
    86  O2    c     0.921772    0.794449    0.029181    0.000000
    87  O2    c     0.875399    0.071097    0.690555    0.000000
    88  O2    c     0.789210    0.866314    0.859880    0.000000
    89  O2    c     0.092233    0.207439    0.525376    0.000000
    90  O2    c     0.130375    0.919024    0.195992    0.000000
    91  O2    c     0.930669    0.858504    0.249504    0.000000
    92  O2    c     0.138451    0.060237    0.581569    0.000000
    93  O2    c     0.931470    0.059181    0.914148    0.000000
    94  O2    c     0.067023    0.123152    0.748190    0.000000
    95  O2    c     0.865348    0.934547    0.083921    0.000000
    96  O2    c     0.067681    0.928035    0.415466    0.000000
    97  O2    c     0.903672    0.204795    0.973242    0.000000
    98  O2    c     0.802013    0.697450    0.313748    0.000000
    99  O2    c     0.302208    0.084545    0.643663    0.000000
   100  O2    c     0.101247    0.791070    0.477717    0.000000
   101  O2    c     0.197538    0.290387    0.811016    0.000000
   102  O2    c     0.708418    0.920727    0.146438    0.000000
   103  O2    c     0.207954    0.899299    0.354896    0.000000
   104  O2    c     0.703332    0.800161    0.020964    0.000000
   105  O2    c     0.097154    0.287881    0.684924    0.000000
   106  O2    c     0.805399    0.091666    0.848409    0.000000
   107  O2    c     0.305167    0.196046    0.519312    0.000000
   108  O2    c     0.914518    0.702814    0.186443    0.000000
   109  O2    c     0.331247    0.650202    0.249389    0.000000
   110  O2    c     0.356929    0.667034    0.582465    0.000000
   111  O2    c     0.332457    0.666938    0.915235    0.000000
   112  O2    c     0.682033    0.341288    0.742335    0.000000
   113  O3    c     0.648224    0.325799    0.089043    0.000000
   114  O2    c     0.679967    0.318476    0.416994    0.000000
   115  O3    c     0.361522    0.304425    0.970387    0.000000
   116  O2    c     0.672819    0.041962    0.306299    0.000000
   117  O2    c     0.957679    0.615869    0.634741    0.000000
   118  O2    c     0.628803    0.665504    0.470211    0.000000
   119  O2    c     0.339302    0.951752    0.801824    0.000000
   120  O3    c     0.067028    0.384123    0.139767    0.000000
   121  O2    c     0.334148    0.372936    0.362912    0.000000
   122  O2    c     0.051787    0.669169    0.029893    0.000000
   123  O2    c     0.625887    0.938898    0.693629    0.000000
   124  O3    c     0.686303    0.622013    0.862937    0.000000
   125  O2    c     0.961254    0.323915    0.527123    0.000000
   126  O2    c     0.376304    0.051907    0.199537    0.000000
   127  O3    c     0.772214    0.293343    0.010726    0.000000
   128  O2    c     0.700817    0.465439    0.344619    0.000000
   129  O2    c     0.533311    0.214736    0.672154    0.000000
   130  O2    c     0.233547    0.691204    0.509887    0.000000
   131  O2    c     0.306490    0.523160    0.844598    0.000000
   132  O2    c     0.479737    0.783867    0.178375    0.000000
   133  O2    c     0.309169    0.768998    0.323208    0.000000
   134  O2    c     0.472157    0.684489    0.987051    0.000000
   135  O2    c     0.229616    0.519637    0.654481    0.000000
   136  O2    c     0.703439    0.219309    0.816782    0.000000
   137  O2    c     0.536231    0.297723    0.489444    0.000000
   138  O2    c     0.784776    0.470493    0.157588    0.000000
   139  O3    c     0.801863    0.541051    0.026625    0.000000
   140  O2    c     0.468875    0.249029    0.361394    0.000000
   141  O2    c     0.747967    0.196380    0.688567    0.000000
   142  O2    c     0.219321    0.458635    0.527174    0.000000
   143  O2    c     0.536109    0.723247    0.862875    0.000000
   144  O2    c     0.258056    0.793638    0.195747    0.000000
   145  O2    c     0.541730    0.783831    0.304372    0.000000
   146  O2    c     0.261765    0.458154    0.968272    0.000000
   147  O2    c     0.216254    0.739041    0.636561    0.000000
   148  O2    c     0.473831    0.211366    0.800839    0.000000
   149  O2    c     0.752888    0.530118    0.472298    0.000000
   150  O3    c     0.777411    0.242388    0.143696    0.000000
   151  O2    c     0.239485    0.314633    0.895892    0.000000
   152  O2    c     0.685726    0.919299    0.232013    0.000000
   153  O2    c     0.092224    0.759350    0.562398    0.000000
   154  O2    c     0.771607    0.673757    0.398174    0.000000
   155  O2    c     0.328914    0.084591    0.728372    0.000000
   156  O3    c     0.915717    0.219783    0.058958    0.000000
   157  O2    c     0.327193    0.227520    0.435001    0.000000
   158  O2    c     0.914062    0.667366    0.101012    0.000000
   159  O2    c     0.771618    0.077740    0.763977    0.000000
   160  O2    c     0.681441    0.754493    0.935491    0.000000
   161  O2    c     0.094171    0.312944    0.600096    0.000000
   162  O2    c     0.235063    0.910073    0.270609    0.000000
   163  O3    c     0.604981    0.560649    0.995258    0.000000
   164  O2    c     0.444281    0.027006    0.326625    0.000000
   165  O2    c     0.971292    0.399867    0.654615    0.000000
   166  O2    c     0.414635    0.435703    0.489889    0.000000
   167  O2    c     0.567194    0.959586    0.820700    0.000000
   168  O2    c     0.040560    0.589536    0.155270    0.000000
   169  O2    c     0.563426    0.586498    0.343112    0.000000
   170  O2    c     0.028158    0.439427    0.009257    0.000000
   171  O2    c     0.412259    0.956775    0.674475    0.000000
   172  O3    c     0.438304    0.401473    0.837934    0.000000
   173  O2    c     0.976418    0.552782    0.506605    0.000000
   174  O2    c     0.589461    0.038571    0.178556    0.000000
   175  O2    c     0.584244    0.168240    0.253801    0.000000
   176  O2    c     0.838382    0.410668    0.579760    0.000000
   177  O1    c     0.597117    0.388673    0.912619    0.000000
   178  O2    c     0.420203    0.822040    0.748498    0.000000
   179  O2    c     0.171383    0.578388    0.081572    0.000000
   180  O2    c     0.421083    0.580702    0.416089    0.000000
   181  F     c     0.455061    0.907389    0.252443    0.000000
   182  F     c     0.097599    0.538836    0.582250    0.000000
   183  F     c     0.479476    0.511030    0.921656    0.000000
   184  F     c     0.550297    0.083026    0.747484    0.000000
   185  F     c     0.909320    0.416376    0.087457    0.000000
   186  F     c     0.552080    0.448348    0.417461    0.000000
   187  O2    s     0.923047    0.998923    0.998815    0.000000
   188  O2    s     0.006030    0.924625    0.332025    0.000000
   189  O2    s     0.077422    0.062386    0.665186    0.000000
   190  O2    s     0.078233    0.994285    0.498561    0.000000
   191  O2    s     0.005311    0.060403    0.831759    0.000000
   192  O2    s     0.929434    0.926941    0.166572    0.000000
   193  O2    s     0.358901    0.586603    0.332373    0.000000
   194  O2    s     0.412192    0.750398    0.665594    0.000000
   195  O2    s     0.239337    0.640219    0.997777    0.000000
   196  O3    s     0.661573    0.405514    0.822085    0.000000
   197  O2    s     0.588418    0.243849    0.172459    0.000000
   198  O2    s     0.769739    0.346509    0.498143    0.000000
   199  O1    s     0.579852    0.342109    0.001010    0.000000
   200  O2    s     0.765524    0.399352    0.660921    0.000000
   201  O2    s     0.650828    0.231713    0.335716    0.000000
   202  O2    s     0.416450    0.641756    0.499510    0.000000
   203  O2    s     0.254311    0.602719    0.165408    0.000000
   204  O2    s     0.361119    0.759598    0.832101    0.000000
   205  O2    s     0.117025    0.207549    0.967022    0.000000
   206  O2    s     0.788610    0.905185    0.303454    0.000000
   207  O2    s     0.094939    0.866479    0.634088    0.000000
   208  O2    s     0.880612    0.779014    0.469404    0.000000
   209  O2    s     0.224978    0.090212    0.800468    0.000000
   210  O3    s     0.919357    0.126735    0.135995    0.000000
   211  O2    s     0.220135    0.120369    0.363389    0.000000
   212  O2    s     0.914647    0.789912    0.031501    0.000000
   213  O2    s     0.878530    0.078037    0.693232    0.000000
   214  O2    s     0.787021    0.869514    0.862503    0.000000
   215  O2    s     0.098933    0.210626    0.528099    0.000000
   216  O2    s     0.127045    0.911846    0.198448    0.000000
   217  O2    s     0.930353    0.856785    0.249655    0.000000
   218  O2    s     0.141662    0.061418    0.581600    0.000000
[...]
     58 Si    c      -0.000171     -0.000164     -0.003344      0.000000
     59 Si    c       0.000138     -0.000070      0.000833      0.000000
     60 Si    c       0.000056      0.000014      0.001331      0.000000
     61 O2    c      -0.000305     -0.000145     -0.001387      0.000000
     62 O2    c       0.000141     -0.000595      0.001056      0.000000
     63 O2    c       0.000104      0.000211      0.000547      0.000000
     64 O2    c       0.000546     -0.000085      0.000296      0.000000
     65 O2    c      -0.000200      0.000608     -0.001109      0.000000
     66 O2    c      -0.000440      0.000377      0.001433      0.000000
     67 O2    c      -0.000731      0.000001      0.000213      0.000000
     68 O2    c       0.000180     -0.000109     -0.000178      0.000000
     69 O2    c      -0.000074      0.001115      0.000064      0.000000
     70 O3    c       0.000837     -0.000414     -0.002074      0.000000
     71 O2    c      -0.000085     -0.000256      0.001003      0.000000
     72 O2    c      -0.000190     -0.000761     -0.000224      0.000000
     73 O1    c      -0.004837      0.000637     -0.005067      0.000000
     74 O2    c      -0.000109      0.000374      0.000370      0.000000
     75 O2    c       0.001141     -0.000349     -0.000695      0.000000
     76 O2    c       0.000245      0.000477      0.000322      0.000000
     77 O2    c      -0.000356     -0.000428     -0.000553      0.000000
     78 O2    c      -0.001039     -0.000247     -0.001700      0.000000
     79 O2    c      -0.000357      0.000364     -0.000663      0.000000
     80 O2    c       0.000131      0.000268     -0.000031      0.000000
     81 O2    c      -0.000705      0.000337      0.000982      0.000000
     82 O2    c       0.000538     -0.000288      0.001627      0.000000
     83 O2    c      -0.000323     -0.000616     -0.000165      0.000000
     84 O3    c       0.000488      0.000087      0.005787      0.000000
     85 O2    c       0.000302     -0.000550     -0.000299      0.000000
     86 O2    c       0.000010     -0.000143     -0.000233      0.000000
     87 O2    c       0.000225     -0.000629      0.000120      0.000000
     88 O2    c      -0.000223      0.000250     -0.002116      0.000000
     89 O2    c      -0.000152     -0.000330      0.000606      0.000000
     90 O2    c      -0.000235      0.000557     -0.000289      0.000000
     91 O2    c      -0.000248      0.000585      0.000512      0.000000
     92 O2    c      -0.000814      0.000648     -0.000820      0.000000
     93 O2    c       0.000095      0.000214      0.002045      0.000000
     94 O2    c       0.000644     -0.000661      0.001116      0.000000
     95 O2    c       0.000830     -0.000941     -0.001932      0.000000
     96 O2    c       0.000320     -0.000340      0.000343      0.000000
     97 O2    c      -0.000711      0.000312     -0.000661      0.000000
     98 O2    c       0.000215      0.000131      0.001406      0.000000
     99 O2    c      -0.000453      0.000823     -0.000960      0.000000
    100 O2    c       0.000612     -0.000514      0.000661      0.000000
    101 O2    c       0.000490      0.000146      0.000843      0.000000
    102 O2    c      -0.000065     -0.000794      0.000060      0.000000
    103 O2    c       0.000336     -0.000519      0.000326      0.000000
    104 O2    c       0.000101     -0.000498     -0.001185      0.000000
    105 O2    c       0.000826     -0.000435      0.001919      0.000000
    106 O2    c      -0.000389      0.000186     -0.003012      0.000000
    107 O2    c      -0.000101     -0.000160     -0.000209      0.000000
    108 O2    c      -0.000761      0.000187      0.002447      0.000000
    109 O2    c      -0.000412     -0.000367      0.000610      0.000000
    110 O2    c       0.000334      0.000275     -0.000338      0.000000
    111 O2    c      -0.000119     -0.000024     -0.000495      0.000000
    112 O2    c       0.000391      0.000247     -0.000692      0.000000
    113 O3    c      -0.000369     -0.000185     -0.001484      0.000000
    114 O2    c       0.000121     -0.000175     -0.001187      0.000000
    115 O3    c      -0.000262      0.000058     -0.000576      0.000000
    116 O2    c       0.000210      0.000681      0.000302      0.000000
    117 O2    c      -0.000017     -0.000119      0.000272      0.000000
    118 O2    c      -0.000059      0.000633      0.000732      0.000000
    119 O2    c      -0.000045     -0.001012     -0.000957      0.000000
    120 O3    c       0.001736     -0.000849      0.008973      0.000000
    121 O2    c      -0.000636      0.000015      0.000036      0.000000
    122 O2    c       0.001004      0.000030      0.000198      0.000000
    123 O2    c      -0.000187      0.000086      0.001094      0.000000
    124 O3    c      -0.000310      0.001084     -0.001409      0.000000
    125 O2    c      -0.000785     -0.000110      0.000615      0.000000
    126 O2    c       0.000315     -0.000065      0.000345      0.000000
    127 O3    c       0.000264     -0.001363     -0.004539      0.000000
    128 O2    c       0.000495      0.000488      0.000315      0.000000
    129 O2    c      -0.000426      0.000546      0.000949      0.000000
    130 O2    c       0.000207      0.000705      0.000724      0.000000
    131 O2    c      -0.000623     -0.000399     -0.000941      0.000000
    132 O2    c       0.000161     -0.000531     -0.000068      0.000000
    133 O2    c      -0.000686     -0.000239      0.000821      0.000000
    134 O2    c       0.000556      0.000618      0.000041      0.000000
    135 O2    c       0.000460     -0.000320      0.000041      0.000000
    136 O2    c       0.000791      0.000172     -0.001386      0.000000
    137 O2    c      -0.000380     -0.000523      0.000091      0.000000
    138 O2    c      -0.000261      0.000444      0.000843      0.000000
    139 O3    c      -0.001653      0.002201     -0.003872      0.000000
    140 O2    c       0.000582     -0.000429      0.000510      0.000000
    141 O2    c       0.000142     -0.000041      0.001015      0.000000
    142 O2    c      -0.000087      0.000029      0.001636      0.000000
    143 O2    c      -0.000147      0.000940     -0.001008      0.000000
    144 O2    c       0.000023      0.000050     -0.000266      0.000000
    145 O2    c      -0.000073      0.000215     -0.000233      0.000000
    146 O2    c      -0.000815      0.000230     -0.000990      0.000000
    147 O2    c      -0.000232      0.000083     -0.000090      0.000000
    148 O2    c      -0.000063     -0.000311     -0.001067      0.000000
    149 O2    c       0.000417     -0.000553      0.000340      0.000000
    150 O3    c       0.000115     -0.000403      0.010511      0.000000
    151 O2    c      -0.000447     -0.000389      0.000099      0.000000
    152 O2    c       0.000563     -0.000205     -0.001943      0.000000
    153 O2    c      -0.000606      0.000480     -0.000387      0.000000
    154 O2    c       0.000223      0.000223     -0.000076      0.000000
    155 O2    c      -0.000465     -0.000086     -0.000909      0.000000
    156 O3    c       0.000496     -0.000335     -0.006241      0.000000
    157 O2    c      -0.000253     -0.000239      0.000115      0.000000
    158 O2    c      -0.000071      0.000725      0.001298      0.000000
    159 O2    c       0.000321     -0.000472      0.001351      0.000000
    160 O2    c       0.000333      0.000402      0.000199      0.000000
    161 O2    c       0.000089     -0.000388      0.000868      0.000000
    162 O2    c      -0.000468      0.000551      0.000155      0.000000
    163 O3    c       0.000115     -0.000667      0.001571      0.000000
    164 O2    c       0.000350     -0.000243      0.000485      0.000000
    165 O2    c       0.000654     -0.000665      0.000385      0.000000
    166 O2    c       0.000244      0.000022      0.000660      0.000000
    167 O2    c      -0.000124      0.000167     -0.002291      0.000000
    168 O2    c      -0.000464      0.000587     -0.000269      0.000000
    169 O2    c       0.000041     -0.000231      0.000242      0.000000
    170 O2    c      -0.000058      0.000180     -0.000109      0.000000
    171 O2    c      -0.000593      0.000674      0.000442      0.000000
    172 O3    c      -0.000744      0.000569     -0.002728      0.000000
    173 O2    c       0.000080     -0.000201      0.000939      0.000000
    174 O2    c       0.000634     -0.000485      0.000457      0.000000
    175 O2    c      -0.000103      0.000773     -0.002011      0.000000
    176 O2    c      -0.000712      0.000111     -0.000391      0.000000
    177 O1    c      -0.000927      0.001602      0.004383      0.000000
    178 O2    c       0.000256     -0.000673      0.000672      0.000000
    179 O2    c       0.000609     -0.000035     -0.001097      0.000000
    180 O2    c      -0.000094      0.000026     -0.000765      0.000000
    181 F     c      -0.000006     -0.000006     -0.000660      0.000000
    182 F     c       0.000127     -0.000007      0.000840      0.000000
    183 F     c      -0.001230      0.001223      0.000928      0.000000
    184 F     c       0.000013      0.000294      0.000050      0.000000
    185 F     c       0.000799     -0.001073      0.003453      0.000000
    186 F     c       0.000104     -0.000084     -0.000039      0.000000
    187 O2    s       0.000371     -0.000199      0.001678      0.000000
    188 O2    s      -0.000180      0.000642     -0.000696      0.000000
    189 O2    s       0.000128      0.000123     -0.000628      0.000000
    190 O2    s      -0.000494      0.000171     -0.001039      0.000000
    191 O2    s       0.000589     -0.000361      0.002994      0.000000
    192 O2    s       0.000559     -0.000540     -0.002891      0.000000
    193 O2    s       0.000574     -0.000269     -0.000472      0.000000
    194 O2    s      -0.000316      0.000311      0.000583      0.000000
    195 O2    s       0.000291     -0.000755      0.000821      0.000000
    196 O3    s      -0.000334     -0.000164      0.002757      0.000000
    197 O2    s      -0.000068     -0.000106     -0.000656      0.000000
    198 O2    s       0.000161      0.000298      0.000931      0.000000
    199 O1    s       0.004698     -0.000889      0.002469      0.000000
    200 O2    s       0.000183     -0.000430     -0.000822      0.000000
    201 O2    s      -0.000785      0.000268     -0.001248      0.000000
    202 O2    s      -0.000124     -0.000270     -0.001013      0.000000
    203 O2    s      -0.000162     -0.000185     -0.000058      0.000000
    204 O2    s       0.000461      0.000015      0.002128      0.000000
    205 O2    s       0.000500     -0.000390      0.001371      0.000000
    206 O2    s      -0.000044     -0.000186      0.000373      0.000000
    207 O2    s       0.000821      0.000056     -0.001016      0.000000
    208 O2    s      -0.000168      0.000413     -0.002170      0.000000
    209 O2    s       0.000076     -0.000264      0.001634      0.000000
    210 O3    s      -0.000430     -0.000849     -0.008907      0.000000
    211 O2    s      -0.000356      0.000228      0.000025      0.000000
    212 O2    s      -0.000115     -0.000309     -0.000141      0.000000
    213 O2    s       0.000109      0.000899     -0.000604      0.000000
    214 O2    s       0.000596     -0.000243      0.003501      0.000000
    215 O2    s       0.000022      0.000115     -0.001775      0.000000
    216 O2    s       0.000007     -0.000778     -0.000407      0.000000
    217 O2    s       0.000468     -0.001285     -0.001088      0.000000
    218 O2    s       0.001534     -0.000794      0.000664      0.000000
    219 O2    s       0.000256     -0.000222     -0.000960      0.000000
    220 O2    s      -0.000619      0.001585     -0.000497      0.000000
    221 O2    s      -0.001269      0.000686      0.001496      0.000000
    222 O2    s      -0.000326      0.000332     -0.000109      0.000000
    223 O2    s       0.000686     -0.000474      0.002104      0.000000
    224 O2    s      -0.000707     -0.000051     -0.002229      0.000000
    225 O2    s       0.000157     -0.000766     -0.000393      0.000000
    226 O2    s      -0.000325      0.000323     -0.000086      0.000000
    227 O2    s       0.000952     -0.000030      0.000563      0.000000
    228 O2    s       0.000209      0.000477     -0.001797      0.000000
    229 O2    s      -0.000327      0.000364     -0.001235      0.000000
    230 O2    s      -0.000437     -0.000768      0.001078      0.000000
    231 O2    s      -0.000870      0.000176     -0.001020      0.000000
    232 O2    s      -0.000018     -0.000211      0.004435      0.000000
    233 O2    s      -0.000057      0.000549      0.000157      0.000000
    234 O2    s       0.000318      0.000293     -0.001926      0.000000
    235 O2    s      -0.000083     -0.000322     -0.000621      0.000000
    236 O2    s       0.000260      0.000295      0.000173      0.000000
    237 O2    s      -0.000472      0.000620      0.000942      0.000000
    238 O2    s      -0.000013      0.000490      0.000553      0.000000
    239 O3    s      -0.000262      0.000552      0.000539      0.000000
    240 O2    s       0.000218     -0.000209      0.000647      0.000000
    241 O3    s       0.000323      0.000867      0.000621      0.000000
    242 O2    s      -0.000017     -0.000019     -0.000688      0.000000
    243 O2    s       0.000030     -0.000148     -0.000565      0.000000
    244 O2    s       0.000109     -0.000501     -0.001389      0.000000
    245 O2    s      -0.000380      0.000096      0.002504      0.000000
    246 O3    s      -0.003105      0.001171     -0.013077      0.000000
    247 O2    s       0.000504     -0.000126     -0.000227      0.000000
    248 O2    s      -0.000610     -0.000123     -0.000586      0.000000
    249 O2    s      -0.000102      0.000178     -0.001617      0.000000
    250 O3    s      -0.000101     -0.000911      0.002399      0.000000
    251 O2    s       0.000135     -0.000195     -0.001365      0.000000
    252 O2    s      -0.000099      0.000107     -0.000914      0.000000
    253 O3    s       0.000081      0.000856      0.003295      0.000000
    254 O2    s      -0.000184     -0.000115     -0.001029      0.000000
    255 O2    s       0.000487     -0.000282     -0.001401      0.000000
    256 O2    s      -0.000397      0.000064     -0.001027      0.000000
    257 O2    s       0.000010      0.000112      0.001277      0.000000
    258 O2    s      -0.000255     -0.000059     -0.000160      0.000000
    259 O2    s      -0.000134      0.000424     -0.001682      0.000000
    260 O2    s      -0.000421      0.000307      0.001090      0.000000
    261 O2    s      -0.000288      0.000350      0.000274      0.000000
    262 O2    s       0.000051     -0.000400      0.003198      0.000000
    263 O2    s      -0.000021      0.000169     -0.000093      0.000000
    264 O2    s      -0.000409      0.000200     -0.000538      0.000000
    265 O3    s       0.002137     -0.002749      0.005212      0.000000
    266 O2    s      -0.000321      0.001106     -0.000779      0.000000
    267 O2    s      -0.000211      0.000221     -0.001813      0.000000
    268 O2    s      -0.000551      0.000284     -0.001598      0.000000
    269 O2    s       0.000056     -0.000309      0.001890      0.000000
    270 O2    s       0.000199      0.000067     -0.000197      0.000000
    271 O2    s      -0.000284      0.000339     -0.001075      0.000000
    272 O2    s       0.000362      0.000032      0.002029      0.000000
    273 O2    s      -0.000013     -0.000176      0.000402      0.000000
    274 O2    s       0.000028     -0.000290      0.001840      0.000000
    275 O2    s      -0.001085      0.000229     -0.000948      0.000000
    276 O3    s       0.000506      0.000451     -0.011963      0.000000
    277 O2    s       0.000192      0.000107      0.000433      0.000000
    278 O2    s      -0.000600      0.000232      0.001753      0.000000
    279 O2    s       0.000738     -0.000567      0.000407      0.000000
    280 O2    s      -0.000150     -0.000029     -0.000441      0.000000
    281 O2    s       0.000295     -0.000504      0.001141      0.000000
    282 O3    s       0.000213     -0.000037      0.006424      0.000000
    283 O2    s       0.000009      0.000176      0.000199      0.000000
    284 O2    s       0.000365     -0.000526     -0.002131      0.000000
    285 O2    s      -0.000307      0.000640     -0.001014      0.000000
    286 O2    s      -0.000290      0.000138      0.000315      0.000000
    287 O2    s      -0.000482      0.000412     -0.000653      0.000000
    288 O2    s       0.000683     -0.000760     -0.000473      0.000000
    289 O3    s      -0.000853      0.000275     -0.000735      0.000000
    290 O2    s      -0.000133      0.000259     -0.001848      0.000000
    291 O2    s      -0.000448      0.000466      0.000027      0.000000
    292 O2    s      -0.000180      0.000039     -0.001595      0.000000
    293 O2    s      -0.000338     -0.000002      0.003974      0.000000
    294 O2    s       0.000492     -0.000183      0.001290      0.000000
    295 O2    s      -0.000156      0.000099     -0.000274      0.000000
    296 O2    s       0.000301     -0.000108     -0.001121      0.000000
    297 O2    s       0.000589     -0.000309     -0.001118      0.000000
    298 O3    s       0.000806     -0.000394      0.002821      0.000000
    299 O2    s       0.000009     -0.000085     -0.000932      0.000000
    300 O2    s      -0.000499     -0.000079     -0.001448      0.000000
    301 O2    s       0.000434     -0.000418      0.001462      0.000000
    302 O2    s       0.000339     -0.000640      0.000796      0.000000
    303 O1    s       0.000631     -0.001470     -0.004158      0.000000
    304 O2    s      -0.000692      0.000449     -0.000459      0.000000
    305 O2    s       0.000029     -0.000024      0.000444      0.000000
    306 O2    s      -0.000254      0.000235      0.000345      0.000000
    307 F     s       0.000023     -0.000078      0.000774      0.000000
    308 F     s      -0.000006      0.000085     -0.000972      0.000000
    309 F     s      -0.001684      0.001869     -0.000412      0.000000
    310 F     s      -0.000102      0.000188      0.000133      0.000000
    311 F     s       0.001481      0.001997     -0.001345      0.000000
    312 F     s      -0.000069      0.000047     -0.000071      0.000000
--------------------------------------------------------------------------------
  Maximum abs         0.004837      0.002749      0.013077      0.000000
--------------------------------------------------------------------------------


  Time to end of optimisation =     700.8563 seconds


  Peak dynamic memory used =      19.13 MB 


  Timing analysis for GULP :

--------------------------------------------------------------------------------
  Task / Subroutine                                          Time (Seconds)
--------------------------------------------------------------------------------
  Calculation of reciprocal space energy and derivatives         12.9556
  Calculation of real space energy and derivatives              374.2100
  Calculation of three-body energy and derivatives               41.5511
  Global summation overhead                                       0.0004
--------------------------------------------------------------------------------
  Total CPU time                                                700.8563
--------------------------------------------------------------------------------


  Dump file written as out.res                                                 
  CIF file written as out.cif                                                 


  Job Finished at 09:14.40  8th December   2016                               

