********************************************************************************
*                       GENERAL UTILITY LATTICE PROGRAM                        *
*                                 Julian Gale                                  *
*                      Nanochemistry Research Institute                        *
*                           Department of Chemistry                            *
*                    Curtin University, Western Australia                      *
********************************************************************************
* Version = 4.2.0 * Last modified =  20th January 2014                         *
********************************************************************************
*  optimise     - perform optimisation run                                     *
*  conp         - constant pressure calculation                                *
*  qok          - running with non charge neutral cell is OK                   *
********************************************************************************

  Job Started  at 07:25.41 14th November   2016                               

  Number of CPUs =     1


  Total number of configurations input =   1

********************************************************************************
*  Input for Configuration =   1                                               *
********************************************************************************

  Formula = Si57Ge3O120F6                                               

  Number of irreducible atoms/shells =     312


  Total number atoms/shells =     312

  Dimensionality = 3               :  Bulk   


  Charge on solid   =  -6.000000 =>neutralising background added


  Cartesian lattice vectors (Angstroms) :

       11.907302    0.000000    0.000000
       -5.874910   10.406653    0.000000
       -0.209496   -0.043832   29.526561

  Cell parameters (Angstroms/Degrees):

  a =      11.9073    alpha =  89.8742
  b =      11.9504    beta  =  90.4065
  c =      29.5273    gamma = 119.4462

  Initial cell volume =        3658.788597 Angs**3

  Temperature of configuration =  0.000     K 

  Pressure of configuration =         0.000 GPa 

  Fractional coordinates of asymmetric unit :

--------------------------------------------------------------------------------
   No.  Atomic       x           y          z         Charge      Occupancy
        Label      (Frac)      (Frac)     (Frac)        (e)         (Frac)  
--------------------------------------------------------------------------------
      1 Si    c    0.699600    0.375700    0.033890     4.00000    1.000000    
      2 Si    c    0.616153 *  0.331122 *  0.369557 *   4.00000    1.000000    
      3 Si    c    0.676875 *  0.285962 *  0.698989 *   4.00000    1.000000    
      4 Si    c    0.306798 *  0.615507 *  0.536575 *   4.00000    1.000000    
      5 Si    c    0.385110 *  0.671543 *  0.869259 *   4.00000    1.000000    
      6 Si    c    0.330397 *  0.705841 *  0.199471 *   4.00000    1.000000    
      7 Si    c    0.378563 *  0.699298 *  0.302222 *   4.00000    1.000000    
      8 Si    c    0.328829 *  0.619074 *  0.971213 *   4.00000    1.000000    
      9 Si    c    0.296654 *  0.663704 *  0.637899 *   4.00000    1.000000    
     10 Si    c    0.625837 *  0.291068 *  0.799474 *   4.00000    1.000000    
     11 Si    c    0.678099 *  0.378129 *  0.471389 *   4.00000    1.000000    
     12 Si    c    0.709593 *  0.328168 *  0.135480 *   4.00000    1.000000    
     13 Ge    c    0.534982 *  0.430889 *  0.966228 *   4.00000    1.000000    
     14 Si    c    0.589885 *  0.124876 *  0.303844 *   4.00000    1.000000    
     15 Si    c    0.887456 *  0.459542 *  0.635218 *   4.00000    1.000000    
     16 Ge    c    0.470523 *  0.563548 *  0.469030 *   4.00000    1.000000    
     17 Si    c    0.423576 *  0.881619 *  0.803402 *   4.00000    1.000000    
     18 Si    c    0.116882 *  0.532464 *  0.135223 *   4.00000    1.000000    
     19 Si    c    0.396973 *  0.529048 *  0.370851 *   4.00000    1.000000    
     20 Si    c    0.114520 *  0.580379 *  0.034243 *   4.00000    1.000000    
     21 Si    c    0.470751 *  0.874056 *  0.702185 *   4.00000    1.000000    
     22 Si    c    0.598658 *  0.462775 *  0.867315 *   4.00000    1.000000    
     23 Si    c    0.893360 *  0.413162 *  0.534273 *   4.00000    1.000000    
     24 Si    c    0.536297 *  0.120668 *  0.200241 *   4.00000    1.000000    
     25 Si    c    0.309685 *  0.390458 *  0.854897 *   4.00000    1.000000    
     26 Si    c    0.610889 *  0.908209 *  0.183142 *   4.00000    1.000000    
     27 Si    c    0.101831 *  0.692544 *  0.522104 *   4.00000    1.000000    
     28 Si    c    0.687704 *  0.611192 *  0.355984 *   4.00000    1.000000    
     29 Si    c    0.398201 *  0.083670 *  0.686546 *   4.00000    1.000000    
     30 Si    c    0.906049 *  0.300736 *  0.021080 *   4.00000    1.000000    
     31 Si    c    0.394275 *  0.291536 *  0.491079 *   4.00000    1.000000    
     32 Si    c    0.908985 *  0.605667 *  0.149994 *   4.00000    1.000000    
     33 Si    c    0.702632 *  0.089433 *  0.816265 *   4.00000    1.000000    
     34 Si    c    0.613633 *  0.702985 *  0.989211 *   4.00000    1.000000    
     35 Si    c    0.095999 *  0.386943 *  0.650995 *   4.00000    1.000000    
     36 Si    c    0.307207 *  0.910699 *  0.317538 *   4.00000    1.000000    
     37 Si    c    0.254759 *  0.331880 *  0.956847 *   4.00000    1.000000    
     38 Ge    c    0.644901 *  0.914345 *  0.283206 *   4.00000    1.000000    
     39 Si    c    0.086967 *  0.736632 *  0.622479 *   4.00000    1.000000    
     40 Si    c    0.750566 *  0.665808 *  0.457974 *   4.00000    1.000000    
     41 Si    c    0.345009 *  0.082485 *  0.787086 *   4.00000    1.000000    
     42 Si    c    0.919186 *  0.255194 *  0.121631 *   4.00000    1.000000    
     43 Si    c    0.328949 *  0.250742 *  0.388286 *   4.00000    1.000000    
     44 Si    c    0.911556 *  0.657276 *  0.048993 *   4.00000    1.000000    
     45 Si    c    0.749109 *  0.076195 *  0.716040 *   4.00000    1.000000    
     46 Si    c    0.671715 *  0.742684 *  0.886238 *   4.00000    1.000000    
     47 Si    c    0.094788 *  0.334331 *  0.550241 *   4.00000    1.000000    
     48 Si    c    0.256089 *  0.919133 *  0.215483 *   4.00000    1.000000    
     49 Si    c    0.971409 *  0.120297 *  0.970110 *   4.00000    1.000000    
     50 Si    c    0.872543 *  0.855422 *  0.303380 *   4.00000    1.000000    
     51 Si    c    0.147132 *  0.014728 *  0.637815 *   4.00000    1.000000    
     52 Si    c    0.036325 *  0.873380 *  0.470586 *   4.00000    1.000000    
     53 Si    c    0.125965 *  0.144135 *  0.804099 *   4.00000    1.000000    
     54 Si    c    0.858139 *  0.976713 *  0.135960 *   4.00000    1.000000    
     55 Si    c    0.119148 *  0.969385 *  0.369237 *   4.00000    1.000000    
     56 Si    c    0.859729 *  0.884305 *  0.036366 *   4.00000    1.000000    
     57 Si    c    0.029841 *  0.140681 *  0.702940 *   4.00000    1.000000    
     58 Si    c    0.883602 *  0.023658 *  0.869101 *   4.00000    1.000000    
     59 Si    c    0.149911 *  0.109177 *  0.537555 *   4.00000    1.000000    
     60 Si    c    0.971084 *  0.849282 *  0.203479 *   4.00000    1.000000    
     61 O2    c    0.939476 *  0.002384 *  0.003083 *   0.87073    1.000000    
     62 O2    c    0.996027 *  0.926056 *  0.337320 *   0.87073    1.000000    
     63 O2    c    0.073637 *  0.058548 *  0.672595 *   0.87073    1.000000    
     64 O2    c    0.071852 *  0.993077 *  0.503104 *   0.87073    1.000000    
     65 O2    c    0.008110 *  0.064888 *  0.838057 *   0.87073    1.000000    
     66 O2    c    0.927080 *  0.930743 *  0.172406 *   0.87073    1.000000    
     67 O2    c    0.323470 *  0.570355 *  0.333104 *   0.87073    1.000000    
     68 O2    c    0.419766 *  0.746872 *  0.671117 *   0.87073    1.000000    
     69 O2    c    0.239849 *  0.656209 *  0.001727 *   0.87073    1.000000    
     70 O2    c    0.668157 *  0.419061 *  0.829631 *   0.87073    1.000000    
     71 O2    c    0.586072 *  0.245460 *  0.168174 *   0.87073    1.000000    
     72 O2    c    0.768526 *  0.339415 *  0.500860 *   0.87073    1.000000    
     73 O3    c    0.581441 *  0.340641 *  0.002271 *   1.33043    1.000000    
     74 O2    c    0.758928 *  0.407424 *  0.666233 *   0.87073    1.000000    
     75 O2    c    0.655607 *  0.253376 *  0.334797 *   0.87073    1.000000    
     76 O3    c    0.425990 *  0.652464 *  0.505859 *   1.33043    1.000000    
     77 O2    c    0.244742 *  0.584298 *  0.167279 *   0.87073    1.000000    
     78 O2    c    0.348812 *  0.757259 *  0.836520 *   0.87073    1.000000    
     79 O2    c    0.123316 *  0.213533 *  0.975305 *   0.87073    1.000000    
     80 O3    c    0.791485 *  0.925053 *  0.305142 *   1.33043    1.000000    
     81 O2    c    0.084571 *  0.861351 *  0.643239 *   0.87073    1.000000    
     82 O2    c    0.884275 *  0.782744 *  0.476243 *   0.87073    1.000000    
     83 O2    c    0.218427 *  0.081300 *  0.807735 *   0.87073    1.000000    
     84 O2    c    0.922142 *  0.130413 *  0.142119 *   0.87073    1.000000    
     85 O2    c    0.207495 *  0.124119 *  0.366756 *   0.87073    1.000000    
     86 O2    c    0.911610 *  0.783823 *  0.028731 *   0.87073    1.000000    
     87 O2    c    0.875597 *  0.075564 *  0.696422 *   0.87073    1.000000    
     88 O2    c    0.793299 *  0.869395 *  0.865101 *   0.87073    1.000000    
     89 O2    c    0.095683 *  0.208113 *  0.530349 *   0.87073    1.000000    
     90 O2    c    0.126399 *  0.914492 *  0.196808 *   0.87073    1.000000    
     91 O2    c    0.933982 *  0.854500 *  0.254785 *   0.87073    1.000000    
     92 O2    c    0.126170 *  0.053907 *  0.588002 *   0.87073    1.000000    
     93 O2    c    0.931600 *  0.065345 *  0.919882 *   0.87073    1.000000    
     94 O2    c    0.068132 *  0.132959 *  0.754459 *   0.87073    1.000000    
     95 O2    c    0.885081 *  0.938403 *  0.087010 *   0.87073    1.000000    
     96 O2    c    0.073312 *  0.923903 *  0.419817 *   0.87073    1.000000    
     97 O2    c    0.899399 *  0.200067 *  0.982690 *   0.87073    1.000000    
     98 O2    c    0.780456 *  0.704588 *  0.316918 *   0.87073    1.000000    
     99 O2    c    0.300162 *  0.083011 *  0.647983 *   0.87073    1.000000    
    100 O2    c    0.108012 *  0.793190 *  0.483583 *   0.87073    1.000000    
    101 O2    c    0.210647 *  0.295168 *  0.816647 *   0.87073    1.000000    
    102 O2    c    0.703447 *  0.911747 *  0.141912 *   0.87073    1.000000    
    103 O2    c    0.206952 *  0.906722 *  0.354776 *   0.87073    1.000000    
    104 O2    c    0.707051 *  0.814882 *  0.024857 *   0.87073    1.000000    
    105 O2    c    0.098097 *  0.290232 *  0.689437 *   0.87073    1.000000    
    106 O2    c    0.802369 *  0.093069 *  0.854765 *   0.87073    1.000000    
    107 O2    c    0.302690 *  0.179971 *  0.526886 *   0.87073    1.000000    
    108 O2    c    0.905564 *  0.700587 *  0.188561 *   0.87073    1.000000    
    109 O2    c    0.330076 *  0.653198 *  0.250179 *   0.87073    1.000000    
    110 O2    c    0.354741 *  0.664336 *  0.588559 *   0.87073    1.000000    
    111 O2    c    0.330941 *  0.668798 *  0.919678 *   0.87073    1.000000    
    112 O2    c    0.680080 *  0.344107 *  0.749099 *   0.87073    1.000000    
    113 O2    c    0.651625 *  0.327128 *  0.085742 *   0.87073    1.000000    
    114 O2    c    0.671469 *  0.328779 *  0.419625 *   0.87073    1.000000    
    115 O3    c    0.368775 *  0.314685 *  0.976090 *   1.33043    1.000000    
    116 O3    c    0.680189 *  0.063034 *  0.309174 *   1.33043    1.000000    
    117 O2    c    0.954254 *  0.614921 *  0.640334 *   0.87073    1.000000    
    118 O3    c    0.637214 *  0.680704 *  0.478595 *   1.33043    1.000000    
    119 O2    c    0.336571 *  0.951594 *  0.806900 *   0.87073    1.000000    
    120 O2    c    0.050767 *  0.377327 *  0.140656 *   0.87073    1.000000    
    121 O2    c    0.314497 *  0.371348 *  0.371022 *   0.87073    1.000000    
    122 O2    c    0.046213 *  0.668931 *  0.031515 *   0.87073    1.000000    
    123 O2    c    0.627075 *  0.942206 *  0.699206 *   0.87073    1.000000    
    124 O2    c    0.681654 *  0.620797 *  0.867565 *   0.87073    1.000000    
    125 O2    c    0.960886 *  0.323823 *  0.531638 *   0.87073    1.000000    
    126 O2    c    0.379452 *  0.050142 *  0.198060 *   0.87073    1.000000    
    127 O2    c    0.771860 *  0.300038 *  0.014577 *   0.87073    1.000000    
    128 O2    c    0.686752 *  0.475850 *  0.350506 *   0.87073    1.000000    
    129 O2    c    0.531336 *  0.216264 *  0.678253 *   0.87073    1.000000    
    130 O2    c    0.235488 *  0.692173 *  0.516443 *   0.87073    1.000000    
    131 O2    c    0.313178 *  0.526984 *  0.849067 *   0.87073    1.000000    
    132 O2    c    0.474035 *  0.775156 *  0.178070 *   0.87073    1.000000    
    133 O2    c    0.310540 *  0.778159 *  0.322581 *   0.87073    1.000000    
    134 O2    c    0.473616 *  0.696546 *  0.991858 *   0.87073    1.000000    
    135 O2    c    0.227402 *  0.521016 *  0.660346 *   0.87073    1.000000    
    136 O2    c    0.700204 *  0.222519 *  0.823273 *   0.87073    1.000000    
    137 O2    c    0.535360 *  0.300288 *  0.493108 *   0.87073    1.000000    
    138 O2    c    0.778536 *  0.470326 *  0.158370 *   0.87073    1.000000    
    139 O2    c    0.789555 *  0.531782 *  0.028969 *   0.87073    1.000000    
    140 O2    c    0.461039 *  0.263514 *  0.368888 *   0.87073    1.000000    
    141 O2    c    0.747494 *  0.199945 *  0.695092 *   0.87073    1.000000    
    142 O2    c    0.217681 *  0.459688 *  0.531004 *   0.87073    1.000000    
    143 O2    c    0.539515 *  0.734008 *  0.868371 *   0.87073    1.000000    
    144 O2    c    0.267061 *  0.798327 *  0.197463 *   0.87073    1.000000    
    145 O3    c    0.531434 *  0.769787 *  0.309750 *   1.33043    1.000000    
    146 O2    c    0.264076 *  0.465183 *  0.974696 *   0.87073    1.000000    
    147 O2    c    0.214195 *  0.738425 *  0.642626 *   0.87073    1.000000    
    148 O2    c    0.469730 *  0.211365 *  0.805290 *   0.87073    1.000000    
    149 O2    c    0.743211 *  0.532088 *  0.474611 *   0.87073    1.000000    
    150 O2    c    0.791012 *  0.252325 *  0.140852 *   0.87073    1.000000    
    151 O2    c    0.243343 *  0.322078 *  0.901826 *   0.87073    1.000000    
    152 O3    c    0.692181 *  0.910611 *  0.226511 *   1.33043    1.000000    
    153 O2    c    0.090672 *  0.759290 *  0.568397 *   0.87073    1.000000    
    154 O2    c    0.756230 *  0.679608 *  0.403039 *   0.87073    1.000000    
    155 O2    c    0.324718 *  0.081045 *  0.732924 *   0.87073    1.000000    
    156 O2    c    0.917294 *  0.234120 *  0.067514 *   0.87073    1.000000    
    157 O2    c    0.321154 *  0.233391 *  0.442385 *   0.87073    1.000000    
    158 O2    c    0.908396 *  0.675911 *  0.103219 *   0.87073    1.000000    
    159 O2    c    0.771843 *  0.082820 *  0.770236 *   0.87073    1.000000    
    160 O2    c    0.684538 *  0.758992 *  0.940395 *   0.87073    1.000000    
    161 O2    c    0.096091 *  0.315568 *  0.604542 *   0.87073    1.000000    
    162 O2    c    0.246446 *  0.918760 *  0.269596 *   0.87073    1.000000    
    163 O3    c    0.607407 *  0.572329 *  0.001992 *   1.33043    1.000000    
    164 O2    c    0.446720 *  0.035024 *  0.325508 *   0.87073    1.000000    
    165 O2    c    0.967686 *  0.397742 *  0.659289 *   0.87073    1.000000    
    166 O3    c    0.399747 *  0.421321 *  0.504276 *   1.33043    1.000000    
    167 O2    c    0.565610 *  0.962666 *  0.826355 *   0.87073    1.000000    
    168 O2    c    0.038669 *  0.596627 *  0.158686 *   0.87073    1.000000    
    169 O2    c    0.542196 *  0.583476 *  0.350650 *   0.87073    1.000000    
    170 O2    c    0.031083 *  0.439338 *  0.011241 *   0.87073    1.000000    
    171 O2    c    0.413673 *  0.958612 *  0.678793 *   0.87073    1.000000    
    172 O2    c    0.451745 *  0.410237 *  0.847980 *   0.87073    1.000000    
    173 O2    c    0.976589 *  0.554369 *  0.511682 *   0.87073    1.000000    
    174 O2    c    0.588269 *  0.030975 *  0.178311 *   0.87073    1.000000    
    175 O2    c    0.585389 *  0.169062 *  0.251567 *   0.87073    1.000000    
    176 O2    c    0.834355 *  0.409889 *  0.584145 *   0.87073    1.000000    
    177 O3    c    0.606433 *  0.408538 *  0.915531 *   1.33043    1.000000    
    178 O2    c    0.419830 *  0.824194 *  0.753338 *   0.87073    1.000000    
    179 O2    c    0.172325 *  0.582456 *  0.084585 *   0.87073    1.000000    
    180 O3    c    0.392777 *  0.584154 *  0.419115 *   1.33043    1.000000    
    181 F     c    0.495365 *  0.913497 *  0.256995 *   0.56000    1.000000    
    182 F     c    0.090029 *  0.536578 *  0.587978 *   0.56000    1.000000    
    183 F     c    0.479392 *  0.521980 *  0.929539 *   0.56000    1.000000    
    184 F     c    0.549019 *  0.083904 *  0.753073 *   0.56000    1.000000    
    185 F     c    0.917215 *  0.455478 *  0.087376 *   0.56000    1.000000    
    186 F     c    0.523682 *  0.473550 *  0.431540 *   0.56000    1.000000    
    187 O2    s    0.934026 *  0.002312 *  0.003126 *  -2.87073    1.000000    
    188 O2    s    0.997324 *  0.923696 *  0.337448 *  -2.87073    1.000000    
    189 O2    s    0.076934 *  0.062929 *  0.672126 *  -2.87073    1.000000    
    190 O2    s    0.076715 *  0.992741 *  0.503338 *  -2.87073    1.000000    
    191 O2    s    0.007360 *  0.069050 *  0.837739 *  -2.87073    1.000000    
    192 O2    s    0.924345 *  0.926702 *  0.171821 *  -2.87073    1.000000    
    193 O2    s    0.336278 *  0.579248 *  0.333712 *  -2.87073    1.000000    
    194 O2    s    0.412681 *  0.751832 *  0.671025 *  -2.87073    1.000000    
    195 O2    s    0.236652 *  0.644676 *  0.001758 *  -2.87073    1.000000    
    196 O2    s    0.656687 *  0.410362 *  0.830370 *  -2.87073    1.000000    
    197 O2    s    0.593165 *  0.240524 *  0.168287 *  -2.87073    1.000000    
    198 O2    s    0.771521 *  0.350926 *  0.501088 *  -2.87073    1.000000    
    199 O3    s    0.591528 *  0.350738 *  0.003346 *  -3.33043    1.000000    
    200 O2    s    0.763293 *  0.399902 *  0.666551 *  -2.87073    1.000000    
    201 O2    s    0.644432 *  0.248447 *  0.335362 *  -2.87073    1.000000    
    202 O3    s    0.415719 *  0.642182 *  0.506744 *  -3.33043    1.000000    
    203 O2    s    0.241061 *  0.592148 *  0.167517 *  -2.87073    1.000000    
    204 O2    s    0.360165 *  0.760514 *  0.836722 *  -2.87073    1.000000    
    205 O2    s    0.120576 *  0.216021 *  0.972715 *  -2.87073    1.000000    
    206 O3    s    0.791124 *  0.916423 *  0.303536 *  -3.33043    1.000000    
    207 O2    s    0.091515 *  0.865012 *  0.640559 *  -2.87073    1.000000    
    208 O2    s    0.886768 *  0.780131 *  0.473630 *  -2.87073    1.000000    
    209 O2    s    0.221593 *  0.088169 *  0.805239 *  -2.87073    1.000000    
    210 O2    s    0.915070 *  0.127004 *  0.139385 *  -2.87073    1.000000    
    211 O2    s    0.210902 *  0.121079 *  0.369245 *  -2.87073    1.000000    
    212 O2    s    0.906073 *  0.781474 *  0.031598 *  -2.87073    1.000000    
    213 O2    s    0.878808 *  0.082535 *  0.699134 *  -2.87073    1.000000    
    214 O2    s    0.790184 *  0.872464 *  0.867693 *  -2.87073    1.000000    
    215 O2    s    0.101358 *  0.210596 *  0.533136 *  -2.87073    1.000000    
    216 O2    s    0.124624 *  0.908395 *  0.199471 *  -2.87073    1.000000    
    217 O2    s    0.931800 *  0.854032 *  0.254013 *  -2.87073    1.000000    
    218 O2    s    0.131182 *  0.055701 *  0.587938 *  -2.87073    1.000000    
    219 O2    s    0.930622 *  0.066789 *  0.919763 *  -2.87073    1.000000    
    220 O2    s    0.070471 *  0.135079 *  0.754388 *  -2.87073    1.000000    
    221 O2    s    0.879225 *  0.936617 *  0.086795 *  -2.87073    1.000000    
    222 O2    s    0.074368 *  0.923404 *  0.419785 *  -2.87073    1.000000    
    223 O2    s    0.907821 *  0.201674 *  0.985218 *  -2.87073    1.000000    
    224 O2    s    0.779713 *  0.709549 *  0.319732 *  -2.87073    1.000000    
    225 O2    s    0.294099 *  0.075860 *  0.650884 *  -2.87073    1.000000    
    226 O2    s    0.099689 *  0.791671 *  0.486065 *  -2.87073    1.000000    
    227 O2    s    0.212053 *  0.289265 *  0.819297 *  -2.87073    1.000000    
    228 O2    s    0.710214 *  0.918100 *  0.145345 *  -2.87073    1.000000    
    229 O2    s    0.208445 *  0.913757 *  0.352317 *  -2.87073    1.000000    
    230 O2    s    0.713598 *  0.810972 *  0.022498 *  -2.87073    1.000000    
    231 O2    s    0.090511 *  0.283903 *  0.686991 *  -2.87073    1.000000    
    232 O2    s    0.800904 *  0.085182 *  0.852349 *  -2.87073    1.000000    
    233 O2    s    0.295916 *  0.183641 *  0.524442 *  -2.87073    1.000000    
    234 O2    s    0.912949 *  0.706771 *  0.186192 *  -2.87073    1.000000    
    235 O2    s    0.335024 *  0.663364 *  0.250089 *  -2.87073    1.000000    
    236 O2    s    0.343780 *  0.659416 *  0.588686 *  -2.87073    1.000000    
    237 O2    s    0.336367 *  0.664037 *  0.919662 *  -2.87073    1.000000    
    238 O2    s    0.674091 *  0.332560 *  0.749191 *  -2.87073    1.000000    
    239 O2    s    0.662540 *  0.332036 *  0.085936 *  -2.87073    1.000000    
    240 O2    s    0.666363 *  0.334032 *  0.419685 *  -2.87073    1.000000    
    241 O3    s    0.367484 *  0.324323 *  0.973309 *  -3.33043    1.000000    
    242 O3    s    0.668228 *  0.059189 *  0.306797 *  -3.33043    1.000000    
    243 O2    s    0.961189 *  0.611622 *  0.637949 *  -2.87073    1.000000    
    244 O3    s    0.638457 *  0.671310 *  0.475696 *  -3.33043    1.000000    
    245 O2    s    0.346493 *  0.957875 *  0.804479 *  -2.87073    1.000000    
    246 O2    s    0.043935 *  0.380651 *  0.138120 *  -2.87073    1.000000    
    247 O2    s    0.324060 *  0.373875 *  0.372860 *  -2.87073    1.000000    
    248 O2    s    0.039526 *  0.658537 *  0.033603 *  -2.87073    1.000000    
    249 O2    s    0.623821 *  0.949243 *  0.701290 *  -2.87073    1.000000    
    250 O2    s    0.672606 *  0.618439 *  0.869527 *  -2.87073    1.000000    
    251 O2    s    0.967582 *  0.334123 *  0.533825 *  -2.87073    1.000000    
    252 O2    s    0.382370 *  0.043550 *  0.200105 *  -2.87073    1.000000    
    253 O2    s    0.779382 *  0.307761 *  0.017290 *  -2.87073    1.000000    
    254 O2    s    0.679239 *  0.474328 *  0.353147 *  -2.87073    1.000000    
    255 O2    s    0.532281 *  0.209439 *  0.681302 *  -2.87073    1.000000    
    256 O2    s    0.227813 *  0.684553 *  0.519123 *  -2.87073    1.000000    
    257 O2    s    0.320351 *  0.527933 *  0.851801 *  -2.87073    1.000000    
    258 O2    s    0.473056 *  0.781491 *  0.180836 *  -2.87073    1.000000    
    259 O2    s    0.317068 *  0.784602 *  0.319959 *  -2.87073    1.000000    
    260 O2    s    0.472496 *  0.689077 *  0.989399 *  -2.87073    1.000000    
    261 O2    s    0.220652 *  0.521520 *  0.657043 *  -2.87073    1.000000    
    262 O2    s    0.692827 *  0.215425 *  0.820068 *  -2.87073    1.000000    
    263 O2    s    0.536010 *  0.307519 *  0.490610 *  -2.87073    1.000000    
    264 O2    s    0.785185 *  0.469928 *  0.155110 *  -2.87073    1.000000    
    265 O2    s    0.794541 *  0.530404 *  0.031670 *  -2.87073    1.000000    
    266 O2    s    0.463557 *  0.269451 *  0.371030 *  -2.87073    1.000000    
    267 O2    s    0.740101 *  0.195388 *  0.697765 *  -2.87073    1.000000    
    268 O2    s    0.212604 *  0.461202 *  0.533680 *  -2.87073    1.000000    
    269 O2    s    0.537034 *  0.728100 *  0.870386 *  -2.87073    1.000000    
    270 O2    s    0.272666 *  0.801925 *  0.199649 *  -2.87073    1.000000    
    271 O3    s    0.524429 *  0.773421 *  0.307085 *  -3.33043    1.000000    
    272 O2    s    0.270286 *  0.468282 *  0.972517 *  -2.87073    1.000000    
    273 O2    s    0.208923 *  0.730400 *  0.639999 *  -2.87073    1.000000    
    274 O2    s    0.472370 *  0.205630 *  0.802771 *  -2.87073    1.000000    
    275 O2    s    0.736747 *  0.528929 *  0.472587 *  -2.87073    1.000000    
    276 O2    s    0.796378 *  0.260537 *  0.138283 *  -2.87073    1.000000    
    277 O2    s    0.251672 *  0.330443 *  0.902333 *  -2.87073    1.000000    
    278 O3    s    0.680537 *  0.910614 *  0.226088 *  -3.33043    1.000000    
    279 O2    s    0.091404 *  0.750000 *  0.569321 *  -2.87073    1.000000    
    280 O2    s    0.748313 *  0.670910 *  0.403578 *  -2.87073    1.000000    
    281 O2    s    0.334493 *  0.081456 *  0.733878 *  -2.87073    1.000000    
    282 O2    s    0.916361 *  0.243276 *  0.068401 *  -2.87073    1.000000    
    283 O2    s    0.329074 *  0.240937 *  0.441236 *  -2.87073    1.000000    
    284 O2    s    0.908782 *  0.666540 *  0.102507 *  -2.87073    1.000000    
    285 O2    s    0.762105 *  0.082811 *  0.769378 *  -2.87073    1.000000    
    286 O2    s    0.676256 *  0.751729 *  0.939284 *  -2.87073    1.000000    
    287 O2    s    0.095935 *  0.325044 *  0.603761 *  -2.87073    1.000000    
    288 O2    s    0.254066 *  0.917958 *  0.268802 *  -2.87073    1.000000    
    289 O3    s    0.603154 *  0.577292 *  0.998287 *  -3.33043    1.000000    
    290 O2    s    0.445858 *  0.030389 *  0.322504 *  -2.87073    1.000000    
    291 O2    s    0.973248 *  0.403123 *  0.655919 *  -2.87073    1.000000    
    292 O3    s    0.403973 *  0.416427 *  0.500547 *  -3.33043    1.000000    
    293 O2    s    0.565257 *  0.967701 *  0.822898 *  -2.87073    1.000000    
    294 O2    s    0.032903 *  0.590882 *  0.155355 *  -2.87073    1.000000    
    295 O2    s    0.543796 *  0.580911 *  0.353292 *  -2.87073    1.000000    
    296 O2    s    0.026481 *  0.439395 *  0.014657 *  -2.87073    1.000000    
    297 O2    s    0.418176 *  0.963468 *  0.682105 *  -2.87073    1.000000    
    298 O2    s    0.450539 *  0.413381 *  0.850682 *  -2.87073    1.000000    
    299 O2    s    0.981263 *  0.554258 *  0.515132 *  -2.87073    1.000000    
    300 O2    s    0.584951 *  0.027533 *  0.181174 *  -2.87073    1.000000    
    301 O2    s    0.580705 *  0.159572 *  0.251395 *  -2.87073    1.000000    
    302 O2    s    0.845949 *  0.415387 *  0.584286 *  -2.87073    1.000000    
    303 O3    s    0.600980 *  0.415712 *  0.913787 *  -3.33043    1.000000    
    304 O2    s    0.425439 *  0.835335 *  0.753368 *  -2.87073    1.000000    
    305 O2    s    0.160640 *  0.577056 *  0.084625 *  -2.87073    1.000000    
    306 O3    s    0.398204 *  0.577015 *  0.417257 *  -3.33043    1.000000    
    307 F     s    0.504014 *  0.913462 *  0.258515 *  -1.56000    1.000000    
    308 F     s    0.089387 *  0.536405 *  0.588178 *  -1.56000    1.000000    
    309 F     s    0.483462 *  0.515705 *  0.932129 *  -1.56000    1.000000    
    310 F     s    0.549046 *  0.084002 *  0.753274 *  -1.56000    1.000000    
    311 F     s    0.917969 *  0.455612 *  0.087635 *  -1.56000    1.000000    
    312 F     s    0.519626 *  0.479786 *  0.434245 *  -1.56000    1.000000    
--------------------------------------------------------------------------------



********************************************************************************
*  General input information                                                   *
********************************************************************************

  Species output for all configurations : 

--------------------------------------------------------------------------------
  Species    Type    Atomic    Atomic    Charge       Radii (Angs)     Library
                     Number     Mass       (e)     Cova   Ionic  VDW   Symbol
--------------------------------------------------------------------------------
    Si       Core       14      28.09   4.000000   1.200  0.000  2.100          
    O1       Core        8      16.00   1.733957   0.730  0.000  1.360          
    O1       Shell       8       0.00  -3.733957   0.730  0.000  1.360          
    O2       Core        8      16.00   0.870733   0.730  0.000  1.360          
    O2       Shell       8       0.00  -2.870733   0.730  0.000  1.360          
    O3       Core        8      16.00   1.330431   0.730  0.000  1.360          
    O3       Shell       8       0.00  -3.330431   0.730  0.000  1.360          
    F        Core        9      19.00   0.560000   0.710  0.000  1.300          
    F        Shell       9       0.00  -1.560000   0.710  0.000  1.300          
    Ge       Core       32      72.61   4.000000   1.170  0.000  1.750          
--------------------------------------------------------------------------------


  Lattice summation method               =    Ewald          (3-D)
                                         =    Parry          (2-D)
                                         =    Saunders et al (1-D)
  Accuracy factor for lattice sums       =   12.000


  Time limit = Infinity

  Maximum range for interatomic potentials =        16.000000 Angstroms

  Taper potentials to zero over   1.0000 Angstroms using polynomial

  General interatomic potentials :

--------------------------------------------------------------------------------
Atom  Types   Potential         A         B         C         D     Cutoffs(Ang)
  1     2                                                            Min    Max 
--------------------------------------------------------------------------------
Si   c O1   s Buckingham    0.132E+04 0.318      10.1      0.00     0.000 16.000
Si   c O2   s Buckingham    0.132E+04 0.318      10.1      0.00     0.000 16.000
Si   c O3   s Buckingham    0.132E+04 0.318      10.1      0.00     0.000 16.000
Ge   c O1   s Buckingham    0.150E+04 0.326      16.8      0.00     0.000 16.000
Ge   c O2   s Buckingham    0.150E+04 0.326      16.8      0.00     0.000 16.000
Ge   c O3   s Buckingham    0.150E+04 0.326      16.8      0.00     0.000 16.000
O1   s O1   s Buckingham    0.228E+05 0.149      10.9      0.00     0.000 16.000
O1   s O2   s Buckingham    0.228E+05 0.149      10.9      0.00     0.000 16.000
O1   s O3   s Buckingham    0.228E+05 0.149      10.9      0.00     0.000 16.000
O2   s O2   s Buckingham    0.228E+05 0.149      10.9      0.00     0.000 16.000
O2   s O3   s Buckingham    0.228E+05 0.149      10.9      0.00     0.000 16.000
O3   s O3   s Buckingham    0.228E+05 0.149      10.9      0.00     0.000 16.000
Si   c F    s Buckingham     977.     0.282      0.00      0.00     0.000 16.000
Ge   c F    s Buckingham     681.     0.320      0.00      0.00     0.000 16.000
F    s F    s Buckingham     540.     0.262      0.00      0.00     0.000 16.000
O1   s F    s Buckingham    0.168E+04 0.268      0.00      0.00     0.000 16.000
O2   s F    s Buckingham    0.168E+04 0.268      0.00      0.00     0.000 16.000
O3   s F    s Buckingham    0.168E+04 0.268      0.00      0.00     0.000 16.000
O2   c O2   s Spring (c-s)   76.0      0.00      0.00      0.00     0.000  0.800
O3   c O3   s Spring (c-s)   128.      0.00      0.00      0.00     0.000  0.800
O1   c O1   s Spring (c-s)   180.      0.00      0.00      0.00     0.000  0.800
F    c F    s Spring (c-s)   33.5      0.00      0.00      0.00     0.000  0.800
--------------------------------------------------------------------------------

  General Three-body potentials :

  Harmonic form:

--------------------------------------------------------------------------------
Atom    Atom    Atom           Force Constants            Theta     Cutoffs  
  1       2       3     (eVrad**-2/eVrad**-3/eVrad**-4)   (deg)  1-2  1-3  2-3
--------------------------------------------------------------------------------
Si    c O1    s O1    s  1.261        0.0000    0.0000   109.470 0.00 0.00 0.00
                                                                 1.90 1.90 3.50
Si    c O1    s O2    s  1.261        0.0000    0.0000   109.470 0.00 0.00 0.00
                                                                 1.90 1.90 3.50
Si    c O2    s O2    s  1.261        0.0000    0.0000   109.470 0.00 0.00 0.00
                                                                 1.90 1.90 3.50
--------------------------------------------------------------------------------

********************************************************************************
*  Output for configuration   1                                                *
********************************************************************************


  Components of energy : 

--------------------------------------------------------------------------------
  Interatomic potentials     =        2066.98213101 eV
  Three-body potentials      =           0.46576321 eV
  Monopole - monopole (real) =       -6617.61849082 eV
  Monopole - monopole (recip)=       -3170.77357073 eV
  Monopole - monopole (total)=       -9788.39206155 eV
  Neutralising energy        =          -6.45886449 eV
--------------------------------------------------------------------------------
  Total lattice energy       =       -7727.40303181 eV
--------------------------------------------------------------------------------
  Total lattice energy       =         -745576.2684 kJ/(mole unit cells)
--------------------------------------------------------------------------------


  Number of variables =      939

  Maximum number of calculations  =          5000
  Maximum Hessian update interval =            10
  Maximum step size               =   0.100000000
  Maximum parameter tolerance     =   0.000010000
  Maximum function  tolerance     =   0.000010000
  Maximum gradient  tolerance     =   0.001000000
  Maximum gradient  component     =   0.010000000

  Symmetry not applied to optimisation

  Cell parameters to be optimised using strains

  Newton-Raphson optimiser to be used

  BFGS hessian update to be used

  Dumpfile to be written after every cycle

  Start of bulk optimisation :

  Cycle:      0 Energy:     -7727.403032  Gnorm:      0.000298  CPU:    2.021
  ** Hessian calculated **
  Cycle:      1 Energy:     -7727.409740  Gnorm:      0.000202  CPU:    6.582
  Cycle:      2 Energy:     -7727.412806  Gnorm:      0.000191  CPU:   10.768
  Cycle:      3 Energy:     -7727.413577  Gnorm:      0.000134  CPU:   14.955
  Cycle:      4 Energy:     -7727.413771  Gnorm:      0.000078  CPU:   19.141
  Cycle:      5 Energy:     -7727.413805  Gnorm:      0.000056  CPU:   21.977
  Cycle:      6 Energy:     -7727.413821  Gnorm:      0.000040  CPU:   24.813


  **** Optimisation achieved ****


  Final energy =   -7727.41382890 eV
  Final Gnorm  =       0.00002801

  Components of energy : 

--------------------------------------------------------------------------------
  Interatomic potentials     =        2066.88662741 eV
  Three-body potentials      =           0.46688826 eV
  Monopole - monopole (real) =       -6617.98594840 eV
  Monopole - monopole (recip)=       -3170.32344892 eV
  Monopole - monopole (total)=       -9788.30939732 eV
  Neutralising energy        =          -6.45794724 eV
--------------------------------------------------------------------------------
  Total lattice energy       =       -7727.41382890 eV
--------------------------------------------------------------------------------
  Total lattice energy       =         -745577.3101 kJ/(mole unit cells)
--------------------------------------------------------------------------------

  Final fractional coordinates of atoms :

--------------------------------------------------------------------------------
   No.  Atomic        x           y          z          Radius
        Label       (Frac)      (Frac)     (Frac)       (Angs) 
--------------------------------------------------------------------------------
     1  Si    c     0.699600    0.375700    0.033890    0.000000
     2  Si    c     0.614238    0.325666    0.369233    0.000000
     3  Si    c     0.672573    0.276813    0.698522    0.000000
     4  Si    c     0.303044    0.606603    0.536350    0.000000
     5  Si    c     0.382988    0.664859    0.868893    0.000000
     6  Si    c     0.330260    0.702457    0.199147    0.000000
     7  Si    c     0.377969    0.694652    0.301867    0.000000
     8  Si    c     0.327682    0.614053    0.970928    0.000000
     9  Si    c     0.292220    0.654425    0.637691    0.000000
    10  Si    c     0.622100    0.283382    0.799034    0.000000
    11  Si    c     0.675221    0.371287    0.471111    0.000000
    12  Si    c     0.709626    0.326184    0.135368    0.000000
    13  Ge    c     0.532427    0.425603    0.965775    0.000000
    14  Si    c     0.589384    0.120295    0.303575    0.000000
    15  Si    c     0.883183    0.450329    0.634771    0.000000
    16  Ge    c     0.468143    0.556780    0.468704    0.000000
    17  Si    c     0.420056    0.874055    0.803037    0.000000
    18  Si    c     0.116928    0.529530    0.134872    0.000000
    19  Si    c     0.395334    0.523531    0.370468    0.000000
    20  Si    c     0.114269    0.577464    0.033966    0.000000
    21  Si    c     0.466471    0.864946    0.701901    0.000000
    22  Si    c     0.596079    0.456009    0.866879    0.000000
    23  Si    c     0.889719    0.404480    0.533885    0.000000
    24  Si    c     0.536432    0.117578    0.200000    0.000000
    25  Si    c     0.307128    0.383790    0.854472    0.000000
    26  Si    c     0.610764    0.904946    0.183010    0.000000
    27  Si    c     0.098157    0.683731    0.521727    0.000000
    28  Si    c     0.686091    0.605738    0.355630    0.000000
    29  Si    c     0.393990    0.074539    0.686259    0.000000
    30  Si    c     0.904787    0.298521    0.020713    0.000000
    31  Si    c     0.391462    0.284676    0.490850    0.000000
    32  Si    c     0.909696    0.603309    0.149831    0.000000
    33  Si    c     0.698846    0.081610    0.815842    0.000000
    34  Si    c     0.612318    0.697813    0.989023    0.000000
    35  Si    c     0.091493    0.377644    0.650627    0.000000
    36  Si    c     0.306847    0.906186    0.317275    0.000000
    37  Si    c     0.252440    0.326499    0.956540    0.000000
    38  Ge    c     0.644419    0.909880    0.283021    0.000000
    39  Si    c     0.082587    0.727468    0.622101    0.000000
    40  Si    c     0.748121    0.659111    0.457720    0.000000
    41  Si    c     0.341294    0.074605    0.786763    0.000000
    42  Si    c     0.918716    0.252393    0.121198    0.000000
    43  Si    c     0.327032    0.245082    0.387975    0.000000
    44  Si    c     0.912742    0.656010    0.048934    0.000000
    45  Si    c     0.744844    0.067047    0.715656    0.000000
    46  Si    c     0.669597    0.736120    0.885932    0.000000
    47  Si    c     0.090845    0.325513    0.549898    0.000000
    48  Si    c     0.256216    0.915940    0.215258    0.000000
    49  Si    c     0.968444    0.116730    0.969750    0.000000
    50  Si    c     0.871503    0.850374    0.303235    0.000000
    51  Si    c     0.142987    0.005687    0.637547    0.000000
    52  Si    c     0.034124    0.865709    0.470253    0.000000
    53  Si    c     0.122925    0.137116    0.803866    0.000000
    54  Si    c     0.858033    0.973874    0.135782    0.000000
    55  Si    c     0.117931    0.963523    0.369084    0.000000
    56  Si    c     0.858362    0.880901    0.036174    0.000000
    57  Si    c     0.025655    0.131571    0.702712    0.000000
    58  Si    c     0.880660    0.017498    0.868939    0.000000
    59  Si    c     0.147139    0.101284    0.537326    0.000000
    60  Si    c     0.971314    0.846662    0.203293    0.000000
    61  O2    c     0.936168    0.999251    0.002903    0.000000
    62  O2    c     0.994688    0.919937    0.337265    0.000000
    63  O2    c     0.069467    0.049208    0.672468    0.000000
    64  O2    c     0.070066    0.985056    0.502922    0.000000
    65  O2    c     0.005585    0.058937    0.838109    0.000000
    66  O2    c     0.927675    0.928504    0.172200    0.000000
    67  O2    c     0.322496    0.565451    0.332658    0.000000
    68  O2    c     0.415150    0.737523    0.670955    0.000000
    69  O2    c     0.239420    0.652320    0.001338    0.000000
    70  O2    c     0.664843    0.411601    0.829110    0.000000
    71  O2    c     0.586278    0.242754    0.168085    0.000000
    72  O2    c     0.765057    0.331517    0.500417    0.000000
    73  O3    c     0.580874    0.338261    0.002331    0.000000
    74  O2    c     0.754494    0.398119    0.665704    0.000000
    75  O2    c     0.654616    0.248568    0.334556    0.000000
    76  O3    c     0.422560    0.644455    0.505698    0.000000
    77  O2    c     0.244844    0.581145    0.166859    0.000000
    78  O2    c     0.345787    0.749957    0.836247    0.000000
    79  O2    c     0.120495    0.208898    0.974905    0.000000
    80  O3    c     0.790538    0.920090    0.305132    0.000000
    81  O2    c     0.080083    0.852211    0.642774    0.000000
    82  O2    c     0.881977    0.775862    0.475875    0.000000
    83  O2    c     0.214984    0.073839    0.807475    0.000000
    84  O2    c     0.921747    0.127622    0.141665    0.000000
    85  O2    c     0.205529    0.118306    0.366595    0.000000
    86  O2    c     0.912739    0.782421    0.028594    0.000000
    87  O2    c     0.871389    0.066164    0.696206    0.000000
    88  O2    c     0.791315    0.863129    0.864988    0.000000
    89  O2    c     0.092071    0.199478    0.530001    0.000000
    90  O2    c     0.126668    0.911877    0.196742    0.000000
    91  O2    c     0.933406    0.850930    0.254575    0.000000
    92  O2    c     0.122986    0.045868    0.587773    0.000000
    93  O2    c     0.927926    0.060660    0.919688    0.000000
    94  O2    c     0.064366    0.124961    0.754286    0.000000
    95  O2    c     0.883905    0.934959    0.086799    0.000000
    96  O2    c     0.072081    0.917063    0.419605    0.000000
    97  O2    c     0.897503    0.197643    0.982228    0.000000
    98  O2    c     0.779089    0.699405    0.316622    0.000000
    99  O2    c     0.295880    0.073596    0.647719    0.000000
   100  O2    c     0.104761    0.784470    0.483167    0.000000
   101  O2    c     0.208166    0.288219    0.816264    0.000000
   102  O2    c     0.703456    0.908684    0.141826    0.000000
   103  O2    c     0.206403    0.901737    0.354522    0.000000
   104  O2    c     0.705661    0.809552    0.024691    0.000000
   105  O2    c     0.093625    0.280918    0.689039    0.000000
   106  O2    c     0.798837    0.085968    0.854308    0.000000
   107  O2    c     0.299932    0.172968    0.526646    0.000000
   108  O2    c     0.906104    0.698102    0.188373    0.000000
   109  O2    c     0.329757    0.649214    0.249772    0.000000
   110  O2    c     0.350439    0.654971    0.588390    0.000000
   111  O2    c     0.329076    0.662528    0.919289    0.000000
   112  O2    c     0.675912    0.335450    0.748547    0.000000
   113  O2    c     0.651879    0.326848    0.085773    0.000000
   114  O2    c     0.669057    0.322801    0.419291    0.000000
   115  O3    c     0.366355    0.308867    0.975639    0.000000
   116  O3    c     0.679823    0.058625    0.308926    0.000000
   117  O2    c     0.949903    0.605687    0.639927    0.000000
   118  O3    c     0.634745    0.674054    0.478317    0.000000
   119  O2    c     0.332824    0.943773    0.806640    0.000000
   120  O2    c     0.050413    0.374348    0.140187    0.000000
   121  O2    c     0.312749    0.365781    0.370644    0.000000
   122  O2    c     0.046828    0.666881    0.031244    0.000000
   123  O2    c     0.622795    0.933042    0.698869    0.000000
   124  O2    c     0.679284    0.614115    0.867152    0.000000
   125  O2    c     0.957004    0.314901    0.531199    0.000000
   126  O2    c     0.379599    0.046901    0.197800    0.000000
   127  O2    c     0.771478    0.299455    0.014515    0.000000
   128  O2    c     0.684905    0.470333    0.350131    0.000000
   129  O2    c     0.527074    0.207002    0.677833    0.000000
   130  O2    c     0.231766    0.683283    0.516241    0.000000
   131  O2    c     0.311089    0.520470    0.848583    0.000000
   132  O2    c     0.473976    0.772019    0.177811    0.000000
   133  O2    c     0.309993    0.773537    0.322224    0.000000
   134  O2    c     0.472508    0.691893    0.991433    0.000000
   135  O2    c     0.222755    0.511688    0.660085    0.000000
   136  O2    c     0.696381    0.214699    0.822733    0.000000
   137  O2    c     0.532471    0.293305    0.492793    0.000000
   138  O2    c     0.779182    0.468144    0.158365    0.000000
   139  O2    c     0.789865    0.531278    0.028933    0.000000
   140  O2    c     0.459109    0.257926    0.368507    0.000000
   141  O2    c     0.743058    0.190654    0.694657    0.000000
   142  O2    c     0.213876    0.450874    0.530724    0.000000
   143  O2    c     0.537430    0.727408    0.868025    0.000000
   144  O2    c     0.267047    0.795082    0.197198    0.000000
   145  O3    c     0.530767    0.765096    0.309405    0.000000
   146  O2    c     0.263015    0.460183    0.974600    0.000000
   147  O2    c     0.209630    0.729024    0.642281    0.000000
   148  O2    c     0.466066    0.203592    0.804834    0.000000
   149  O2    c     0.740357    0.525248    0.474465    0.000000
   150  O2    c     0.790815    0.250047    0.140406    0.000000
   151  O2    c     0.240906    0.316409    0.901532    0.000000
   152  O3    c     0.692020    0.906917    0.226324    0.000000
   153  O2    c     0.086524    0.750115    0.568026    0.000000
   154  O2    c     0.754141    0.673343    0.402804    0.000000
   155  O2    c     0.320668    0.072524    0.732615    0.000000
   156  O2    c     0.916267    0.231644    0.067068    0.000000
   157  O2    c     0.318786    0.227319    0.442055    0.000000
   158  O2    c     0.909612    0.674329    0.103158    0.000000
   159  O2    c     0.767654    0.074230    0.769831    0.000000
   160  O2    c     0.682945    0.752697    0.940069    0.000000
   161  O2    c     0.091822    0.306376    0.604185    0.000000
   162  O2    c     0.246527    0.915119    0.269367    0.000000
   163  O3    c     0.604989    0.566799    0.001734    0.000000
   164  O2    c     0.446354    0.030279    0.325323    0.000000
   165  O2    c     0.963080    0.388262    0.658920    0.000000
   166  O3    c     0.397253    0.414560    0.504008    0.000000
   167  O2    c     0.561961    0.954971    0.826058    0.000000
   168  O2    c     0.039231    0.594033    0.158515    0.000000
   169  O2    c     0.540612    0.578045    0.350320    0.000000
   170  O2    c     0.030398    0.436679    0.010899    0.000000
   171  O2    c     0.409231    0.949342    0.678507    0.000000
   172  O2    c     0.449132    0.403394    0.847638    0.000000
   173  O2    c     0.973066    0.545630    0.511264    0.000000
   174  O2    c     0.588515    0.027943    0.178116    0.000000
   175  O2    c     0.585118    0.165165    0.251387    0.000000
   176  O2    c     0.830226    0.400806    0.583700    0.000000
   177  O3    c     0.603710    0.402147    0.915158    0.000000
   178  O2    c     0.415844    0.815671    0.753111    0.000000
   179  O2    c     0.172405    0.579570    0.084236    0.000000
   180  O3    c     0.390918    0.578196    0.418776    0.000000
   181  F     c     0.495130    0.909455    0.256765    0.000000
   182  F     c     0.085362    0.526854    0.587646    0.000000
   183  F     c     0.477329    0.516369    0.929103    0.000000
   184  F     c     0.544480    0.074811    0.752689    0.000000
   185  F     c     0.917799    0.454325    0.087135    0.000000
   186  F     c     0.521336    0.467098    0.431216    0.000000
   187  O2    s     0.930928    0.999075    0.002930    0.000000
   188  O2    s     0.996007    0.917703    0.337368    0.000000
   189  O2    s     0.072756    0.053643    0.671975    0.000000
   190  O2    s     0.074790    0.984779    0.503135    0.000000
   191  O2    s     0.004740    0.062968    0.837735    0.000000
   192  O2    s     0.924828    0.924373    0.171621    0.000000
   193  O2    s     0.335261    0.574291    0.333283    0.000000
   194  O2    s     0.408125    0.742515    0.670844    0.000000
   195  O2    s     0.236147    0.640746    0.001396    0.000000
   196  O2    s     0.653426    0.402966    0.829863    0.000000
   197  O2    s     0.593338    0.237864    0.168178    0.000000
   198  O2    s     0.768114    0.343075    0.500672    0.000000
   199  O3    s     0.590852    0.348472    0.003345    0.000000
   200  O2    s     0.758887    0.390615    0.666040    0.000000
   201  O2    s     0.643360    0.243564    0.335106    0.000000
   202  O3    s     0.412340    0.634155    0.506560    0.000000
   203  O2    s     0.241132    0.588984    0.167115    0.000000
   204  O2    s     0.357223    0.753268    0.836430    0.000000
   205  O2    s     0.117855    0.211476    0.972322    0.000000
   206  O3    s     0.790184    0.911484    0.303499    0.000000
   207  O2    s     0.087071    0.855875    0.640125    0.000000
   208  O2    s     0.884446    0.773168    0.473277    0.000000
   209  O2    s     0.218165    0.080715    0.804975    0.000000
   210  O2    s     0.914700    0.124212    0.138962    0.000000
   211  O2    s     0.209014    0.115275    0.369068    0.000000
   212  O2    s     0.906948    0.779860    0.031465    0.000000
   213  O2    s     0.874588    0.073186    0.698897    0.000000
   214  O2    s     0.788093    0.866180    0.867553    0.000000
   215  O2    s     0.097805    0.202021    0.532800    0.000000
   216  O2    s     0.124869    0.905722    0.199373    0.000000
   217  O2    s     0.931264    0.850414    0.253817    0.000000
   218  O2    s     0.127933    0.047562    0.587710    0.000000
   219  O2    s     0.927117    0.062066    0.919556    0.000000
   220  O2    s     0.066740    0.127067    0.754204    0.000000
   221  O2    s     0.878136    0.933248    0.086596    0.000000
   222  O2    s     0.073023    0.916579    0.419570    0.000000
   223  O2    s     0.905857    0.199110    0.984758    0.000000
   224  O2    s     0.778356    0.704339    0.319436    0.000000
   225  O2    s     0.289828    0.066505    0.650622    0.000000
   226  O2    s     0.096508    0.783054    0.485662    0.000000
   227  O2    s     0.209499    0.282349    0.818917    0.000000
   228  O2    s     0.710210    0.915055    0.145254    0.000000
   229  O2    s     0.207840    0.908740    0.352071    0.000000
   230  O2    s     0.712226    0.805858    0.022327    0.000000
   231  O2    s     0.086055    0.274597    0.686611    0.000000
   232  O2    s     0.797399    0.078089    0.851919    0.000000
   233  O2    s     0.293148    0.176555    0.524209    0.000000
   234  O2    s     0.913489    0.704302    0.186002    0.000000
   235  O2    s     0.334693    0.659369    0.249698    0.000000
   236  O2    s     0.339520    0.650109    0.588510    0.000000
   237  O2    s     0.334568    0.657832    0.919286    0.000000
   238  O2    s     0.669949    0.323957    0.748671    0.000000
   239  O2    s     0.662736    0.331595    0.085970    0.000000
   240  O2    s     0.663937    0.328040    0.419357    0.000000
   241  O3    s     0.365070    0.318552    0.972881    0.000000
   242  O3    s     0.667837    0.054753    0.306550    0.000000
   243  O2    s     0.956852    0.602415    0.637541    0.000000
   244  O3    s     0.635997    0.664666    0.475423    0.000000
   245  O2    s     0.342772    0.950089    0.804200    0.000000
   246  O2    s     0.043619    0.377703    0.137669    0.000000
   247  O2    s     0.322279    0.368287    0.372484    0.000000
   248  O2    s     0.040063    0.656501    0.033358    0.000000
   249  O2    s     0.619553    0.940083    0.700950    0.000000
   250  O2    s     0.670280    0.611779    0.869115    0.000000
   251  O2    s     0.963719    0.325229    0.533400    0.000000
   252  O2    s     0.382512    0.040336    0.199848    0.000000
   253  O2    s     0.779096    0.306994    0.017188    0.000000
   254  O2    s     0.677407    0.468846    0.352780    0.000000
   255  O2    s     0.528027    0.200204    0.680894    0.000000
   256  O2    s     0.224075    0.675667    0.518902    0.000000
   257  O2    s     0.318205    0.521350    0.851335    0.000000
   258  O2    s     0.472994    0.778328    0.180584    0.000000
   259  O2    s     0.316539    0.779983    0.319612    0.000000
   260  O2    s     0.471345    0.684333    0.989012    0.000000
   261  O2    s     0.216056    0.512221    0.656776    0.000000
   262  O2    s     0.689002    0.207636    0.819546    0.000000
   263  O2    s     0.533134    0.300568    0.490307    0.000000
   264  O2    s     0.785751    0.467721    0.155078    0.000000
   265  O2    s     0.794770    0.529619    0.031642    0.000000
   266  O2    s     0.461619    0.263861    0.370659    0.000000
   267  O2    s     0.735706    0.186121    0.697332    0.000000
   268  O2    s     0.208808    0.452409    0.533398    0.000000
   269  O2    s     0.534964    0.721507    0.870040    0.000000
   270  O2    s     0.272646    0.798670    0.199380    0.000000
   271  O3    s     0.523767    0.768740    0.306750    0.000000
   272  O2    s     0.269084    0.463238    0.972382    0.000000
   273  O2    s     0.204400    0.721040    0.639664    0.000000
   274  O2    s     0.468729    0.197884    0.802331    0.000000
   275  O2    s     0.733943    0.522110    0.472420    0.000000
   276  O2    s     0.796181    0.258231    0.137870    0.000000
   277  O2    s     0.249241    0.324706    0.902016    0.000000
   278  O3    s     0.680364    0.906909    0.225917    0.000000
   279  O2    s     0.087284    0.740865    0.568951    0.000000
   280  O2    s     0.746231    0.664680    0.403323    0.000000
   281  O2    s     0.330462    0.072944    0.733574    0.000000
   282  O2    s     0.915370    0.240774    0.067983    0.000000
   283  O2    s     0.326715    0.234835    0.440921    0.000000
   284  O2    s     0.909942    0.664920    0.102413    0.000000
   285  O2    s     0.757941    0.074246    0.768971    0.000000
   286  O2    s     0.674640    0.745521    0.938972    0.000000
   287  O2    s     0.091679    0.315886    0.603404    0.000000
   288  O2    s     0.254103    0.914270    0.268569    0.000000
   289  O3    s     0.600881    0.571961    0.998032    0.000000
   290  O2    s     0.445453    0.025663    0.322303    0.000000
   291  O2    s     0.968693    0.393688    0.655545    0.000000
   292  O3    s     0.401437    0.409601    0.500285    0.000000
   293  O2    s     0.561649    0.960043    0.822581    0.000000
   294  O2    s     0.033413    0.588285    0.155169    0.000000
   295  O2    s     0.542198    0.575470    0.352953    0.000000
   296  O2    s     0.025792    0.436772    0.014320    0.000000
   297  O2    s     0.413781    0.954224    0.681819    0.000000
   298  O2    s     0.447940    0.406567    0.850320    0.000000
   299  O2    s     0.977735    0.545546    0.514723    0.000000
   300  O2    s     0.585142    0.024485    0.180981    0.000000
   301  O2    s     0.580443    0.155681    0.251193    0.000000
   302  O2    s     0.841867    0.406342    0.583850    0.000000
   303  O3    s     0.598308    0.409351    0.913374    0.000000
   304  O2    s     0.421485    0.826864    0.753107    0.000000
   305  O2    s     0.160676    0.574161    0.084284    0.000000
   306  O3    s     0.396322    0.571053    0.416903    0.000000
   307  F     s     0.503766    0.909411    0.258282    0.000000
   308  F     s     0.084658    0.526615    0.587845    0.000000
   309  F     s     0.481442    0.509968    0.931741    0.000000
   310  F     s     0.544447    0.074832    0.752890    0.000000
   311  F     s     0.918619    0.454570    0.087391    0.000000
   312  F     s     0.517254    0.473368    0.433939    0.000000
--------------------------------------------------------------------------------

  Final Cartesian lattice vectors (Angstroms) :

       11.909102    0.001475    0.002099
       -5.874509   10.407738    0.001155
       -0.204327   -0.037650   29.529494


  Final cell parameters and derivatives :

--------------------------------------------------------------------------------
       a           11.909102 Angstrom     dE/de1(xx)     0.004543 eV/strain
       b           11.951186 Angstrom     dE/de2(yy)     0.004254 eV/strain
       c           29.530225 Angstrom     dE/de3(zz)     0.005074 eV/strain
       alpha       89.863211 Degrees      dE/de4(yz)    -0.000122 eV/strain
       beta        90.386356 Degrees      dE/de5(xz)     0.000605 eV/strain
       gamma      119.434880 Degrees      dE/de6(xy)    -0.000371 eV/strain
--------------------------------------------------------------------------------

  Primitive cell volume =          3660.347829 Angs**3

  Density of cell =      1.747947 g/cm**3

  Non-primitive cell volume =          3660.347829 Angs**3


  Final internal derivatives :

--------------------------------------------------------------------------------
   No.  Atomic          a             b             c           Radius
        Label          (eV)          (eV)          (eV)        (eV/Angs)
--------------------------------------------------------------------------------
      1 Si    c       0.000000      0.000000      0.000000      0.000000
      2 Si    c      -0.000302      0.000426      0.000066      0.000000
      3 Si    c       0.000132      0.000372     -0.000731      0.000000
      4 Si    c      -0.000743      0.000732      0.001366      0.000000
      5 Si    c       0.000241     -0.000148      0.000403      0.000000
      6 Si    c      -0.000353      0.000012     -0.000245      0.000000
      7 Si    c      -0.000268      0.000139     -0.000179      0.000000
      8 Si    c       0.000734     -0.000585     -0.000139      0.000000
      9 Si    c       0.000196      0.000481      0.000040      0.000000
     10 Si    c      -0.000164      0.000115      0.001170      0.000000
     11 Si    c      -0.000629      0.000751     -0.000300      0.000000
     12 Si    c       0.000144     -0.000316      0.003160      0.000000
     13 Ge    c      -0.004586      0.004995     -0.008499      0.000000
     14 Si    c      -0.000306     -0.000137      0.000052      0.000000
     15 Si    c       0.000120      0.000628     -0.000122      0.000000
     16 Ge    c       0.000655     -0.000560     -0.001016      0.000000
     17 Si    c       0.000035      0.000517      0.001748      0.000000
     18 Si    c      -0.000294     -0.000217     -0.000212      0.000000
     19 Si    c       0.000026     -0.000157     -0.000413      0.000000
     20 Si    c       0.000341     -0.000331      0.001645      0.000000
     21 Si    c       0.000235      0.000630     -0.000811      0.000000
     22 Si    c      -0.000412      0.000743     -0.000557      0.000000
     23 Si    c       0.000430      0.000637      0.000629      0.000000
     24 Si    c      -0.000262     -0.000338     -0.000276      0.000000
     25 Si    c       0.000022      0.000373     -0.001355      0.000000
     26 Si    c      -0.000304     -0.000100     -0.000417      0.000000
     27 Si    c       0.000012      0.000252      0.000365      0.000000
     28 Si    c      -0.000237     -0.000001     -0.001262      0.000000
     29 Si    c       0.000180      0.000502     -0.000438      0.000000
     30 Si    c       0.001280     -0.001434      0.000029      0.000000
     31 Si    c      -0.000040      0.000363      0.000568      0.000000
     32 Si    c      -0.000150     -0.000039      0.001082      0.000000
     33 Si    c      -0.000617      0.000589     -0.000037      0.000000
     34 Si    c       0.000064      0.000274      0.001177      0.000000
     35 Si    c       0.000168      0.000528     -0.000047      0.000000
     36 Si    c      -0.000086     -0.000139     -0.000014      0.000000
     37 Si    c       0.000723      0.000086     -0.000488      0.000000
     38 Ge    c      -0.000421      0.000076     -0.000105      0.000000
     39 Si    c       0.000087      0.000522     -0.000111      0.000000
     40 Si    c      -0.000148      0.000156      0.000469      0.000000
     41 Si    c       0.000217      0.000296      0.000482      0.000000
     42 Si    c       0.000090     -0.000239      0.001025      0.000000
     43 Si    c      -0.000036      0.000209     -0.000544      0.000000
     44 Si    c      -0.000958      0.001124      0.000838      0.000000
     45 Si    c      -0.000042      0.000573     -0.000344      0.000000
     46 Si    c      -0.000295      0.000101      0.000140      0.000000
     47 Si    c       0.000184      0.000698      0.000114      0.000000
     48 Si    c      -0.000092     -0.000169     -0.000137      0.000000
     49 Si    c      -0.000440     -0.000306      0.001946      0.000000
     50 Si    c      -0.000628      0.000187      0.001135      0.000000
     51 Si    c       0.000156      0.000499      0.000874      0.000000
     52 Si    c      -0.000156      0.000490      0.000585      0.000000
     53 Si    c       0.000298      0.000428      0.000687      0.000000
     54 Si    c      -0.000371     -0.000289      0.000410      0.000000
     55 Si    c      -0.000345      0.000250     -0.001362      0.000000
     56 Si    c      -0.001048      0.001416      0.004662      0.000000
     57 Si    c      -0.000130      0.000606     -0.001686      0.000000
     58 Si    c      -0.000114     -0.000260     -0.004261      0.000000
     59 Si    c       0.000025      0.000242      0.000791      0.000000
     60 Si    c      -0.000141     -0.000203     -0.001624      0.000000
     61 O2    c       0.001235      0.000988     -0.004545      0.000000
     62 O2    c       0.000226      0.000296      0.000229      0.000000
     63 O2    c       0.000042      0.000550      0.000108      0.000000
     64 O2    c      -0.000566      0.000425     -0.000404      0.000000
     65 O2    c      -0.000587      0.000045      0.001035      0.000000
     66 O2    c      -0.000065     -0.000310      0.000269      0.000000
     67 O2    c      -0.000406      0.000102     -0.000616      0.000000
     68 O2    c       0.000148      0.000466     -0.000162      0.000000
     69 O2    c      -0.000453      0.000695      0.000495      0.000000
     70 O2    c       0.000260      0.000087     -0.000738      0.000000
     71 O2    c      -0.000543      0.000007      0.000165      0.000000
     72 O2    c       0.000411     -0.000107      0.000686      0.000000
     73 O3    c      -0.002063     -0.005026     -0.003708      0.000000
     74 O2    c       0.000099      0.000579     -0.000098      0.000000
     75 O2    c       0.000088     -0.000312     -0.000952      0.000000
     76 O3    c       0.000076      0.001242      0.000285      0.000000
     77 O2    c      -0.000259     -0.000174     -0.000047      0.000000
     78 O2    c      -0.000418      0.000719     -0.000815      0.000000
     79 O2    c       0.000382     -0.000293      0.001442      0.000000
     80 O3    c      -0.000102     -0.000015     -0.000434      0.000000
     81 O2    c       0.000130      0.000362     -0.000046      0.000000
     82 O2    c      -0.000409      0.000260      0.000618      0.000000
     83 O2    c      -0.000090      0.000322      0.000102      0.000000
     84 O2    c      -0.000285      0.000189     -0.000113      0.000000
     85 O2    c      -0.000045      0.000360     -0.000537      0.000000
     86 O2    c       0.002662     -0.003416     -0.001750      0.000000
     87 O2    c       0.000292      0.000439     -0.000016      0.000000
     88 O2    c      -0.000166      0.000022     -0.000355      0.000000
     89 O2    c      -0.000308      0.000955     -0.000097      0.000000
     90 O2    c      -0.000475      0.000038     -0.000188      0.000000
     91 O2    c       0.000177     -0.000071     -0.001041      0.000000
     92 O2    c      -0.000298      0.000651     -0.001448      0.000000
     93 O2    c       0.000379      0.000325      0.004726      0.000000
     94 O2    c      -0.000061      0.000379      0.000666      0.000000
     95 O2    c       0.000245     -0.000441     -0.002224      0.000000
     96 O2    c      -0.000184      0.000257      0.000197      0.000000
     97 O2    c      -0.000848      0.000753      0.000465      0.000000
     98 O2    c      -0.000168      0.000036     -0.000228      0.000000
     99 O2    c       0.000077      0.000610      0.000023      0.000000
    100 O2    c       0.000559     -0.000043      0.000280      0.000000
    101 O2    c      -0.000090      0.000406      0.000108      0.000000
    102 O2    c      -0.000314     -0.000108     -0.000092      0.000000
    103 O2    c      -0.000017     -0.000286     -0.000400      0.000000
    104 O2    c      -0.002150      0.000122     -0.001449      0.000000
    105 O2    c       0.000167      0.000585      0.000100      0.000000
    106 O2    c      -0.000434      0.000734      0.000237      0.000000
    107 O2    c       0.000363      0.000282     -0.000229      0.000000
    108 O2    c      -0.000274     -0.000128      0.000102      0.000000
    109 O2    c      -0.000276     -0.000138      0.000244      0.000000
    110 O2    c       0.000182      0.000567      0.000199      0.000000
    111 O2    c      -0.000273      0.000610     -0.001705      0.000000
    112 O2    c       0.000129      0.000712     -0.000929      0.000000
    113 O2    c      -0.000865      0.000093     -0.003419      0.000000
    114 O2    c       0.000035      0.000015     -0.000759      0.000000
    115 O3    c       0.000032      0.000195      0.000363      0.000000
    116 O3    c      -0.000311     -0.000014     -0.000150      0.000000
    117 O2    c       0.000115      0.000527      0.000007      0.000000
    118 O3    c      -0.000035      0.000160      0.000096      0.000000
    119 O2    c      -0.000101      0.000412      0.000097      0.000000
    120 O2    c      -0.000228     -0.000237      0.000195      0.000000
    121 O2    c      -0.000102      0.000135     -0.000408      0.000000
    122 O2    c       0.000077      0.000409     -0.000142      0.000000
    123 O2    c       0.000074      0.000545      0.000009      0.000000
    124 O2    c      -0.000103      0.000207     -0.000069      0.000000
    125 O2    c       0.000052      0.000550      0.000005      0.000000
    126 O2    c      -0.000276     -0.000098      0.000281      0.000000
    127 O2    c      -0.001750      0.000290     -0.001159      0.000000
    128 O2    c      -0.000113      0.000124     -0.000419      0.000000
    129 O2    c       0.000113      0.000545      0.000076      0.000000
    130 O2    c       0.000254      0.000382      0.000174      0.000000
    131 O2    c      -0.000159      0.000220     -0.000154      0.000000
    132 O2    c      -0.000291     -0.000165      0.000154      0.000000
    133 O2    c      -0.000261     -0.000056     -0.000238      0.000000
    134 O2    c      -0.000421      0.000264     -0.000095      0.000000
    135 O2    c       0.000198      0.000534      0.000042      0.000000
    136 O2    c       0.000006      0.000268      0.000168      0.000000
    137 O2    c       0.000010      0.000277      0.000018      0.000000
    138 O2    c      -0.000253      0.000134      0.000612      0.000000
    139 O2    c      -0.002138      0.000672     -0.001331      0.000000
    140 O2    c      -0.000103      0.000112     -0.000208      0.000000
    141 O2    c       0.000109      0.000535      0.000080      0.000000
    142 O2    c       0.000214      0.000382      0.000034      0.000000
    143 O2    c      -0.000069      0.000215      0.000147      0.000000
    144 O2    c      -0.000269     -0.000090     -0.000081      0.000000
    145 O3    c      -0.000275     -0.000182     -0.000116      0.000000
    146 O2    c      -0.000459      0.001006      0.001200      0.000000
    147 O2    c       0.000116      0.000632      0.000155      0.000000
    148 O2    c      -0.000032      0.000346      0.000022      0.000000
    149 O2    c       0.000041      0.000176      0.000340      0.000000
    150 O2    c      -0.000024     -0.000374      0.000525      0.000000
    151 O2    c      -0.000190     -0.000104      0.001533      0.000000
    152 O3    c      -0.000071     -0.000306      0.000446      0.000000
    153 O2    c       0.000101      0.000559      0.000324      0.000000
    154 O2    c      -0.000005      0.000339      0.000489      0.000000
    155 O2    c      -0.000134      0.000579     -0.000122      0.000000
    156 O2    c       0.000044     -0.000304     -0.001140      0.000000
    157 O2    c      -0.000168      0.000090     -0.000094      0.000000
    158 O2    c      -0.000334      0.000267     -0.000613      0.000000
    159 O2    c       0.000267      0.000327     -0.000235      0.000000
    160 O2    c       0.000278      0.000195     -0.001274      0.000000
    161 O2    c       0.000140      0.000559     -0.000068      0.000000
    162 O2    c      -0.000468      0.000005     -0.000405      0.000000
    163 O3    c       0.002190     -0.000913      0.004137      0.000000
    164 O2    c      -0.000326      0.000022     -0.000174      0.000000
    165 O2    c       0.000196      0.000521      0.000162      0.000000
    166 O3    c      -0.000356      0.000403      0.000461      0.000000
    167 O2    c       0.000021      0.000316      0.000123      0.000000
    168 O2    c      -0.000443      0.000024      0.000484      0.000000
    169 O2    c      -0.000083      0.000070     -0.000468      0.000000
    170 O2    c       0.000279     -0.000019     -0.000344      0.000000
    171 O2    c       0.000124      0.000535     -0.000068      0.000000
    172 O2    c      -0.000117      0.000274     -0.000226      0.000000
    173 O2    c       0.000056      0.000521      0.000299      0.000000
    174 O2    c      -0.000336      0.000022      0.000050      0.000000
    175 O2    c      -0.000258      0.000102      0.000173      0.000000
    176 O2    c       0.000078      0.000584      0.000247      0.000000
    177 O3    c       0.000366     -0.000585     -0.000615      0.000000
    178 O2    c       0.000151      0.000009     -0.001056      0.000000
    179 O2    c      -0.000144     -0.000097      0.000132      0.000000
    180 O3    c      -0.000286      0.000478     -0.000244      0.000000
    181 F     c      -0.000340      0.000039     -0.000056      0.000000
    182 F     c       0.000191      0.000607     -0.000181      0.000000
    183 F     c      -0.000094      0.000213      0.000557      0.000000
    184 F     c       0.000007      0.000502      0.000640      0.000000
    185 F     c      -0.000084     -0.000217      0.000636      0.000000
    186 F     c      -0.000068      0.000156      0.000119      0.000000
    187 O2    s       0.000120      0.000414     -0.000022      0.000000
    188 O2    s      -0.000549      0.000354      0.000878      0.000000
    189 O2    s       0.000093      0.000381      0.000201      0.000000
    190 O2    s      -0.000243      0.000588     -0.000321      0.000000
    191 O2    s       0.000488     -0.000136     -0.000634      0.000000
    192 O2    s      -0.000237     -0.000062      0.000623      0.000000
    193 O2    s      -0.000108     -0.000012      0.000641      0.000000
    194 O2    s       0.000180      0.000566      0.000025      0.000000
    195 O2    s      -0.000070     -0.000161     -0.000106      0.000000
    196 O2    s      -0.000251      0.000448      0.000488      0.000000
    197 O2    s      -0.000219     -0.000195      0.000415      0.000000
    198 O2    s      -0.000016      0.000517     -0.000376      0.000000
    199 O3    s       0.000198      0.005776      0.002600      0.000000
    200 O2    s       0.000134      0.000539      0.000216      0.000000
    201 O2    s      -0.000348      0.000118      0.000609      0.000000
    202 O3    s       0.000248     -0.000381     -0.000258      0.000000
    203 O2    s      -0.000214     -0.000076      0.000053      0.000000
    204 O2    s       0.000191     -0.000002      0.000321      0.000000
    205 O2    s      -0.000034      0.000193     -0.001242      0.000000
    206 O3    s      -0.000516      0.000314      0.000861      0.000000
    207 O2    s       0.000159      0.000388      0.000250      0.000000
    208 O2    s      -0.000284      0.000234     -0.000893      0.000000
    209 O2    s       0.000129      0.000088     -0.000030      0.000000
    210 O2    s      -0.000345     -0.000057      0.000357      0.000000
    211 O2    s      -0.000214      0.000348      0.000775      0.000000
    212 O2    s      -0.000091     -0.000229      0.001571      0.000000
    213 O2    s      -0.000078      0.000575     -0.000398      0.000000
    214 O2    s       0.000282     -0.000541     -0.000206      0.000000
    215 O2    s      -0.000011      0.000508     -0.000033      0.000000
    216 O2    s      -0.000173     -0.000100     -0.000104      0.000000
    217 O2    s      -0.000372     -0.000060      0.000018      0.000000
    218 O2    s       0.000230      0.000284      0.000639      0.000000
    219 O2    s       0.000113      0.000096     -0.001166      0.000000
    220 O2    s       0.000113      0.000392     -0.000811      0.000000
    221 O2    s      -0.000777      0.000945      0.002828      0.000000
    222 O2    s      -0.000302      0.000480     -0.000157      0.000000
    223 O2    s       0.000045      0.000106     -0.000669      0.000000
    224 O2    s      -0.000059     -0.000055      0.000339      0.000000
    225 O2    s       0.000186      0.000587     -0.000173      0.000000
    226 O2    s       0.000248      0.000310      0.000164      0.000000
    227 O2    s       0.000007      0.000318     -0.000217      0.000000
    228 O2    s      -0.000479     -0.000033     -0.000004      0.000000
    229 O2    s      -0.000146     -0.000045      0.000427      0.000000
    230 O2    s      -0.001458      0.000701      0.000785      0.000000
    231 O2    s       0.000068      0.000655     -0.000164      0.000000
    232 O2    s      -0.000555      0.000718     -0.000427      0.000000
    233 O2    s       0.000164      0.000055      0.000053      0.000000
    234 O2    s      -0.000312     -0.000102     -0.000013      0.000000
    235 O2    s      -0.000300     -0.000034     -0.000064      0.000000
    236 O2    s       0.000083      0.000618     -0.000005      0.000000
    237 O2    s      -0.000158      0.000132      0.000018      0.000000
    238 O2    s      -0.000013      0.000191      0.000610      0.000000
    239 O2    s      -0.000029      0.000180     -0.000270      0.000000
    240 O2    s      -0.000079      0.000138      0.000265      0.000000
    241 O3    s       0.000135     -0.000431     -0.000386      0.000000
    242 O3    s      -0.000269     -0.000040      0.000306      0.000000
    243 O2    s       0.000136      0.000569      0.000144      0.000000
    244 O3    s      -0.000096      0.000387     -0.000202      0.000000
    245 O2    s       0.000080      0.000146     -0.000399      0.000000
    246 O2    s      -0.000030     -0.000292      0.000164      0.000000
    247 O2    s      -0.000142      0.000135      0.000621      0.000000
    248 O2    s      -0.000397     -0.000399     -0.000000      0.000000
    249 O2    s       0.000091      0.000480     -0.000098      0.000000
    250 O2    s       0.000019      0.000054     -0.000255      0.000000
    251 O2    s       0.000109      0.000412     -0.000020      0.000000
    252 O2    s      -0.000319     -0.000030     -0.000423      0.000000
    253 O2    s      -0.000307      0.001076      0.001360      0.000000
    254 O2    s      -0.000001      0.000080      0.000750      0.000000
    255 O2    s       0.000085      0.000586     -0.000197      0.000000
    256 O2    s       0.000084      0.000646     -0.000409      0.000000
    257 O2    s      -0.000315      0.000385      0.000150      0.000000
    258 O2    s      -0.000280     -0.000008     -0.000286      0.000000
    259 O2    s      -0.000286     -0.000053      0.000572      0.000000
    260 O2    s      -0.000031      0.000035      0.000875      0.000000
    261 O2    s       0.000178      0.000570      0.000066      0.000000
    262 O2    s      -0.000078      0.000583     -0.000226      0.000000
    263 O2    s      -0.000071      0.000172      0.000063      0.000000
    264 O2    s      -0.000622      0.000303     -0.000187      0.000000
    265 O2    s       0.002942     -0.003799      0.000316      0.000000
    266 O2    s      -0.000103      0.000118      0.000415      0.000000
    267 O2    s       0.000069      0.000575     -0.000164      0.000000
    268 O2    s      -0.000088      0.000765     -0.000255      0.000000
    269 O2    s      -0.000270      0.000261     -0.000198      0.000000
    270 O2    s      -0.000311     -0.000073     -0.000015      0.000000
    271 O3    s      -0.000323      0.000166      0.000550      0.000000
    272 O2    s      -0.000348     -0.000052     -0.000575      0.000000
    273 O2    s       0.000161      0.000493     -0.000263      0.000000
    274 O2    s       0.000021      0.000447      0.000079      0.000000
    275 O2    s      -0.000097      0.000364     -0.000358      0.000000
    276 O2    s      -0.000059     -0.000302     -0.000789      0.000000
    277 O2    s      -0.000178      0.000346     -0.000747      0.000000
    278 O3    s      -0.000431      0.000210     -0.000569      0.000000
    279 O2    s       0.000172      0.000581     -0.000136      0.000000
    280 O2    s      -0.000084      0.000073     -0.000004      0.000000
    281 O2    s       0.000113      0.000264     -0.000106      0.000000
    282 O2    s      -0.000454      0.000243      0.001277      0.000000
    283 O2    s       0.000032      0.000126     -0.000064      0.000000
    284 O2    s       0.000027     -0.000551      0.000577      0.000000
    285 O2    s       0.000007      0.000446     -0.000122      0.000000
    286 O2    s      -0.000512      0.000492      0.000686      0.000000
    287 O2    s       0.000084      0.000502      0.000146      0.000000
    288 O2    s      -0.000294     -0.000061      0.000041      0.000000
    289 O3    s      -0.002627      0.000396     -0.005807      0.000000
    290 O2    s      -0.000249      0.000080      0.000406      0.000000
    291 O2    s       0.000112      0.000590     -0.000177      0.000000
    292 O3    s       0.000271      0.000114     -0.000845      0.000000
    293 O2    s      -0.000142      0.000187     -0.000271      0.000000
    294 O2    s      -0.000280      0.000081     -0.000243      0.000000
    295 O2    s      -0.000163      0.000103      0.000846      0.000000
    296 O2    s      -0.000503      0.000487     -0.000331      0.000000
    297 O2    s       0.000072      0.000504      0.000040      0.000000
    298 O2    s       0.000130      0.000147      0.000300      0.000000
    299 O2    s      -0.000000      0.000487     -0.000581      0.000000
    300 O2    s      -0.000259     -0.000166     -0.000111      0.000000
    301 O2    s      -0.000307     -0.000050      0.000074      0.000000
    302 O2    s       0.000213      0.000446     -0.000009      0.000000
    303 O3    s      -0.000197      0.000808      0.000402      0.000000
    304 O2    s      -0.000105      0.000831      0.000716      0.000000
    305 O2    s      -0.000237      0.000154     -0.000136      0.000000
    306 O3    s      -0.000004     -0.000132      0.000212      0.000000
    307 F     s      -0.000231     -0.000199      0.000089      0.000000
    308 F     s       0.000193      0.000631      0.000458      0.000000
    309 F     s       0.000478     -0.000691      0.000442      0.000000
    310 F     s       0.000179      0.000449     -0.001131      0.000000
    311 F     s      -0.000474      0.000159     -0.001270      0.000000
    312 F     s      -0.000135      0.000377     -0.000048      0.000000
--------------------------------------------------------------------------------
  Maximum abs         0.004586      0.005776      0.008499      0.000000
--------------------------------------------------------------------------------


  Time to end of optimisation =      27.6519 seconds


  Peak dynamic memory used =      19.13 MB 


  Timing analysis for GULP :

--------------------------------------------------------------------------------
  Task / Subroutine                                          Time (Seconds)
--------------------------------------------------------------------------------
  Calculation of reciprocal space energy and derivatives          0.7186
  Calculation of real space energy and derivatives               24.0629
  Calculation of three-body energy and derivatives                2.4372
  Calculation of matrix inversion                                 0.3722
--------------------------------------------------------------------------------
  Total CPU time                                                 27.6520
--------------------------------------------------------------------------------


  Dump file written as out.res                                                 
  CIF file written as out.cif                                                 


  Job Finished at 07:26.08 14th November   2016                               

