********************************************************************************
*                       GENERAL UTILITY LATTICE PROGRAM                        *
*                                 Julian Gale                                  *
*                      Nanochemistry Research Institute                        *
*                           Department of Chemistry                            *
*                    Curtin University, Western Australia                      *
********************************************************************************
* Version = 4.2.0 * Last modified =  20th January 2014                         *
********************************************************************************
*  optimise     - perform optimisation run                                     *
*  conp         - constant pressure calculation                                *
*  qok          - running with non charge neutral cell is OK                   *
********************************************************************************

  Job Started  at 12:39.03 18th November   2016                               

  Number of CPUs =     1


  Total number of configurations input =   1

********************************************************************************
*  Input for Configuration =   1                                               *
********************************************************************************

  Formula = Si57Ge3O120F6                                               

  Number of irreducible atoms/shells =     312


  Total number atoms/shells =     312

  Dimensionality = 3               :  Bulk   


  Charge on solid   =  -6.000000 =>neutralising background added


  Cartesian lattice vectors (Angstroms) :

       11.958558    0.000000    0.000000
       -5.892245   10.391630    0.000000
        0.184008    0.002644   29.382736

  Cell parameters (Angstroms/Degrees):

  a =      11.9586    alpha =  90.1725
  b =      11.9459    beta  =  89.6412
  c =      29.3833    gamma = 119.5540

  Initial cell volume =        3651.360587 Angs**3

  Temperature of configuration =  0.000     K 

  Pressure of configuration =         0.000 GPa 

  Fractional coordinates of asymmetric unit :

--------------------------------------------------------------------------------
   No.  Atomic       x           y          z         Charge      Occupancy
        Label      (Frac)      (Frac)     (Frac)        (e)         (Frac)  
--------------------------------------------------------------------------------
      1 Si    c    0.699600    0.375700    0.033890     4.00000    1.000000    
      2 Si    c    0.628558 *  0.319538 *  0.368237 *   4.00000    1.000000    
      3 Si    c    0.679446 *  0.287693 *  0.698963 *   4.00000    1.000000    
      4 Si    c    0.302952 *  0.614596 *  0.535586 *   4.00000    1.000000    
      5 Si    c    0.386178 *  0.674074 *  0.869682 *   4.00000    1.000000    
      6 Si    c    0.325866 *  0.691598 *  0.199206 *   4.00000    1.000000    
      7 Si    c    0.390462 *  0.697880 *  0.301546 *   4.00000    1.000000    
      8 Si    c    0.323289 *  0.619598 *  0.972242 *   4.00000    1.000000    
      9 Si    c    0.300287 *  0.668571 *  0.636639 *   4.00000    1.000000    
     10 Si    c    0.626381 *  0.292722 *  0.799909 *   4.00000    1.000000    
     11 Si    c    0.682272 *  0.373516 *  0.469052 *   4.00000    1.000000    
     12 Si    c    0.701967 *  0.331140 *  0.136163 *   4.00000    1.000000    
     13 Ge    c    0.533771 *  0.427929 *  0.967954 *   4.00000    1.000000    
     14 Si    c    0.595496 *  0.112976 *  0.301408 *   4.00000    1.000000    
     15 Si    c    0.890700 *  0.463679 *  0.635313 *   4.00000    1.000000    
     16 Si    c    0.476943 *  0.577773 *  0.470327 *   4.00000    1.000000    
     17 Si    c    0.425427 *  0.883580 *  0.803114 *   4.00000    1.000000    
     18 Si    c    0.106147 *  0.526195 *  0.136863 *   4.00000    1.000000    
     19 Si    c    0.426720 *  0.527354 *  0.368314 *   4.00000    1.000000    
     20 Si    c    0.106934 *  0.578047 *  0.035807 *   4.00000    1.000000    
     21 Si    c    0.474772 *  0.877851 *  0.701270 *   4.00000    1.000000    
     22 Si    c    0.598534 *  0.466071 *  0.867557 *   4.00000    1.000000    
     23 Si    c    0.892740 *  0.411731 *  0.533468 *   4.00000    1.000000    
     24 Si    c    0.536769 *  0.118771 *  0.198443 *   4.00000    1.000000    
     25 Si    c    0.311647 *  0.393979 *  0.854154 *   4.00000    1.000000    
     26 Ge    c    0.595298 *  0.902262 *  0.191865 *   4.00000    1.000000    
     27 Si    c    0.101409 *  0.691100 *  0.520556 *   4.00000    1.000000    
     28 Si    c    0.707118 *  0.598274 *  0.354097 *   4.00000    1.000000    
     29 Si    c    0.402513 *  0.086511 *  0.686081 *   4.00000    1.000000    
     30 Si    c    0.902288 *  0.297369 *  0.022394 *   4.00000    1.000000    
     31 Si    c    0.404486 *  0.296745 *  0.484611 *   4.00000    1.000000    
     32 Si    c    0.903266 *  0.606395 *  0.150573 *   4.00000    1.000000    
     33 Si    c    0.704354 *  0.091645 *  0.816378 *   4.00000    1.000000    
     34 Ge    c    0.609724 *  0.703084 *  0.990261 *   4.00000    1.000000    
     35 Si    c    0.098834 *  0.391068 *  0.650763 *   4.00000    1.000000    
     36 Si    c    0.311819 *  0.901842 *  0.317218 *   4.00000    1.000000    
     37 Si    c    0.253629 *  0.333143 *  0.956618 *   4.00000    1.000000    
     38 Si    c    0.676986 *  0.909866 *  0.287833 *   4.00000    1.000000    
     39 Si    c    0.091274 *  0.741384 *  0.621388 *   4.00000    1.000000    
     40 Si    c    0.755934 *  0.655566 *  0.455178 *   4.00000    1.000000    
     41 Si    c    0.346157 *  0.083858 *  0.787094 *   4.00000    1.000000    
     42 Si    c    0.905754 *  0.248777 *  0.123664 *   4.00000    1.000000    
     43 Si    c    0.348441 *  0.248568 *  0.383613 *   4.00000    1.000000    
     44 Si    c    0.906761 *  0.657808 *  0.049262 *   4.00000    1.000000    
     45 Si    c    0.752194 *  0.079035 *  0.715248 *   4.00000    1.000000    
     46 Si    c    0.673503 *  0.746610 *  0.886076 *   4.00000    1.000000    
     47 Si    c    0.094318 *  0.334628 *  0.549722 *   4.00000    1.000000    
     48 Si    c    0.257481 *  0.910008 *  0.215477 *   4.00000    1.000000    
     49 Si    c    0.970567 *  0.118948 *  0.970565 *   4.00000    1.000000    
     50 Si    c    0.889519 *  0.846616 *  0.305435 *   4.00000    1.000000    
     51 Si    c    0.155132 *  0.021792 *  0.636521 *   4.00000    1.000000    
     52 Si    c    0.035328 *  0.872954 *  0.470486 *   4.00000    1.000000    
     53 Si    c    0.128474 *  0.147225 *  0.803575 *   4.00000    1.000000    
     54 Si    c    0.849531 *  0.970918 *  0.140339 *   4.00000    1.000000    
     55 Si    c    0.132665 *  0.969499 *  0.369808 *   4.00000    1.000000    
     56 Si    c    0.856329 *  0.887452 *  0.039171 *   4.00000    1.000000    
     57 Si    c    0.033131 *  0.144441 *  0.702344 *   4.00000    1.000000    
     58 Si    c    0.883743 *  0.025941 *  0.868768 *   4.00000    1.000000    
     59 Si    c    0.156580 *  0.116276 *  0.535422 *   4.00000    1.000000    
     60 Si    c    0.977818 *  0.853781 *  0.203031 *   4.00000    1.000000    
     61 O2    c    0.939885 *  0.003076 *  0.004342 *   0.87073    1.000000    
     62 O2    c    0.010359 *  0.924283 *  0.338144 *   0.87073    1.000000    
     63 O2    c    0.079177 *  0.065511 *  0.670686 *   0.87073    1.000000    
     64 O2    c    0.075856 *  0.993215 *  0.503723 *   0.87073    1.000000    
     65 O2    c    0.010149 *  0.070652 *  0.837820 *   0.87073    1.000000    
     66 O2    c    0.939104 *  0.940772 *  0.173587 *   0.87073    1.000000    
     67 O2    c    0.351573 *  0.577015 *  0.335362 *   0.87073    1.000000    
     68 O2    c    0.423100 *  0.750961 *  0.669338 *   0.87073    1.000000    
     69 O2    c    0.230273 *  0.653476 *  0.002063 *   0.87073    1.000000    
     70 O2    c    0.668382 *  0.420773 *  0.829872 *   0.87073    1.000000    
     71 O2    c    0.578257 *  0.249378 *  0.169519 *   0.87073    1.000000    
     72 O2    c    0.768096 *  0.334990 *  0.501130 *   0.87073    1.000000    
     73 O3    c    0.581870 *  0.336145 *  0.001695 *   1.33043    1.000000    
     74 O2    c    0.762561 *  0.411437 *  0.666622 *   0.87073    1.000000    
     75 O2    c    0.667749 *  0.235932 *  0.334875 *   0.87073    1.000000    
     76 O2    c    0.426892 *  0.653795 *  0.503045 *   0.87073    1.000000    
     77 O2    c    0.227901 *  0.567060 *  0.170344 *   0.87073    1.000000    
     78 O2    c    0.351033 *  0.759691 *  0.836501 *   0.87073    1.000000    
     79 O2    c    0.122374 *  0.212625 *  0.974292 *   0.87073    1.000000    
     80 O2    c    0.796686 *  0.907443 *  0.313312 *   0.87073    1.000000    
     81 O2    c    0.089759 *  0.867461 *  0.641380 *   0.87073    1.000000    
     82 O2    c    0.881269 *  0.782069 *  0.475045 *   0.87073    1.000000    
     83 O2    c    0.218950 *  0.082560 *  0.807389 *   0.87073    1.000000    
     84 O2    c    0.903211 *  0.124756 *  0.146157 *   0.87073    1.000000    
     85 O2    c    0.222006 *  0.123146 *  0.363832 *   0.87073    1.000000    
     86 O2    c    0.901125 *  0.781202 *  0.029131 *   0.87073    1.000000    
     87 O2    c    0.879459 *  0.078674 *  0.695767 *   0.87073    1.000000    
     88 O2    c    0.792969 *  0.872695 *  0.862255 *   0.87073    1.000000    
     89 O2    c    0.094310 *  0.208230 *  0.529383 *   0.87073    1.000000    
     90 O2    c    0.131205 *  0.909941 *  0.196559 *   0.87073    1.000000    
     91 O2    c    0.946005 *  0.863751 *  0.255303 *   0.87073    1.000000    
     92 O2    c    0.142230 *  0.064992 *  0.586391 *   0.87073    1.000000    
     93 O2    c    0.928727 *  0.063303 *  0.920118 *   0.87073    1.000000    
     94 O2    c    0.071628 *  0.135077 *  0.753612 *   0.87073    1.000000    
     95 O2    c    0.884315 *  0.941528 *  0.089957 *   0.87073    1.000000    
     96 O2    c    0.080573 *  0.929614 *  0.420525 *   0.87073    1.000000    
     97 O2    c    0.898908 *  0.198757 *  0.983433 *   0.87073    1.000000    
     98 O2    c    0.807734 *  0.694141 *  0.316227 *   0.87073    1.000000    
     99 O2    c    0.306321 *  0.087295 *  0.647520 *   0.87073    1.000000    
    100 O2    c    0.104097 *  0.789734 *  0.482101 *   0.87073    1.000000    
    101 O2    c    0.214917 *  0.298615 *  0.815462 *   0.87073    1.000000    
    102 O3    c    0.701785 *  0.895258 *  0.149994 *   1.33043    1.000000    
    103 O2    c    0.217632 *  0.902118 *  0.356936 *   0.87073    1.000000    
    104 O3    c    0.706933 *  0.823796 *  0.028386 *   1.33043    1.000000    
    105 O2    c    0.099997 *  0.295096 *  0.689540 *   0.87073    1.000000    
    106 O2    c    0.803676 *  0.096693 *  0.854678 *   0.87073    1.000000    
    107 O2    c    0.307799 *  0.197448 *  0.522877 *   0.87073    1.000000    
    108 O2    c    0.903109 *  0.703948 *  0.189148 *   0.87073    1.000000    
    109 O2    c    0.335028 *  0.644408 *  0.251172 *   0.87073    1.000000    
    110 O2    c    0.358301 *  0.669777 *  0.586160 *   0.87073    1.000000    
    111 O2    c    0.327533 *  0.667968 *  0.919854 *   0.87073    1.000000    
    112 O2    c    0.681326 *  0.345641 *  0.749148 *   0.87073    1.000000    
    113 O2    c    0.647159 *  0.328886 *  0.085879 *   0.87073    1.000000    
    114 O2    c    0.684253 *  0.317376 *  0.418560 *   0.87073    1.000000    
    115 O3    c    0.366937 *  0.314540 *  0.974937 *   1.33043    1.000000    
    116 O2    c    0.681605 *  0.042870 *  0.304342 *   0.87073    1.000000    
    117 O2    c    0.958471 *  0.619511 *  0.639395 *   0.87073    1.000000    
    118 O2    c    0.632569 *  0.665052 *  0.473469 *   0.87073    1.000000    
    119 O2    c    0.337951 *  0.952832 *  0.806488 *   0.87073    1.000000    
    120 O2    c    0.038186 *  0.371174 *  0.141055 *   0.87073    1.000000    
    121 O2    c    0.339441 *  0.371518 *  0.365046 *   0.87073    1.000000    
    122 O2    c    0.041282 *  0.668713 *  0.031886 *   0.87073    1.000000    
    123 O2    c    0.630716 *  0.945391 *  0.697746 *   0.87073    1.000000    
    124 O2    c    0.681606 *  0.623708 *  0.866534 *   0.87073    1.000000    
    125 O2    c    0.962730 *  0.324749 *  0.530799 *   0.87073    1.000000    
    126 O2    c    0.379690 *  0.042866 *  0.198661 *   0.87073    1.000000    
    127 O2    c    0.770209 *  0.298481 *  0.014638 *   0.87073    1.000000    
    128 O2    c    0.704013 *  0.462635 *  0.346180 *   0.87073    1.000000    
    129 O2    c    0.535894 *  0.219045 *  0.677453 *   0.87073    1.000000    
    130 O2    c    0.235208 *  0.690271 *  0.513138 *   0.87073    1.000000    
    131 O2    c    0.316543 *  0.530816 *  0.847967 *   0.87073    1.000000    
    132 O3    c    0.462178 *  0.752441 *  0.174940 *   1.33043    1.000000    
    133 O2    c    0.316451 *  0.769991 *  0.322241 *   0.87073    1.000000    
    134 O3    c    0.463205 *  0.701278 *  0.993262 *   1.33043    1.000000    
    135 O2    c    0.231288 *  0.525010 *  0.658598 *   0.87073    1.000000    
    136 O2    c    0.700007 *  0.223827 *  0.823108 *   0.87073    1.000000    
    137 O2    c    0.539308 *  0.297752 *  0.491693 *   0.87073    1.000000    
    138 O2    c    0.770095 *  0.473775 *  0.158830 *   0.87073    1.000000    
    139 O2    c    0.786805 *  0.531925 *  0.028359 *   0.87073    1.000000    
    140 O2    c    0.472765 *  0.244840 *  0.363765 *   0.87073    1.000000    
    141 O2    c    0.751815 *  0.203403 *  0.694143 *   0.87073    1.000000    
    142 O2    c    0.221258 *  0.459055 *  0.530498 *   0.87073    1.000000    
    143 O2    c    0.539929 *  0.737394 *  0.870057 *   0.87073    1.000000    
    144 O2    c    0.263127 *  0.786140 *  0.197453 *   0.87073    1.000000    
    145 O2    c    0.544792 *  0.784927 *  0.305429 *   0.87073    1.000000    
    146 O2    c    0.263393 *  0.465458 *  0.975585 *   0.87073    1.000000    
    147 O2    c    0.217195 *  0.742239 *  0.641346 *   0.87073    1.000000    
    148 O2    c    0.470524 *  0.211908 *  0.805485 *   0.87073    1.000000    
    149 O2    c    0.755667 *  0.529210 *  0.474548 *   0.87073    1.000000    
    150 O2    c    0.782298 *  0.255608 *  0.142301 *   0.87073    1.000000    
    151 O2    c    0.244392 *  0.326578 *  0.901367 *   0.87073    1.000000    
    152 O3    c    0.703455 *  0.907225 *  0.235285 *   1.33043    1.000000    
    153 O2    c    0.094639 *  0.761155 *  0.566931 *   0.87073    1.000000    
    154 O2    c    0.775633 *  0.671736 *  0.400792 *   0.87073    1.000000    
    155 O2    c    0.327758 *  0.083357 *  0.732640 *   0.87073    1.000000    
    156 O2    c    0.905811 *  0.227785 *  0.069143 *   0.87073    1.000000    
    157 O2    c    0.330375 *  0.228453 *  0.438039 *   0.87073    1.000000    
    158 O2    c    0.904401 *  0.677600 *  0.103753 *   0.87073    1.000000    
    159 O2    c    0.773067 *  0.085304 *  0.769592 *   0.87073    1.000000    
    160 O3    c    0.694239 *  0.770058 *  0.939054 *   1.33043    1.000000    
    161 O2    c    0.095380 *  0.316770 *  0.604188 *   0.87073    1.000000    
    162 O2    c    0.246237 *  0.907330 *  0.270376 *   0.87073    1.000000    
    163 O1    c    0.601555 *  0.563412 *  0.004809 *   1.73396    1.000000    
    164 O2    c    0.453672 *  0.022245 *  0.322681 *   0.87073    1.000000    
    165 O2    c    0.973245 *  0.405590 *  0.659168 *   0.87073    1.000000    
    166 O2    c    0.419237 *  0.436664 *  0.493576 *   0.87073    1.000000    
    167 O2    c    0.566569 *  0.965204 *  0.825782 *   0.87073    1.000000    
    168 O2    c    0.028844 *  0.592275 *  0.159886 *   0.87073    1.000000    
    169 O2    c    0.568225 *  0.585641 *  0.345321 *   0.87073    1.000000    
    170 O2    c    0.027976 *  0.435927 *  0.013038 *   0.87073    1.000000    
    171 O2    c    0.416944 *  0.960830 *  0.677611 *   0.87073    1.000000    
    172 O2    c    0.453230 *  0.413408 *  0.847921 *   0.87073    1.000000    
    173 O2    c    0.977057 *  0.552916 *  0.510630 *   0.87073    1.000000    
    174 O3    c    0.595576 *  0.042563 *  0.172355 *   1.33043    1.000000    
    175 O2    c    0.590798 *  0.161886 *  0.250590 *   0.87073    1.000000    
    176 O2    c    0.838953 *  0.412179 *  0.584309 *   0.87073    1.000000    
    177 O3    c    0.604207 *  0.410527 *  0.915666 *   1.33043    1.000000    
    178 O2    c    0.422817 *  0.826456 *  0.752561 *   0.87073    1.000000    
    179 O2    c    0.164679 *  0.580839 *  0.086260 *   0.87073    1.000000    
    180 O2    c    0.424594 *  0.579190 *  0.419408 *   0.87073    1.000000    
    181 F     c    0.490619 *  0.903730 *  0.240895 *   0.56000    1.000000    
    182 F     c    0.098810 *  0.541555 *  0.585356 *   0.56000    1.000000    
    183 F     c    0.485576 *  0.531873 *  0.931657 *   0.56000    1.000000    
    184 F     c    0.550715 *  0.085482 *  0.751142 *   0.56000    1.000000    
    185 F     c    0.910380 *  0.457126 *  0.086828 *   0.56000    1.000000    
    186 F     c    0.554333 *  0.446952 *  0.419007 *   0.56000    1.000000    
    187 O2    s    0.934310 *  0.003716 *  0.004270 *  -2.87073    1.000000    
    188 O2    s    0.010968 *  0.920799 *  0.338138 *  -2.87073    1.000000    
    189 O2    s    0.082538 *  0.069478 *  0.670407 *  -2.87073    1.000000    
    190 O2    s    0.080345 *  0.993516 *  0.503546 *  -2.87073    1.000000    
    191 O2    s    0.009576 *  0.074336 *  0.837366 *  -2.87073    1.000000    
    192 O2    s    0.934244 *  0.933894 *  0.173513 *  -2.87073    1.000000    
    193 O2    s    0.363304 *  0.584428 *  0.335238 *  -2.87073    1.000000    
    194 O2    s    0.415812 *  0.755545 *  0.669253 *  -2.87073    1.000000    
    195 O2    s    0.227681 *  0.642218 *  0.002293 *  -2.87073    1.000000    
    196 O2    s    0.656899 *  0.411893 *  0.830519 *  -2.87073    1.000000    
    197 O2    s    0.586250 *  0.244216 *  0.169162 *  -2.87073    1.000000    
    198 O2    s    0.772149 *  0.346868 *  0.501163 *  -2.87073    1.000000    
    199 O3    s    0.591267 *  0.346758 *  0.002848 *  -3.33043    1.000000    
    200 O2    s    0.767205 *  0.404003 *  0.666742 *  -2.87073    1.000000    
    201 O2    s    0.656164 *  0.231765 *  0.334847 *  -2.87073    1.000000    
    202 O2    s    0.419277 *  0.641915 *  0.503038 *  -2.87073    1.000000    
    203 O2    s    0.226027 *  0.576298 *  0.170046 *  -2.87073    1.000000    
    204 O2    s    0.362328 *  0.763277 *  0.836609 *  -2.87073    1.000000    
    205 O2    s    0.119852 *  0.215472 *  0.971930 *  -2.87073    1.000000    
    206 O2    s    0.794512 *  0.901239 *  0.309989 *  -2.87073    1.000000    
    207 O2    s    0.096844 *  0.870792 *  0.638824 *  -2.87073    1.000000    
    208 O2    s    0.884638 *  0.778660 *  0.472551 *  -2.87073    1.000000    
    209 O2    s    0.222482 *  0.089574 *  0.804910 *  -2.87073    1.000000    
    210 O2    s    0.898072 *  0.122518 *  0.143188 *  -2.87073    1.000000    
    211 O2    s    0.225528 *  0.119716 *  0.366476 *  -2.87073    1.000000    
    212 O2    s    0.897124 *  0.779175 *  0.032191 *  -2.87073    1.000000    
    213 O2    s    0.882606 *  0.085651 *  0.698441 *  -2.87073    1.000000    
    214 O2    s    0.790692 *  0.876378 *  0.865271 *  -2.87073    1.000000    
    215 O2    s    0.100970 *  0.211528 *  0.532109 *  -2.87073    1.000000    
    216 O2    s    0.128863 *  0.904114 *  0.199240 *  -2.87073    1.000000    
    217 O2    s    0.943047 *  0.860652 *  0.255258 *  -2.87073    1.000000    
    218 O2    s    0.145309 *  0.065892 *  0.586298 *  -2.87073    1.000000    
    219 O2    s    0.928246 *  0.065213 *  0.919837 *  -2.87073    1.000000    
    220 O2    s    0.073704 *  0.137480 *  0.753474 *  -2.87073    1.000000    
    221 O2    s    0.877540 *  0.938494 *  0.089472 *  -2.87073    1.000000    
    222 O2    s    0.081378 *  0.927728 *  0.420409 *  -2.87073    1.000000    
    223 O2    s    0.906995 *  0.200134 *  0.985993 *  -2.87073    1.000000    
    224 O2    s    0.805896 *  0.700193 *  0.319017 *  -2.87073    1.000000    
    225 O2    s    0.300047 *  0.080196 *  0.650312 *  -2.87073    1.000000    
    226 O2    s    0.096443 *  0.788517 *  0.484804 *  -2.87073    1.000000    
    227 O2    s    0.215814 *  0.292575 *  0.818185 *  -2.87073    1.000000    
    228 O3    s    0.711107 *  0.904052 *  0.151651 *  -3.33043    1.000000    
    229 O2    s    0.218668 *  0.909110 *  0.354119 *  -2.87073    1.000000    
    230 O3    s    0.714474 *  0.821029 *  0.026579 *  -3.33043    1.000000    
    231 O2    s    0.092756 *  0.288906 *  0.686920 *  -2.87073    1.000000    
    232 O2    s    0.801851 *  0.088696 *  0.852187 *  -2.87073    1.000000    
    233 O2    s    0.301684 *  0.198977 *  0.520311 *  -2.87073    1.000000    
    234 O2    s    0.911152 *  0.710044 *  0.186687 *  -2.87073    1.000000    
    235 O2    s    0.339992 *  0.654504 *  0.251508 *  -2.87073    1.000000    
    236 O2    s    0.346704 *  0.664003 *  0.586139 *  -2.87073    1.000000    
    237 O2    s    0.333290 *  0.663827 *  0.919696 *  -2.87073    1.000000    
    238 O2    s    0.675397 *  0.334013 *  0.749171 *  -2.87073    1.000000    
    239 O2    s    0.658219 *  0.333779 *  0.086125 *  -2.87073    1.000000    
    240 O2    s    0.678353 *  0.323321 *  0.418572 *  -2.87073    1.000000    
    241 O3    s    0.366305 *  0.324390 *  0.972461 *  -3.33043    1.000000    
    242 O2    s    0.672111 *  0.036905 *  0.302365 *  -2.87073    1.000000    
    243 O2    s    0.965350 *  0.616215 *  0.637094 *  -2.87073    1.000000    
    244 O2    s    0.629473 *  0.655103 *  0.471229 *  -2.87073    1.000000    
    245 O2    s    0.347862 *  0.959285 *  0.804113 *  -2.87073    1.000000    
    246 O2    s    0.031446 *  0.374692 *  0.138765 *  -2.87073    1.000000    
    247 O2    s    0.349353 *  0.374618 *  0.367342 *  -2.87073    1.000000    
    248 O2    s    0.034236 *  0.658282 *  0.034090 *  -2.87073    1.000000    
    249 O2    s    0.627384 *  0.952328 *  0.699927 *  -2.87073    1.000000    
    250 O2    s    0.672616 *  0.621013 *  0.868682 *  -2.87073    1.000000    
    251 O2    s    0.969329 *  0.334760 *  0.533069 *  -2.87073    1.000000    
    252 O2    s    0.382390 *  0.036297 *  0.200446 *  -2.87073    1.000000    
    253 O2    s    0.777596 *  0.306280 *  0.017512 *  -2.87073    1.000000    
    254 O2    s    0.696486 *  0.462105 *  0.349348 *  -2.87073    1.000000    
    255 O2    s    0.536648 *  0.212148 *  0.680611 *  -2.87073    1.000000    
    256 O2    s    0.228041 *  0.682549 *  0.516272 *  -2.87073    1.000000    
    257 O2    s    0.323258 *  0.531337 *  0.850875 *  -2.87073    1.000000    
    258 O3    s    0.457340 *  0.756583 *  0.178671 *  -3.33043    1.000000    
    259 O2    s    0.323546 *  0.776769 *  0.319564 *  -2.87073    1.000000    
    260 O3    s    0.460309 *  0.693100 *  0.990872 *  -3.33043    1.000000    
    261 O2    s    0.224464 *  0.525712 *  0.655481 *  -2.87073    1.000000    
    262 O2    s    0.692860 *  0.216843 *  0.819971 *  -2.87073    1.000000    
    263 O2    s    0.539829 *  0.305411 *  0.488598 *  -2.87073    1.000000    
    264 O2    s    0.777221 *  0.473176 *  0.155596 *  -2.87073    1.000000    
    265 O2    s    0.791564 *  0.530245 *  0.031172 *  -2.87073    1.000000    
    266 O2    s    0.475489 *  0.253022 *  0.366340 *  -2.87073    1.000000    
    267 O2    s    0.744219 *  0.198656 *  0.696886 *  -2.87073    1.000000    
    268 O2    s    0.215942 *  0.461815 *  0.533086 *  -2.87073    1.000000    
    269 O2    s    0.537167 *  0.731372 *  0.871691 *  -2.87073    1.000000    
    270 O2    s    0.268938 *  0.790600 *  0.199625 *  -2.87073    1.000000    
    271 O2    s    0.541749 *  0.788445 *  0.303222 *  -2.87073    1.000000    
    272 O2    s    0.268927 *  0.468110 *  0.973277 *  -2.87073    1.000000    
    273 O2    s    0.212190 *  0.734369 *  0.638733 *  -2.87073    1.000000    
    274 O2    s    0.473100 *  0.206303 *  0.802957 *  -2.87073    1.000000    
    275 O2    s    0.748003 *  0.526744 *  0.471919 *  -2.87073    1.000000    
    276 O2    s    0.787373 *  0.262962 *  0.139673 *  -2.87073    1.000000    
    277 O2    s    0.252679 *  0.334604 *  0.901817 *  -2.87073    1.000000    
    278 O3    s    0.693547 *  0.907207 *  0.238022 *  -3.33043    1.000000    
    279 O2    s    0.094984 *  0.751713 *  0.567850 *  -2.87073    1.000000    
    280 O2    s    0.766347 *  0.662311 *  0.401735 *  -2.87073    1.000000    
    281 O2    s    0.337522 *  0.083727 *  0.733537 *  -2.87073    1.000000    
    282 O2    s    0.905456 *  0.237226 *  0.069921 *  -2.87073    1.000000    
    283 O2    s    0.340085 *  0.237772 *  0.437154 *  -2.87073    1.000000    
    284 O2    s    0.904541 *  0.668007 *  0.103015 *  -2.87073    1.000000    
    285 O2    s    0.763592 *  0.085300 *  0.768714 *  -2.87073    1.000000    
    286 O3    s    0.685882 *  0.762621 *  0.937182 *  -3.33043    1.000000    
    287 O2    s    0.095634 *  0.326461 *  0.603315 *  -2.87073    1.000000    
    288 O2    s    0.254516 *  0.907023 *  0.269720 *  -2.87073    1.000000    
    289 O1    s    0.597589 *  0.566381 *  0.001205 *  -3.73396    1.000000    
    290 O2    s    0.452877 *  0.018346 *  0.319845 *  -2.87073    1.000000    
    291 O2    s    0.978359 *  0.410243 *  0.655777 *  -2.87073    1.000000    
    292 O2    s    0.423820 *  0.436250 *  0.490193 *  -2.87073    1.000000    
    293 O2    s    0.566438 *  0.970204 *  0.822408 *  -2.87073    1.000000    
    294 O2    s    0.023352 *  0.586846 *  0.156506 *  -2.87073    1.000000    
    295 O2    s    0.568314 *  0.580744 *  0.348668 *  -2.87073    1.000000    
    296 O2    s    0.022731 *  0.435954 *  0.016389 *  -2.87073    1.000000    
    297 O2    s    0.421616 *  0.965882 *  0.681007 *  -2.87073    1.000000    
    298 O2    s    0.451893 *  0.416592 *  0.850577 *  -2.87073    1.000000    
    299 O2    s    0.981791 *  0.553016 *  0.514087 *  -2.87073    1.000000    
    300 O3    s    0.589292 *  0.039962 *  0.176450 *  -3.33043    1.000000    
    301 O2    s    0.586062 *  0.152441 *  0.250939 *  -2.87073    1.000000    
    302 O2    s    0.850005 *  0.417529 *  0.584315 *  -2.87073    1.000000    
    303 O3    s    0.598999 *  0.417657 *  0.913984 *  -3.33043    1.000000    
    304 O2    s    0.428446 *  0.837669 *  0.752514 *  -2.87073    1.000000    
    305 O2    s    0.152915 *  0.575044 *  0.086261 *  -2.87073    1.000000    
    306 O2    s    0.430195 *  0.573674 *  0.419358 *  -2.87073    1.000000    
    307 F     s    0.497268 *  0.903564 *  0.237952 *  -1.56000    1.000000    
    308 F     s    0.099054 *  0.541759 *  0.585339 *  -1.56000    1.000000    
    309 F     s    0.489426 *  0.527135 *  0.934039 *  -1.56000    1.000000    
    310 F     s    0.550656 *  0.085515 *  0.751148 *  -1.56000    1.000000    
    311 F     s    0.911119 *  0.457612 *  0.086919 *  -1.56000    1.000000    
    312 F     s    0.554433 *  0.446650 *  0.418987 *  -1.56000    1.000000    
--------------------------------------------------------------------------------



********************************************************************************
*  General input information                                                   *
********************************************************************************

  Species output for all configurations : 

--------------------------------------------------------------------------------
  Species    Type    Atomic    Atomic    Charge       Radii (Angs)     Library
                     Number     Mass       (e)     Cova   Ionic  VDW   Symbol
--------------------------------------------------------------------------------
    Si       Core       14      28.09   4.000000   1.200  0.000  2.100          
    O1       Core        8      16.00   1.733957   0.730  0.000  1.360          
    O1       Shell       8       0.00  -3.733957   0.730  0.000  1.360          
    O2       Core        8      16.00   0.870733   0.730  0.000  1.360          
    O2       Shell       8       0.00  -2.870733   0.730  0.000  1.360          
    O3       Core        8      16.00   1.330431   0.730  0.000  1.360          
    O3       Shell       8       0.00  -3.330431   0.730  0.000  1.360          
    F        Core        9      19.00   0.560000   0.710  0.000  1.300          
    F        Shell       9       0.00  -1.560000   0.710  0.000  1.300          
    Ge       Core       32      72.61   4.000000   1.170  0.000  1.750          
--------------------------------------------------------------------------------


  Lattice summation method               =    Ewald          (3-D)
                                         =    Parry          (2-D)
                                         =    Saunders et al (1-D)
  Accuracy factor for lattice sums       =   12.000


  Time limit = Infinity

  Maximum range for interatomic potentials =        16.000000 Angstroms

  Taper potentials to zero over   1.0000 Angstroms using polynomial

  General interatomic potentials :

--------------------------------------------------------------------------------
Atom  Types   Potential         A         B         C         D     Cutoffs(Ang)
  1     2                                                            Min    Max 
--------------------------------------------------------------------------------
Si   c O1   s Buckingham    0.132E+04 0.318      10.1      0.00     0.000 16.000
Si   c O2   s Buckingham    0.132E+04 0.318      10.1      0.00     0.000 16.000
Si   c O3   s Buckingham    0.132E+04 0.318      10.1      0.00     0.000 16.000
Ge   c O1   s Buckingham    0.150E+04 0.326      16.8      0.00     0.000 16.000
Ge   c O2   s Buckingham    0.150E+04 0.326      16.8      0.00     0.000 16.000
Ge   c O3   s Buckingham    0.150E+04 0.326      16.8      0.00     0.000 16.000
O1   s O1   s Buckingham    0.228E+05 0.149      10.9      0.00     0.000 16.000
O1   s O2   s Buckingham    0.228E+05 0.149      10.9      0.00     0.000 16.000
O1   s O3   s Buckingham    0.228E+05 0.149      10.9      0.00     0.000 16.000
O2   s O2   s Buckingham    0.228E+05 0.149      10.9      0.00     0.000 16.000
O2   s O3   s Buckingham    0.228E+05 0.149      10.9      0.00     0.000 16.000
O3   s O3   s Buckingham    0.228E+05 0.149      10.9      0.00     0.000 16.000
Si   c F    s Buckingham     977.     0.282      0.00      0.00     0.000 16.000
Ge   c F    s Buckingham     681.     0.320      0.00      0.00     0.000 16.000
F    s F    s Buckingham     540.     0.262      0.00      0.00     0.000 16.000
O1   s F    s Buckingham    0.168E+04 0.268      0.00      0.00     0.000 16.000
O2   s F    s Buckingham    0.168E+04 0.268      0.00      0.00     0.000 16.000
O3   s F    s Buckingham    0.168E+04 0.268      0.00      0.00     0.000 16.000
O2   c O2   s Spring (c-s)   76.0      0.00      0.00      0.00     0.000  0.800
O3   c O3   s Spring (c-s)   128.      0.00      0.00      0.00     0.000  0.800
O1   c O1   s Spring (c-s)   180.      0.00      0.00      0.00     0.000  0.800
F    c F    s Spring (c-s)   33.5      0.00      0.00      0.00     0.000  0.800
--------------------------------------------------------------------------------

  General Three-body potentials :

  Harmonic form:

--------------------------------------------------------------------------------
Atom    Atom    Atom           Force Constants            Theta     Cutoffs  
  1       2       3     (eVrad**-2/eVrad**-3/eVrad**-4)   (deg)  1-2  1-3  2-3
--------------------------------------------------------------------------------
Si    c O1    s O1    s  1.261        0.0000    0.0000   109.470 0.00 0.00 0.00
                                                                 1.90 1.90 3.50
Si    c O1    s O2    s  1.261        0.0000    0.0000   109.470 0.00 0.00 0.00
                                                                 1.90 1.90 3.50
Si    c O2    s O2    s  1.261        0.0000    0.0000   109.470 0.00 0.00 0.00
                                                                 1.90 1.90 3.50
--------------------------------------------------------------------------------

********************************************************************************
*  Output for configuration   1                                                *
********************************************************************************


  Components of energy : 

--------------------------------------------------------------------------------
  Interatomic potentials     =        2064.78756574 eV
  Three-body potentials      =           0.48441485 eV
  Monopole - monopole (real) =       -6612.17531634 eV
  Monopole - monopole (recip)=       -3173.25335136 eV
  Monopole - monopole (total)=       -9785.42866770 eV
  Neutralising energy        =          -6.46324130 eV
--------------------------------------------------------------------------------
  Total lattice energy       =       -7726.61992841 eV
--------------------------------------------------------------------------------
  Total lattice energy       =         -745500.7109 kJ/(mole unit cells)
--------------------------------------------------------------------------------


  Number of variables =      939

  Maximum number of calculations  =          5000
  Maximum Hessian update interval =            10
  Maximum step size               =   0.100000000
  Maximum parameter tolerance     =   0.000010000
  Maximum function  tolerance     =   0.000010000
  Maximum gradient  tolerance     =   0.001000000
  Maximum gradient  component     =   0.010000000

  Symmetry not applied to optimisation

  Cell parameters to be optimised using strains

  Newton-Raphson optimiser to be used

  BFGS hessian update to be used

  Dumpfile to be written after every cycle

  Start of bulk optimisation :

  Cycle:      0 Energy:     -7726.619928  Gnorm:      0.000474  CPU:    2.029
  ** Hessian calculated **
  Cycle:      1 Energy:     -7726.632378  Gnorm:      0.000384  CPU:    6.628
  Cycle:      2 Energy:     -7726.642196  Gnorm:      0.000557  CPU:   10.847
  Cycle:      3 Energy:     -7726.644656  Gnorm:      0.000447  CPU:   15.072
  Cycle:      4 Energy:     -7726.645272  Gnorm:      0.000266  CPU:   19.294
  Cycle:      5 Energy:     -7726.645427  Gnorm:      0.000145  CPU:   23.513
  Cycle:      6 Energy:     -7726.645453  Gnorm:      0.000103  CPU:   26.363
  Cycle:      7 Energy:     -7726.645466  Gnorm:      0.000073  CPU:   29.219
  Cycle:      8 Energy:     -7726.645472  Gnorm:      0.000051  CPU:   32.070


  **** Optimisation achieved ****


  Final energy =   -7726.64547561 eV
  Final Gnorm  =       0.00003587

  Components of energy : 

--------------------------------------------------------------------------------
  Interatomic potentials     =        2065.12811860 eV
  Three-body potentials      =           0.48528968 eV
  Monopole - monopole (real) =       -6611.62464074 eV
  Monopole - monopole (recip)=       -3174.16913574 eV
  Monopole - monopole (total)=       -9785.79377649 eV
  Neutralising energy        =          -6.46510739 eV
--------------------------------------------------------------------------------
  Total lattice energy       =       -7726.64547561 eV
--------------------------------------------------------------------------------
  Total lattice energy       =         -745503.1758 kJ/(mole unit cells)
--------------------------------------------------------------------------------

  Final fractional coordinates of atoms :

--------------------------------------------------------------------------------
   No.  Atomic        x           y          z          Radius
        Label       (Frac)      (Frac)     (Frac)       (Angs) 
--------------------------------------------------------------------------------
     1  Si    c     0.699600    0.375700    0.033890    0.000000
     2  Si    c     0.640797    0.317804    0.367338    0.000000
     3  Si    c     0.689916    0.287322    0.698218    0.000000
     4  Si    c     0.314347    0.612510    0.534166    0.000000
     5  Si    c     0.393399    0.672353    0.868205    0.000000
     6  Si    c     0.334879    0.690243    0.197393    0.000000
     7  Si    c     0.400227    0.694659    0.299683    0.000000
     8  Si    c     0.328231    0.619999    0.970686    0.000000
     9  Si    c     0.311830    0.666732    0.635180    0.000000
    10  Si    c     0.634892    0.291341    0.799107    0.000000
    11  Si    c     0.693926    0.371903    0.468087    0.000000
    12  Si    c     0.709241    0.332630    0.135894    0.000000
    13  Ge    c     0.535956    0.427388    0.967169    0.000000
    14  Si    c     0.605988    0.110377    0.300754    0.000000
    15  Si    c     0.902081    0.462274    0.634549    0.000000
    16  Si    c     0.488211    0.575855    0.468629    0.000000
    17  Si    c     0.434245    0.881763    0.801413    0.000000
    18  Si    c     0.113763    0.526648    0.134964    0.000000
    19  Si    c     0.438357    0.525271    0.366550    0.000000
    20  Si    c     0.110197    0.576802    0.033844    0.000000
    21  Si    c     0.485326    0.876776    0.699646    0.000000
    22  Si    c     0.604979    0.463303    0.867214    0.000000
    23  Si    c     0.903874    0.409884    0.532681    0.000000
    24  Si    c     0.547136    0.118587    0.197942    0.000000
    25  Si    c     0.317992    0.391620    0.853327    0.000000
    26  Ge    c     0.604532    0.901232    0.191003    0.000000
    27  Si    c     0.112640    0.689187    0.519421    0.000000
    28  Si    c     0.719312    0.596270    0.352738    0.000000
    29  Si    c     0.413331    0.085915    0.684910    0.000000
    30  Si    c     0.902943    0.296554    0.021247    0.000000
    31  Si    c     0.415730    0.294845    0.483341    0.000000
    32  Si    c     0.911495    0.607563    0.149411    0.000000
    33  Si    c     0.712859    0.089906    0.814932    0.000000
    34  Ge    c     0.614432    0.703357    0.989863    0.000000
    35  Si    c     0.110453    0.389492    0.649684    0.000000
    36  Si    c     0.322012    0.898924    0.316095    0.000000
    37  Si    c     0.256529    0.332509    0.955734    0.000000
    38  Si    c     0.687244    0.907044    0.286669    0.000000
    39  Si    c     0.102892    0.739948    0.620262    0.000000
    40  Si    c     0.767460    0.653735    0.453826    0.000000
    41  Si    c     0.354850    0.082215    0.785794    0.000000
    42  Si    c     0.912003    0.249037    0.122350    0.000000
    43  Si    c     0.360340    0.246486    0.382311    0.000000
    44  Si    c     0.910511    0.657149    0.048244    0.000000
    45  Si    c     0.762569    0.078261    0.713944    0.000000
    46  Si    c     0.680277    0.744472    0.885524    0.000000
    47  Si    c     0.105621    0.332793    0.548661    0.000000
    48  Si    c     0.267459    0.909295    0.214538    0.000000
    49  Si    c     0.973059    0.118993    0.969713    0.000000
    50  Si    c     0.900709    0.845290    0.304449    0.000000
    51  Si    c     0.166031    0.020348    0.635438    0.000000
    52  Si    c     0.046623    0.871116    0.469387    0.000000
    53  Si    c     0.136216    0.144406    0.802687    0.000000
    54  Si    c     0.859185    0.972063    0.139479    0.000000
    55  Si    c     0.143821    0.967530    0.368735    0.000000
    56  Si    c     0.861512    0.887583    0.038299    0.000000
    57  Si    c     0.043331    0.142613    0.701230    0.000000
    58  Si    c     0.891154    0.023749    0.867830    0.000000
    59  Si    c     0.167752    0.114432    0.534313    0.000000
    60  Si    c     0.988565    0.855611    0.201863    0.000000
    61  O2    c     0.943490    0.003105    0.003302    0.000000
    62  O2    c     0.021191    0.923001    0.337288    0.000000
    63  O2    c     0.089401    0.063211    0.669739    0.000000
    64  O2    c     0.087067    0.991026    0.502791    0.000000
    65  O2    c     0.018124    0.067353    0.837113    0.000000
    66  O2    c     0.950632    0.943639    0.172512    0.000000
    67  O2    c     0.362467    0.573717    0.333407    0.000000
    68  O2    c     0.434795    0.750018    0.667712    0.000000
    69  O2    c     0.233146    0.652681    0.999859    0.000000
    70  O2    c     0.675636    0.418310    0.829646    0.000000
    71  O2    c     0.587078    0.250053    0.169834    0.000000
    72  O2    c     0.779174    0.333218    0.500400    0.000000
    73  O3    c     0.581606    0.335327    0.002069    0.000000
    74  O2    c     0.774133    0.411162    0.666004    0.000000
    75  O2    c     0.679356    0.233076    0.334250    0.000000
    76  O2    c     0.437919    0.651813    0.501355    0.000000
    77  O2    c     0.236542    0.567122    0.167951    0.000000
    78  O2    c     0.359063    0.757558    0.834562    0.000000
    79  O2    c     0.124432    0.214386    0.973848    0.000000
    80  O2    c     0.806216    0.904240    0.312535    0.000000
    81  O2    c     0.101429    0.866067    0.640289    0.000000
    82  O2    c     0.892488    0.780336    0.473792    0.000000
    83  O2    c     0.227336    0.080292    0.806211    0.000000
    84  O2    c     0.911153    0.125747    0.144845    0.000000
    85  O2    c     0.234074    0.120994    0.362504    0.000000
    86  O2    c     0.905033    0.780497    0.027876    0.000000
    87  O2    c     0.889833    0.077956    0.694311    0.000000
    88  O2    c     0.800566    0.870260    0.861824    0.000000
    89  O2    c     0.105379    0.206316    0.528214    0.000000
    90  O2    c     0.141888    0.910592    0.195512    0.000000
    91  O2    c     0.957393    0.865334    0.254247    0.000000
    92  O2    c     0.153043    0.063438    0.585327    0.000000
    93  O2    c     0.934562    0.063022    0.919179    0.000000
    94  O2    c     0.079531    0.132132    0.752705    0.000000
    95  O2    c     0.892730    0.942160    0.088947    0.000000
    96  O2    c     0.092303    0.928597    0.419555    0.000000
    97  O2    c     0.898845    0.196837    0.982322    0.000000
    98  O2    c     0.820226    0.692437    0.314903    0.000000
    99  O2    c     0.317392    0.086780    0.646287    0.000000
   100  O2    c     0.115194    0.787569    0.480905    0.000000
   101  O2    c     0.222099    0.295850    0.814562    0.000000
   102  O3    c     0.711505    0.894861    0.149220    0.000000
   103  O2    c     0.227647    0.898738    0.355911    0.000000
   104  O3    c     0.711564    0.823977    0.027976    0.000000
   105  O2    c     0.111544    0.293441    0.688471    0.000000
   106  O2    c     0.811758    0.094661    0.853237    0.000000
   107  O2    c     0.319013    0.195661    0.521660    0.000000
   108  O2    c     0.912796    0.705892    0.187967    0.000000
   109  O2    c     0.344208    0.641940    0.249256    0.000000
   110  O2    c     0.369995    0.667685    0.584716    0.000000
   111  O2    c     0.333334    0.667082    0.918081    0.000000
   112  O2    c     0.690836    0.345020    0.748443    0.000000
   113  O2    c     0.650764    0.329926    0.086223    0.000000
   114  O2    c     0.696593    0.315804    0.417638    0.000000
   115  O3    c     0.369269    0.312982    0.974044    0.000000
   116  O2    c     0.691532    0.039643    0.303519    0.000000
   117  O2    c     0.970220    0.618168    0.638430    0.000000
   118  O2    c     0.643814    0.663277    0.471880    0.000000
   119  O2    c     0.346737    0.951017    0.804897    0.000000
   120  O2    c     0.045187    0.371618    0.139142    0.000000
   121  O2    c     0.351478    0.369358    0.363572    0.000000
   122  O2    c     0.044117    0.667161    0.030123    0.000000
   123  O2    c     0.641355    0.944722    0.696297    0.000000
   124  O2    c     0.687899    0.621053    0.866145    0.000000
   125  O2    c     0.973802    0.322786    0.529933    0.000000
   126  O2    c     0.390021    0.042246    0.198154    0.000000
   127  O2    c     0.770919    0.298435    0.014443    0.000000
   128  O2    c     0.716498    0.460620    0.344982    0.000000
   129  O2    c     0.546604    0.218849    0.676501    0.000000
   130  O2    c     0.246407    0.688216    0.511890    0.000000
   131  O2    c     0.324335    0.528984    0.846571    0.000000
   132  O3    c     0.471586    0.751713    0.173373    0.000000
   133  O2    c     0.326428    0.766789    0.320714    0.000000
   134  O3    c     0.467995    0.702466    0.991788    0.000000
   135  O2    c     0.243126    0.523414    0.657389    0.000000
   136  O2    c     0.708438    0.222035    0.822046    0.000000
   137  O2    c     0.550660    0.296075    0.490573    0.000000
   138  O2    c     0.778287    0.475364    0.158491    0.000000
   139  O2    c     0.788248    0.531760    0.028171    0.000000
   140  O2    c     0.484982    0.242849    0.362677    0.000000
   141  O2    c     0.762423    0.203114    0.693220    0.000000
   142  O2    c     0.232568    0.456926    0.529220    0.000000
   143  O2    c     0.547184    0.735755    0.869125    0.000000
   144  O2    c     0.272771    0.785426    0.196204    0.000000
   145  O2    c     0.554555    0.781338    0.303578    0.000000
   146  O2    c     0.268717    0.466076    0.974475    0.000000
   147  O2    c     0.228953    0.740711    0.640021    0.000000
   148  O2    c     0.478960    0.210219    0.804334    0.000000
   149  O2    c     0.767318    0.527658    0.473472    0.000000
   150  O2    c     0.789253    0.256479    0.141530    0.000000
   151  O2    c     0.248413    0.325342    0.900432    0.000000
   152  O3    c     0.713702    0.905700    0.234096    0.000000
   153  O2    c     0.106021    0.759410    0.565799    0.000000
   154  O2    c     0.787728    0.669812    0.399441    0.000000
   155  O2    c     0.337432    0.082204    0.731311    0.000000
   156  O2    c     0.909014    0.227451    0.067802    0.000000
   157  O2    c     0.341981    0.226524    0.436745    0.000000
   158  O2    c     0.910999    0.678593    0.102735    0.000000
   159  O2    c     0.782657    0.084016    0.768308    0.000000
   160  O3    c     0.699778    0.767924    0.938539    0.000000
   161  O2    c     0.106994    0.314981    0.603129    0.000000
   162  O2    c     0.256081    0.905253    0.269455    0.000000
   163  O1    c     0.603247    0.562506    0.004370    0.000000
   164  O2    c     0.463832    0.019267    0.321837    0.000000
   165  O2    c     0.984829    0.404137    0.658244    0.000000
   166  O2    c     0.430389    0.434880    0.492005    0.000000
   167  O2    c     0.575188    0.963145    0.824216    0.000000
   168  O2    c     0.037518    0.593612    0.158288    0.000000
   169  O2    c     0.580299    0.583486    0.343820    0.000000
   170  O2    c     0.029342    0.434517    0.011375    0.000000
   171  O2    c     0.427891    0.960314    0.676149    0.000000
   172  O2    c     0.459330    0.409663    0.847665    0.000000
   173  O2    c     0.988189    0.550929    0.509746    0.000000
   174  O3    c     0.605706    0.042361    0.171658    0.000000
   175  O2    c     0.601434    0.160110    0.250103    0.000000
   176  O2    c     0.850262    0.410507    0.583577    0.000000
   177  O3    c     0.609412    0.408731    0.915638    0.000000
   178  O2    c     0.432549    0.825135    0.750848    0.000000
   179  O2    c     0.169787    0.580131    0.084013    0.000000
   180  O2    c     0.436168    0.577247    0.417656    0.000000
   181  F     c     0.500280    0.901622    0.239867    0.000000
   182  F     c     0.110630    0.539619    0.584320    0.000000
   183  F     c     0.489782    0.529980    0.930492    0.000000
   184  F     c     0.560567    0.084672    0.749864    0.000000
   185  F     c     0.914704    0.457763    0.086003    0.000000
   186  F     c     0.566749    0.445144    0.417673    0.000000
   187  O2    s     0.937922    0.003725    0.003279    0.000000
   188  O2    s     0.021856    0.919427    0.337239    0.000000
   189  O2    s     0.092820    0.067333    0.669430    0.000000
   190  O2    s     0.091569    0.991412    0.502576    0.000000
   191  O2    s     0.017480    0.071195    0.836612    0.000000
   192  O2    s     0.945524    0.936531    0.172448    0.000000
   193  O2    s     0.374119    0.581234    0.333314    0.000000
   194  O2    s     0.427386    0.754517    0.667651    0.000000
   195  O2    s     0.230867    0.641535    0.000171    0.000000
   196  O2    s     0.664221    0.409537    0.830223    0.000000
   197  O2    s     0.595081    0.244861    0.169341    0.000000
   198  O2    s     0.783303    0.345118    0.500407    0.000000
   199  O3    s     0.591470    0.346064    0.003187    0.000000
   200  O2    s     0.778627    0.403605    0.666099    0.000000
   201  O2    s     0.667707    0.229058    0.334192    0.000000
   202  O2    s     0.430350    0.639924    0.501378    0.000000
   203  O2    s     0.234626    0.576229    0.167771    0.000000
   204  O2    s     0.370388    0.761236    0.834741    0.000000
   205  O2    s     0.122144    0.216871    0.971374    0.000000
   206  O2    s     0.804272    0.898265    0.309147    0.000000
   207  O2    s     0.108428    0.869379    0.637726    0.000000
   208  O2    s     0.895914    0.776918    0.471303    0.000000
   209  O2    s     0.230836    0.087314    0.803748    0.000000
   210  O2    s     0.906002    0.123401    0.141928    0.000000
   211  O2    s     0.237487    0.117597    0.365181    0.000000
   212  O2    s     0.901125    0.778614    0.030993    0.000000
   213  O2    s     0.892953    0.084817    0.697039    0.000000
   214  O2    s     0.798200    0.874005    0.864773    0.000000
   215  O2    s     0.112080    0.209623    0.530959    0.000000
   216  O2    s     0.139446    0.904739    0.198188    0.000000
   217  O2    s     0.954327    0.861922    0.254203    0.000000
   218  O2    s     0.156172    0.064314    0.585232    0.000000
   219  O2    s     0.933882    0.064750    0.918903    0.000000
   220  O2    s     0.081849    0.134676    0.752549    0.000000
   221  O2    s     0.885708    0.939105    0.088476    0.000000
   222  O2    s     0.092987    0.926502    0.419413    0.000000
   223  O2    s     0.907202    0.198432    0.984850    0.000000
   224  O2    s     0.818240    0.698487    0.317711    0.000000
   225  O2    s     0.311071    0.079574    0.649103    0.000000
   226  O2    s     0.107574    0.786403    0.483627    0.000000
   227  O2    s     0.222961    0.289837    0.817295    0.000000
   228  O3    s     0.720773    0.903802    0.150878    0.000000
   229  O2    s     0.228808    0.905920    0.353082    0.000000
   230  O3    s     0.719012    0.821138    0.026111    0.000000
   231  O2    s     0.104181    0.287242    0.685854    0.000000
   232  O2    s     0.809889    0.086628    0.850779    0.000000
   233  O2    s     0.312898    0.197173    0.519101    0.000000
   234  O2    s     0.920828    0.711936    0.185507    0.000000
   235  O2    s     0.349180    0.651979    0.249626    0.000000
   236  O2    s     0.358356    0.661940    0.584700    0.000000
   237  O2    s     0.339158    0.662977    0.917982    0.000000
   238  O2    s     0.684927    0.333402    0.748457    0.000000
   239  O2    s     0.661844    0.334786    0.086320    0.000000
   240  O2    s     0.690612    0.321738    0.417650    0.000000
   241  O3    s     0.368647    0.322980    0.971568    0.000000
   242  O2    s     0.682091    0.033775    0.301522    0.000000
   243  O2    s     0.977055    0.614853    0.636131    0.000000
   244  O2    s     0.640738    0.653294    0.469650    0.000000
   245  O2    s     0.356664    0.957513    0.802533    0.000000
   246  O2    s     0.038460    0.375166    0.136918    0.000000
   247  O2    s     0.361341    0.372478    0.365858    0.000000
   248  O2    s     0.037188    0.656828    0.032387    0.000000
   249  O2    s     0.637983    0.951624    0.698479    0.000000
   250  O2    s     0.678993    0.618434    0.868278    0.000000
   251  O2    s     0.980435    0.332839    0.532195    0.000000
   252  O2    s     0.392624    0.035628    0.199906    0.000000
   253  O2    s     0.778449    0.305953    0.017183    0.000000
   254  O2    s     0.708932    0.460146    0.348157    0.000000
   255  O2    s     0.547357    0.211911    0.679658    0.000000
   256  O2    s     0.239245    0.680500    0.515022    0.000000
   257  O2    s     0.330840    0.529454    0.849532    0.000000
   258  O3    s     0.466571    0.755655    0.177124    0.000000
   259  O2    s     0.333512    0.773580    0.318048    0.000000
   260  O3    s     0.465067    0.694169    0.989481    0.000000
   261  O2    s     0.236258    0.524095    0.654264    0.000000
   262  O2    s     0.701292    0.215133    0.818891    0.000000
   263  O2    s     0.551193    0.303722    0.487477    0.000000
   264  O2    s     0.785265    0.474642    0.155175    0.000000
   265  O2    s     0.793098    0.530029    0.030910    0.000000
   266  O2    s     0.487630    0.251045    0.365252    0.000000
   267  O2    s     0.754781    0.198297    0.695944    0.000000
   268  O2    s     0.227265    0.459738    0.531818    0.000000
   269  O2    s     0.544360    0.729668    0.870741    0.000000
   270  O2    s     0.278560    0.789799    0.198355    0.000000
   271  O2    s     0.551504    0.784934    0.301439    0.000000
   272  O2    s     0.273988    0.468619    0.972139    0.000000
   273  O2    s     0.223895    0.732821    0.637414    0.000000
   274  O2    s     0.481607    0.204667    0.801820    0.000000
   275  O2    s     0.759635    0.525145    0.470826    0.000000
   276  O2    s     0.794309    0.263812    0.138895    0.000000
   277  O2    s     0.256816    0.333289    0.900894    0.000000
   278  O3    s     0.703817    0.905588    0.236917    0.000000
   279  O2    s     0.106373    0.749984    0.566718    0.000000
   280  O2    s     0.778402    0.660401    0.400384    0.000000
   281  O2    s     0.347190    0.082581    0.732243    0.000000
   282  O2    s     0.908712    0.236864    0.068635    0.000000
   283  O2    s     0.351685    0.235833    0.435870    0.000000
   284  O2    s     0.911012    0.668857    0.101974    0.000000
   285  O2    s     0.773150    0.084019    0.767401    0.000000
   286  O3    s     0.691510    0.760681    0.936664    0.000000
   287  O2    s     0.107214    0.324684    0.602258    0.000000
   288  O2    s     0.264389    0.904995    0.268773    0.000000
   289  O1    s     0.599608    0.565739    0.000759    0.000000
   290  O2    s     0.463059    0.015407    0.318992    0.000000
   291  O2    s     0.989905    0.408786    0.654855    0.000000
   292  O2    s     0.434988    0.434425    0.488640    0.000000
   293  O2    s     0.575053    0.968201    0.820837    0.000000
   294  O2    s     0.031914    0.588068    0.154926    0.000000
   295  O2    s     0.580321    0.578608    0.347156    0.000000
   296  O2    s     0.024323    0.434744    0.014744    0.000000
   297  O2    s     0.432517    0.965280    0.679561    0.000000
   298  O2    s     0.458042    0.413090    0.850245    0.000000
   299  O2    s     0.992943    0.551062    0.513190    0.000000
   300  O3    s     0.599374    0.039790    0.175753    0.000000
   301  O2    s     0.596644    0.150709    0.250439    0.000000
   302  O2    s     0.861290    0.415861    0.583575    0.000000
   303  O3    s     0.604210    0.415823    0.913833    0.000000
   304  O2    s     0.438170    0.836338    0.750815    0.000000
   305  O2    s     0.158113    0.574398    0.084101    0.000000
   306  O2    s     0.441733    0.571735    0.417613    0.000000
   307  F     s     0.507143    0.901492    0.236815    0.000000
   308  F     s     0.110919    0.539811    0.584310    0.000000
   309  F     s     0.493595    0.524786    0.932995    0.000000
   310  F     s     0.560530    0.084739    0.749869    0.000000
   311  F     s     0.915372    0.458301    0.086133    0.000000
   312  F     s     0.566916    0.444836    0.417651    0.000000
--------------------------------------------------------------------------------

  Final Cartesian lattice vectors (Angstroms) :

       11.950416    0.001801    0.006799
       -5.886668   10.388991   -0.003704
        0.200590    0.001670   29.382368


  Final cell parameters and derivatives :

--------------------------------------------------------------------------------
       a           11.950418 Angstrom     dE/de1(xx)     0.006657 eV/strain
       b           11.940855 Angstrom     dE/de2(yy)     0.006070 eV/strain
       c           29.383053 Angstrom     dE/de3(zz)     0.009667 eV/strain
       alpha       90.207767 Degrees      dE/de4(yz)    -0.000361 eV/strain
       beta        89.576254 Degrees      dE/de5(xz)    -0.000147 eV/strain
       gamma      119.528367 Degrees      dE/de6(xy)     0.000452 eV/strain
--------------------------------------------------------------------------------

  Primitive cell volume =          3648.199709 Angs**3

  Density of cell =      1.753767 g/cm**3

  Non-primitive cell volume =          3648.199709 Angs**3


  Final internal derivatives :

--------------------------------------------------------------------------------
   No.  Atomic          a             b             c           Radius
        Label          (eV)          (eV)          (eV)        (eV/Angs)
--------------------------------------------------------------------------------
      1 Si    c       0.000000      0.000000      0.000000      0.000000
      2 Si    c      -0.000274      0.000139      0.000992      0.000000
      3 Si    c      -0.000110     -0.000026      0.000473      0.000000
      4 Si    c      -0.000377      0.000240      0.000280      0.000000
      5 Si    c       0.000292     -0.000561     -0.001215      0.000000
      6 Si    c      -0.000178      0.000372      0.001140      0.000000
      7 Si    c      -0.000198      0.000411     -0.000278      0.000000
      8 Si    c       0.000807     -0.000946     -0.000749      0.000000
      9 Si    c      -0.000293      0.000239     -0.000548      0.000000
     10 Si    c      -0.000107     -0.000274     -0.001260      0.000000
     11 Si    c      -0.000395      0.000249     -0.000343      0.000000
     12 Si    c       0.002172     -0.000707      0.009558      0.000000
     13 Ge    c      -0.004456      0.004004      0.001947      0.000000
     14 Si    c      -0.000031     -0.000410     -0.000583      0.000000
     15 Si    c       0.000045      0.000061     -0.000384      0.000000
     16 Si    c      -0.000227      0.000125     -0.000070      0.000000
     17 Si    c      -0.000108      0.000228     -0.000067      0.000000
     18 Si    c      -0.001349      0.000200      0.002221      0.000000
     19 Si    c      -0.000126      0.000125      0.000934      0.000000
     20 Si    c      -0.000602      0.000935     -0.000395      0.000000
     21 Si    c      -0.000206      0.000291      0.000437      0.000000
     22 Si    c      -0.000810      0.001186     -0.006070      0.000000
     23 Si    c      -0.000137      0.000101      0.000018      0.000000
     24 Si    c       0.000066     -0.002167      0.002015      0.000000
     25 Si    c       0.000120      0.000292     -0.002919      0.000000
     26 Ge    c      -0.000780      0.000977      0.000971      0.000000
     27 Si    c      -0.000121      0.000156     -0.000046      0.000000
     28 Si    c      -0.000218      0.000235      0.000327      0.000000
     29 Si    c      -0.000243      0.000088     -0.000438      0.000000
     30 Si    c       0.000313     -0.000195     -0.006121      0.000000
     31 Si    c      -0.000203      0.000004      0.000039      0.000000
     32 Si    c       0.001234     -0.000476      0.001678      0.000000
     33 Si    c      -0.000125     -0.000069      0.000374      0.000000
     34 Ge    c       0.000213      0.000876      0.002243      0.000000
     35 Si    c      -0.000224      0.000148     -0.000015      0.000000
     36 Si    c      -0.000190      0.000133      0.000690      0.000000
     37 Si    c       0.001282      0.000226      0.000437      0.000000
     38 Si    c      -0.000126      0.000301      0.001069      0.000000
     39 Si    c      -0.000099      0.000216     -0.000025      0.000000
     40 Si    c      -0.000253      0.000195     -0.000250      0.000000
     41 Si    c      -0.000159      0.000171      0.000207      0.000000
     42 Si    c      -0.000174      0.000406      0.005614      0.000000
     43 Si    c      -0.000230     -0.000046      0.000332      0.000000
     44 Si    c       0.000576      0.001990     -0.001260      0.000000
     45 Si    c      -0.000104      0.000080     -0.000067      0.000000
     46 Si    c      -0.000188     -0.000063     -0.001264      0.000000
     47 Si    c      -0.000250      0.000145     -0.000002      0.000000
     48 Si    c       0.000170     -0.000204     -0.001008      0.000000
     49 Si    c       0.000376      0.000386      0.006155      0.000000
     50 Si    c      -0.000478      0.000185      0.004101      0.000000
     51 Si    c      -0.000270      0.000222     -0.000330      0.000000
     52 Si    c      -0.000196      0.000080      0.000032      0.000000
     53 Si    c      -0.000209      0.000421      0.000793      0.000000
     54 Si    c      -0.000121     -0.000156      0.000918      0.000000
     55 Si    c      -0.000395      0.000049      0.000061      0.000000
     56 Si    c      -0.000266     -0.000672     -0.004808      0.000000
     57 Si    c      -0.000165      0.000159     -0.001541      0.000000
     58 Si    c      -0.000540     -0.000056     -0.005852      0.000000
     59 Si    c      -0.000237      0.000176      0.000049      0.000000
     60 Si    c      -0.000322      0.000102     -0.001227      0.000000
     61 O2    c       0.000043      0.000343      0.000086      0.000000
     62 O2    c      -0.000400      0.000090     -0.000090      0.000000
     63 O2    c      -0.000273      0.000259      0.000268      0.000000
     64 O2    c      -0.000271      0.000179      0.000083      0.000000
     65 O2    c       0.000148      0.000027      0.000349      0.000000
     66 O2    c       0.000335     -0.000174      0.000799      0.000000
     67 O2    c      -0.000466      0.000015     -0.000110      0.000000
     68 O2    c       0.000009     -0.000012      0.000005      0.000000
     69 O2    c      -0.001400      0.001190      0.001968      0.000000
     70 O2    c      -0.000298      0.000811      0.001212      0.000000
     71 O2    c      -0.001598      0.001738     -0.000975      0.000000
     72 O2    c      -0.000037      0.000009      0.000328      0.000000
     73 O3    c       0.002163     -0.002747      0.006864      0.000000
     74 O2    c      -0.000333      0.000393      0.000090      0.000000
     75 O2    c       0.000138      0.000122      0.000088      0.000000
     76 O2    c      -0.000044      0.000075     -0.000323      0.000000
     77 O2    c      -0.000094     -0.000770     -0.001345      0.000000
     78 O2    c      -0.000484      0.000493     -0.000403      0.000000
     79 O2    c      -0.000009     -0.001338      0.001738      0.000000
     80 O2    c      -0.000558      0.000445      0.000663      0.000000
     81 O2    c      -0.000152      0.000073     -0.000027      0.000000
     82 O2    c      -0.000264      0.000158      0.000026      0.000000
     83 O2    c      -0.000114      0.000072      0.000258      0.000000
     84 O2    c       0.000012      0.000481      0.000676      0.000000
     85 O2    c      -0.000184      0.000349      0.000008      0.000000
     86 O2    c       0.000157     -0.000446      0.000191      0.000000
     87 O2    c      -0.000526      0.000204     -0.000072      0.000000
     88 O2    c      -0.000162     -0.000027     -0.000199      0.000000
     89 O2    c      -0.000194      0.000099      0.000021      0.000000
     90 O2    c      -0.000239      0.000160     -0.000662      0.000000
     91 O2    c       0.000681     -0.000223     -0.005586      0.000000
     92 O2    c      -0.000180      0.000076      0.000395      0.000000
     93 O2    c       0.000194     -0.000534     -0.001446      0.000000
     94 O2    c       0.000254     -0.000053      0.002933      0.000000
     95 O2    c      -0.000108      0.001010      0.006652      0.000000
     96 O2    c      -0.000263      0.000099      0.000068      0.000000
     97 O2    c      -0.001147      0.001083      0.001158      0.000000
     98 O2    c      -0.000228     -0.000475      0.000280      0.000000
     99 O2    c       0.000057      0.000151      0.000174      0.000000
    100 O2    c      -0.000233      0.000168     -0.000056      0.000000
    101 O2    c      -0.000159      0.000061      0.000175      0.000000
    102 O3    c      -0.001413      0.000165      0.000338      0.000000
    103 O2    c       0.000197     -0.000313     -0.000159      0.000000
    104 O3    c      -0.000314     -0.000034      0.000358      0.000000
    105 O2    c      -0.000175      0.000507     -0.000072      0.000000
    106 O2    c      -0.000550      0.000435     -0.000086      0.000000
    107 O2    c      -0.000216      0.000134      0.000028      0.000000
    108 O2    c      -0.000252      0.000030      0.000626      0.000000
    109 O2    c      -0.000234     -0.000095     -0.000516      0.000000
    110 O2    c      -0.000183      0.000179      0.000046      0.000000
    111 O2    c      -0.000579      0.000503      0.000238      0.000000
    112 O2    c      -0.000191      0.000193     -0.000062      0.000000
    113 O2    c      -0.003327      0.000470     -0.001669      0.000000
    114 O2    c      -0.000214      0.000081     -0.000097      0.000000
    115 O3    c      -0.000070      0.000005      0.000557      0.000000
    116 O2    c      -0.000215      0.000191      0.000081      0.000000
    117 O2    c      -0.000204      0.000257      0.000147      0.000000
    118 O2    c      -0.000279      0.000154      0.000082      0.000000
    119 O2    c      -0.000066      0.000005      0.000063      0.000000
    120 O2    c       0.000123      0.000355      0.000444      0.000000
    121 O2    c      -0.000318      0.000033     -0.000068      0.000000
    122 O2    c       0.000757     -0.000279     -0.000008      0.000000
    123 O2    c      -0.000058      0.000116      0.000079      0.000000
    124 O2    c      -0.000181      0.000074     -0.000301      0.000000
    125 O2    c      -0.000226      0.000178     -0.000012      0.000000
    126 O2    c      -0.000023      0.000134     -0.000582      0.000000
    127 O2    c      -0.001691      0.001069     -0.001242      0.000000
    128 O2    c      -0.000146      0.000138     -0.000242      0.000000
    129 O2    c      -0.000170      0.000256     -0.000159      0.000000
    130 O2    c      -0.000243      0.000170      0.000026      0.000000
    131 O2    c      -0.000532      0.001042      0.000208      0.000000
    132 O3    c      -0.000386     -0.000337     -0.001818      0.000000
    133 O2    c      -0.000215      0.000015      0.000083      0.000000
    134 O3    c      -0.002518      0.001393     -0.000168      0.000000
    135 O2    c      -0.000127      0.000063      0.000186      0.000000
    136 O2    c      -0.000246      0.000289      0.000106      0.000000
    137 O2    c      -0.000173      0.000086      0.000115      0.000000
    138 O2    c      -0.000667     -0.000493      0.000920      0.000000
    139 O2    c      -0.001424     -0.000753     -0.003096      0.000000
    140 O2    c      -0.000232     -0.000064     -0.000335      0.000000
    141 O2    c      -0.000238      0.000364     -0.000300      0.000000
    142 O2    c      -0.000172      0.000154     -0.000096      0.000000
    143 O2    c      -0.000043      0.000192     -0.000370      0.000000
    144 O2    c      -0.000514      0.000306     -0.000302      0.000000
    145 O2    c      -0.000690     -0.000290      0.000681      0.000000
    146 O2    c      -0.000537      0.000874      0.001206      0.000000
    147 O2    c      -0.000167      0.000241      0.000156      0.000000
    148 O2    c      -0.000386      0.000232      0.000168      0.000000
    149 O2    c      -0.000153     -0.000048      0.000118      0.000000
    150 O2    c      -0.000344     -0.000174      0.000875      0.000000
    151 O2    c      -0.000797     -0.000464      0.004445      0.000000
    152 O3    c       0.000778     -0.000549     -0.001847      0.000000
    153 O2    c      -0.000190      0.000197      0.000103      0.000000
    154 O2    c      -0.000234      0.000120     -0.000101      0.000000
    155 O2    c      -0.000377      0.000226      0.000100      0.000000
    156 O2    c       0.001060     -0.001480     -0.002631      0.000000
    157 O2    c      -0.000250      0.000101      0.000071      0.000000
    158 O2    c      -0.000451      0.000679      0.003108      0.000000
    159 O2    c      -0.000015      0.000066     -0.000114      0.000000
    160 O3    c       0.000585      0.000410     -0.003472      0.000000
    161 O2    c      -0.000172      0.000140      0.000180      0.000000
    162 O2    c      -0.000462      0.000212      0.000459      0.000000
    163 O1    c       0.002408     -0.004109      0.003621      0.000000
    164 O2    c      -0.000200      0.000111      0.000068      0.000000
    165 O2    c      -0.000150      0.000158      0.000120      0.000000
    166 O2    c      -0.000295      0.000275      0.000169      0.000000
    167 O2    c      -0.000147      0.000025      0.000097      0.000000
    168 O2    c      -0.000201      0.000077     -0.000252      0.000000
    169 O2    c      -0.000169      0.000150     -0.000343      0.000000
    170 O2    c       0.000281     -0.000707     -0.001991      0.000000
    171 O2    c      -0.000171      0.000119     -0.000158      0.000000
    172 O2    c       0.000592     -0.000172     -0.000106      0.000000
    173 O2    c      -0.000252      0.000116     -0.000145      0.000000
    174 O3    c       0.000117      0.000278      0.000133      0.000000
    175 O2    c       0.000011      0.000222      0.001233      0.000000
    176 O2    c      -0.000199      0.000169      0.000047      0.000000
    177 O3    c       0.003127     -0.002789     -0.002353      0.000000
    178 O2    c      -0.000146      0.000059      0.000095      0.000000
    179 O2    c       0.000683      0.000300     -0.002059      0.000000
    180 O2    c      -0.000235      0.000088      0.000023      0.000000
    181 F     c      -0.000141      0.000264     -0.000581      0.000000
    182 F     c      -0.000164      0.000178      0.000037      0.000000
    183 F     c      -0.000428      0.000501      0.002382      0.000000
    184 F     c      -0.000125      0.000099      0.000002      0.000000
    185 F     c      -0.000056      0.000209      0.000887      0.000000
    186 F     c      -0.000237      0.000081     -0.000086      0.000000
    187 O2    s       0.000541     -0.000836     -0.001373      0.000000
    188 O2    s      -0.000011      0.000205      0.000323      0.000000
    189 O2    s       0.000098      0.000022     -0.000311      0.000000
    190 O2    s      -0.000240      0.000195     -0.000064      0.000000
    191 O2    s       0.000137     -0.000373     -0.001596      0.000000
    192 O2    s       0.000075     -0.000012      0.000345      0.000000
    193 O2    s      -0.000026      0.000029     -0.000015      0.000000
    194 O2    s      -0.000260      0.000297     -0.000147      0.000000
    195 O2    s       0.000419     -0.000293     -0.000668      0.000000
    196 O2    s       0.000220     -0.000129      0.000065      0.000000
    197 O2    s      -0.000296     -0.000257      0.001237      0.000000
    198 O2    s      -0.000203      0.000116      0.000038      0.000000
    199 O3    s      -0.000344      0.000592     -0.004587      0.000000
    200 O2    s      -0.000050      0.000063     -0.000080      0.000000
    201 O2    s      -0.000484      0.000103      0.000130      0.000000
    202 O2    s      -0.000281      0.000172      0.000057      0.000000
    203 O2    s       0.000345     -0.000029      0.000956      0.000000
    204 O2    s      -0.000536      0.000366     -0.000573      0.000000
    205 O2    s       0.000754      0.000286      0.000715      0.000000
    206 O2    s      -0.000436      0.000738      0.000496      0.000000
    207 O2    s      -0.000177      0.000122      0.000153      0.000000
    208 O2    s      -0.000206      0.000101      0.000195      0.000000
    209 O2    s      -0.000165     -0.000037     -0.000266      0.000000
    210 O2    s       0.000059     -0.000334      0.000724      0.000000
    211 O2    s      -0.000272      0.000300     -0.000169      0.000000
    212 O2    s       0.000048      0.000338     -0.001527      0.000000
    213 O2    s      -0.000341      0.000108     -0.000053      0.000000
    214 O2    s       0.000193     -0.000400     -0.000406      0.000000
    215 O2    s      -0.000233      0.000162     -0.000075      0.000000
    216 O2    s      -0.000355      0.000288      0.000617      0.000000
    217 O2    s      -0.000295      0.000122      0.000878      0.000000
    218 O2    s      -0.000170      0.000205     -0.000291      0.000000
    219 O2    s      -0.000446     -0.000024      0.000346      0.000000
    220 O2    s      -0.000137      0.000056     -0.000627      0.000000
    221 O2    s      -0.000170     -0.000421     -0.001000      0.000000
    222 O2    s      -0.000301      0.000098      0.000364      0.000000
    223 O2    s      -0.000809      0.000260     -0.001001      0.000000
    224 O2    s      -0.000176     -0.000479      0.000541      0.000000
    225 O2    s      -0.000206      0.000173     -0.000236      0.000000
    226 O2    s      -0.000185      0.000099      0.000104      0.000000
    227 O2    s      -0.000348      0.000067     -0.002187      0.000000
    228 O3    s       0.000110     -0.000191      0.000082      0.000000
    229 O2    s      -0.000226      0.000109      0.000173      0.000000
    230 O3    s      -0.000506      0.000389     -0.000334      0.000000
    231 O2    s      -0.000114      0.000356     -0.000563      0.000000
    232 O2    s      -0.000539      0.000639     -0.000033      0.000000
    233 O2    s      -0.000245      0.000122      0.000013      0.000000
    234 O2    s      -0.000447      0.000120      0.000674      0.000000
    235 O2    s      -0.000069     -0.000024      0.000518      0.000000
    236 O2    s      -0.000171      0.000138      0.000163      0.000000
    237 O2    s      -0.000422      0.000379      0.000149      0.000000
    238 O2    s      -0.000025      0.000183     -0.000245      0.000000
    239 O2    s       0.001966     -0.000220     -0.002741      0.000000
    240 O2    s      -0.000264      0.000109     -0.000104      0.000000
    241 O3    s       0.000238     -0.000456     -0.000639      0.000000
    242 O2    s      -0.000015      0.000122      0.000307      0.000000
    243 O2    s      -0.000163      0.000162     -0.000065      0.000000
    244 O2    s      -0.000317      0.000209      0.000148      0.000000
    245 O2    s      -0.000277      0.000116      0.000083      0.000000
    246 O2    s       0.000587     -0.000554      0.000361      0.000000
    247 O2    s      -0.000154      0.000077     -0.000094      0.000000
    248 O2    s       0.000193      0.000141     -0.002299      0.000000
    249 O2    s      -0.000130      0.000136     -0.000259      0.000000
    250 O2    s       0.000421     -0.000240      0.000345      0.000000
    251 O2    s      -0.000238      0.000136     -0.000049      0.000000
    252 O2    s      -0.000626      0.000524      0.000699      0.000000
    253 O2    s      -0.001189      0.000849      0.002959      0.000000
    254 O2    s      -0.000357      0.000123      0.000060      0.000000
    255 O2    s      -0.000132      0.000116      0.000009      0.000000
    256 O2    s      -0.000216      0.000165     -0.000189      0.000000
    257 O2    s      -0.000726      0.000503     -0.001780      0.000000
    258 O3    s       0.000481      0.000161      0.001229      0.000000
    259 O2    s      -0.000226     -0.000007      0.000397      0.000000
    260 O3    s       0.001255     -0.000482      0.001167      0.000000
    261 O2    s      -0.000207      0.000229     -0.000108      0.000000
    262 O2    s       0.000053     -0.000073      0.000305      0.000000
    263 O2    s      -0.000255      0.000085      0.000132      0.000000
    264 O2    s      -0.000337      0.000619     -0.000737      0.000000
    265 O2    s       0.000070     -0.000692      0.000367      0.000000
    266 O2    s      -0.000231      0.000332      0.000436      0.000000
    267 O2    s      -0.000140      0.000124      0.000174      0.000000
    268 O2    s      -0.000222      0.000113      0.000032      0.000000
    269 O2    s       0.000104      0.000152      0.000002      0.000000
    270 O2    s      -0.000030      0.000071      0.000142      0.000000
    271 O2    s      -0.000045      0.000052      0.000375      0.000000
    272 O2    s      -0.000791      0.000472     -0.000332      0.000000
    273 O2    s      -0.000143      0.000029     -0.000166      0.000000
    274 O2    s      -0.000051     -0.000196      0.000104      0.000000
    275 O2    s      -0.000170      0.000175      0.000134      0.000000
    276 O2    s      -0.000216      0.000381     -0.001128      0.000000
    277 O2    s       0.000163     -0.000230     -0.000640      0.000000
    278 O3    s      -0.001153      0.000620      0.000333      0.000000
    279 O2    s      -0.000204      0.000122     -0.000040      0.000000
    280 O2    s      -0.000233      0.000031     -0.000130      0.000000
    281 O2    s       0.000021      0.000014     -0.000017      0.000000
    282 O2    s      -0.000923      0.000921      0.000585      0.000000
    283 O2    s      -0.000227      0.000136     -0.000106      0.000000
    284 O2    s      -0.000472      0.000067      0.000130      0.000000
    285 O2    s      -0.000137      0.000160      0.000006      0.000000
    286 O3    s      -0.000111      0.000168      0.002242      0.000000
    287 O2    s      -0.000204      0.000218      0.000031      0.000000
    288 O2    s      -0.000081      0.000113      0.000137      0.000000
    289 O1    s      -0.001202      0.002777     -0.000210      0.000000
    290 O2    s      -0.000180      0.000210      0.000186      0.000000
    291 O2    s      -0.000147      0.000221     -0.000151      0.000000
    292 O2    s      -0.000270      0.000088     -0.000037      0.000000
    293 O2    s      -0.000151      0.000213      0.000052      0.000000
    294 O2    s      -0.000149      0.000596      0.002764      0.000000
    295 O2    s      -0.000254     -0.000087      0.000357      0.000000
    296 O2    s       0.000012      0.000612      0.000776      0.000000
    297 O2    s      -0.000084      0.000127      0.000041      0.000000
    298 O2    s       0.000904     -0.000511     -0.000965      0.000000
    299 O2    s      -0.000232      0.000178      0.000164      0.000000
    300 O3    s      -0.000521     -0.000153     -0.000990      0.000000
    301 O2    s      -0.000503      0.000261      0.000464      0.000000
    302 O2    s      -0.000166      0.000157     -0.000010      0.000000
    303 O3    s      -0.001551      0.001420      0.001055      0.000000
    304 O2    s      -0.000160      0.000167     -0.000154      0.000000
    305 O2    s       0.000213     -0.000303      0.000325      0.000000
    306 O2    s      -0.000216      0.000103     -0.000155      0.000000
    307 F     s       0.000262     -0.000447     -0.000163      0.000000
    308 F     s      -0.000240      0.000189     -0.000019      0.000000
    309 F     s       0.000891     -0.001366     -0.002580      0.000000
    310 F     s      -0.000186      0.000170     -0.000037      0.000000
    311 F     s      -0.000322     -0.000356     -0.001791      0.000000
    312 F     s      -0.000281      0.000115      0.000056      0.000000
--------------------------------------------------------------------------------
  Maximum abs         0.004456      0.004109      0.009558      0.000000
--------------------------------------------------------------------------------


  Time to end of optimisation =      34.9285 seconds


  Peak dynamic memory used =      19.13 MB 


  Timing analysis for GULP :

--------------------------------------------------------------------------------
  Task / Subroutine                                          Time (Seconds)
--------------------------------------------------------------------------------
  Calculation of reciprocal space energy and derivatives          0.8417
  Calculation of real space energy and derivatives               30.4691
  Calculation of three-body energy and derivatives                3.1752
  Calculation of matrix inversion                                 0.3751
--------------------------------------------------------------------------------
  Total CPU time                                                 34.9285
--------------------------------------------------------------------------------


  Dump file written as out.res                                                 
  CIF file written as out.cif                                                 


  Job Finished at 12:39.38 18th November   2016                               

