********************************************************************************
*                       GENERAL UTILITY LATTICE PROGRAM                        *
*                                 Julian Gale                                  *
*                      Nanochemistry Research Institute                        *
*                           Department of Chemistry                            *
*                    Curtin University, Western Australia                      *
********************************************************************************
* Version = 4.2.0 * Last modified =  20th January 2014                         *
********************************************************************************
*  optimise     - perform optimisation run                                     *
*  conp         - constant pressure calculation                                *
*  qok          - running with non charge neutral cell is OK                   *
********************************************************************************

  Job Started  at 10:25.34 29th November   2016                               

  Number of CPUs =     1


  Total number of configurations input =   1

********************************************************************************
*  Input for Configuration =   1                                               *
********************************************************************************

  Formula = Si57Ge3O120F6                                               

  Number of irreducible atoms/shells =     312


  Total number atoms/shells =     312

  Dimensionality = 3               :  Bulk   


  Charge on solid   =  -6.000000 =>neutralising background added


  Cartesian lattice vectors (Angstroms) :

       11.913346    0.000000    0.000000
       -5.841958   10.415737    0.000000
       -0.557875    0.256009   29.452881

  Cell parameters (Angstroms/Degrees):

  a =      11.9133    alpha =  89.0349
  b =      11.9422    beta  =  91.0851
  c =      29.4593    gamma = 119.2871

  Initial cell volume =        3654.698328 Angs**3

  Temperature of configuration =  0.000     K 

  Pressure of configuration =         0.000 GPa 

  Fractional coordinates of asymmetric unit :

--------------------------------------------------------------------------------
   No.  Atomic       x           y          z         Charge      Occupancy
        Label      (Frac)      (Frac)     (Frac)        (e)         (Frac)  
--------------------------------------------------------------------------------
      1 Si    c    0.699600    0.375700    0.033890     4.00000    1.000000    
      2 Si    c    0.619309 *  0.322264 *  0.369284 *   4.00000    1.000000    
      3 Si    c    0.681342 *  0.304487 *  0.695988 *   4.00000    1.000000    
      4 Si    c    0.299256 *  0.615981 *  0.534017 *   4.00000    1.000000    
      5 Si    c    0.379794 *  0.673609 *  0.867474 *   4.00000    1.000000    
      6 Si    c    0.322191 *  0.698826 *  0.198288 *   4.00000    1.000000    
      7 Si    c    0.375672 *  0.701601 *  0.301619 *   4.00000    1.000000    
      8 Si    c    0.323455 *  0.619228 *  0.969598 *   4.00000    1.000000    
      9 Si    c    0.303504 *  0.665938 *  0.634691 *   4.00000    1.000000    
     10 Si    c    0.618809 *  0.298082 *  0.797848 *   4.00000    1.000000    
     11 Si    c    0.674875 *  0.376985 *  0.469705 *   4.00000    1.000000    
     12 Si    c    0.713978 *  0.330042 *  0.135524 *   4.00000    1.000000    
     13 Ge    c    0.531099 *  0.430662 *  0.966287 *   4.00000    1.000000    
     14 Si    c    0.580725 *  0.114517 *  0.303916 *   4.00000    1.000000    
     15 Si    c    0.899769 *  0.475255 *  0.635223 *   4.00000    1.000000    
     16 Si    c    0.469508 *  0.579384 *  0.468977 *   4.00000    1.000000    
     17 Si    c    0.414807 *  0.881854 *  0.799479 *   4.00000    1.000000    
     18 Si    c    0.119360 *  0.525637 *  0.134037 *   4.00000    1.000000    
     19 Si    c    0.417480 *  0.529031 *  0.367512 *   4.00000    1.000000    
     20 Si    c    0.110927 *  0.578706 *  0.032974 *   4.00000    1.000000    
     21 Si    c    0.470380 *  0.876220 *  0.696791 *   4.00000    1.000000    
     22 Si    c    0.591992 *  0.464925 *  0.867002 *   4.00000    1.000000    
     23 Si    c    0.889808 *  0.419074 *  0.534260 *   4.00000    1.000000    
     24 Si    c    0.531885 *  0.124522 *  0.199813 *   4.00000    1.000000    
     25 Si    c    0.303792 *  0.392432 *  0.853795 *   4.00000    1.000000    
     26 Si    c    0.602235 *  0.909062 *  0.184901 *   4.00000    1.000000    
     27 Si    c    0.098847 *  0.697845 *  0.520265 *   4.00000    1.000000    
     28 Si    c    0.698076 *  0.600992 *  0.354281 *   4.00000    1.000000    
     29 Ge    c    0.412755 *  0.093606 *  0.690381 *   4.00000    1.000000    
     30 Si    c    0.903775 *  0.300959 *  0.020258 *   4.00000    1.000000    
     31 Si    c    0.396222 *  0.297838 *  0.484439 *   4.00000    1.000000    
     32 Si    c    0.915757 *  0.605875 *  0.150424 *   4.00000    1.000000    
     33 Si    c    0.697971 *  0.093448 *  0.814595 *   4.00000    1.000000    
     34 Si    c    0.608171 *  0.702618 *  0.988154 *   4.00000    1.000000    
     35 Si    c    0.101588 *  0.391798 *  0.649807 *   4.00000    1.000000    
     36 Si    c    0.296399 *  0.904046 *  0.320046 *   4.00000    1.000000    
     37 Si    c    0.250474 *  0.331985 *  0.955994 *   4.00000    1.000000    
     38 Si    c    0.661244 *  0.912995 *  0.287349 *   4.00000    1.000000    
     39 Si    c    0.100775 *  0.751501 *  0.621027 *   4.00000    1.000000    
     40 Si    c    0.749020 *  0.658947 *  0.454976 *   4.00000    1.000000    
     41 Si    c    0.331738 *  0.085319 *  0.785858 *   4.00000    1.000000    
     42 Si    c    0.918068 *  0.250692 *  0.120570 *   4.00000    1.000000    
     43 Si    c    0.338104 *  0.249990 *  0.383266 *   4.00000    1.000000    
     44 Si    c    0.910042 *  0.656943 *  0.048850 *   4.00000    1.000000    
     45 Si    c    0.750217 *  0.085839 *  0.713036 *   4.00000    1.000000    
     46 Si    c    0.665573 *  0.744380 *  0.885127 *   4.00000    1.000000    
     47 Si    c    0.090520 *  0.337515 *  0.549133 *   4.00000    1.000000    
     48 Ge    c    0.270229 *  0.913623 *  0.219751 *   4.00000    1.000000    
     49 Si    c    0.967421 *  0.120480 *  0.970175 *   4.00000    1.000000    
     50 Si    c    0.879897 *  0.846039 *  0.302810 *   4.00000    1.000000    
     51 Si    c    0.160836 *  0.031080 *  0.637526 *   4.00000    1.000000    
     52 Si    c    0.026872 *  0.878481 *  0.470319 *   4.00000    1.000000    
     53 Si    c    0.118861 *  0.147439 *  0.804351 *   4.00000    1.000000    
     54 Si    c    0.852436 *  0.970980 *  0.137474 *   4.00000    1.000000    
     55 Si    c    0.120722 *  0.972172 *  0.370081 *   4.00000    1.000000    
     56 Si    c    0.852884 *  0.882370 *  0.036606 *   4.00000    1.000000    
     57 Si    c    0.030880 *  0.143695 *  0.701475 *   4.00000    1.000000    
     58 Si    c    0.876668 *  0.025177 *  0.869146 *   4.00000    1.000000    
     59 Si    c    0.150337 *  0.118485 *  0.535749 *   4.00000    1.000000    
     60 Si    c    0.982442 *  0.851138 *  0.203037 *   4.00000    1.000000    
     61 O2    c    0.935264 *  0.003140 *  0.004100 *   0.87073    1.000000    
     62 O2    c    0.999640 *  0.927000 *  0.336266 *   0.87073    1.000000    
     63 O2    c    0.071555 *  0.061615 *  0.670542 *   0.87073    1.000000    
     64 O2    c    0.068469 *  0.996670 *  0.503855 *   0.87073    1.000000    
     65 O2    c    0.999369 *  0.070116 *  0.837537 *   0.87073    1.000000    
     66 O2    c    0.924227 *  0.923699 *  0.172005 *   0.87073    1.000000    
     67 O2    c    0.341023 *  0.579097 *  0.334126 *   0.87073    1.000000    
     68 O2    c    0.427952 *  0.746223 *  0.667944 *   0.87073    1.000000    
     69 O2    c    0.234988 *  0.655792 *  0.999869 *   0.87073    1.000000    
     70 O2    c    0.661267 *  0.422577 *  0.828998 *   0.87073    1.000000    
     71 O2    c    0.594333 *  0.253738 *  0.169510 *   0.87073    1.000000    
     72 O2    c    0.762749 *  0.340405 *  0.502686 *   0.87073    1.000000    
     73 O3    c    0.580190 *  0.341569 *  0.002090 *   1.33043    1.000000    
     74 O2    c    0.777695 *  0.431939 *  0.668205 *   0.87073    1.000000    
     75 O2    c    0.657116 *  0.237285 *  0.336796 *   0.87073    1.000000    
     76 O2    c    0.420405 *  0.655395 *  0.501012 *   0.87073    1.000000    
     77 O2    c    0.247550 *  0.573255 *  0.166047 *   0.87073    1.000000    
     78 O2    c    0.343634 *  0.758560 *  0.833243 *   0.87073    1.000000    
     79 O2    c    0.119726 *  0.212283 *  0.974205 *   0.87073    1.000000    
     80 O2    c    0.786319 *  0.908887 *  0.307021 *   0.87073    1.000000    
     81 O2    c    0.103352 *  0.876263 *  0.642143 *   0.87073    1.000000    
     82 O2    c    0.873250 *  0.785267 *  0.475265 *   0.87073    1.000000    
     83 O2    c    0.212292 *  0.086050 *  0.811768 *   0.87073    1.000000    
     84 O2    c    0.917955 *  0.124674 *  0.141936 *   0.87073    1.000000    
     85 O2    c    0.210858 *  0.125849 *  0.363349 *   0.87073    1.000000    
     86 O2    c    0.906589 *  0.783495 *  0.029150 *   0.87073    1.000000    
     87 O2    c    0.876774 *  0.085426 *  0.694732 *   0.87073    1.000000    
     88 O2    c    0.786970 *  0.871644 *  0.864054 *   0.87073    1.000000    
     89 O2    c    0.088646 *  0.211761 *  0.528482 *   0.87073    1.000000    
     90 O3    c    0.131010 *  0.918935 *  0.197942 *   1.33043    1.000000    
     91 O2    c    0.931258 *  0.853896 *  0.253092 *   0.87073    1.000000    
     92 O2    c    0.136497 *  0.067843 *  0.586679 *   0.87073    1.000000    
     93 O2    c    0.924499 *  0.064237 *  0.919986 *   0.87073    1.000000    
     94 O2    c    0.063176 *  0.131764 *  0.753842 *   0.87073    1.000000    
     95 O2    c    0.868696 *  0.930436 *  0.087586 *   0.87073    1.000000    
     96 O2    c    0.064342 *  0.936491 *  0.420205 *   0.87073    1.000000    
     97 O2    c    0.897043 *  0.201876 *  0.981444 *   0.87073    1.000000    
     98 O2    c    0.796594 *  0.696010 *  0.316248 *   0.87073    1.000000    
     99 O3    c    0.307676 *  0.103409 *  0.648405 *   1.33043    1.000000    
    100 O2    c    0.098288 *  0.796002 *  0.481533 *   0.87073    1.000000    
    101 O2    c    0.203000 *  0.299233 *  0.815482 *   0.87073    1.000000    
    102 O2    c    0.699736 *  0.908604 *  0.147500 *   0.87073    1.000000    
    103 O2    c    0.207927 *  0.904867 *  0.361768 *   0.87073    1.000000    
    104 O2    c    0.701402 *  0.814476 *  0.023328 *   0.87073    1.000000    
    105 O2    c    0.102371 *  0.294571 *  0.688851 *   0.87073    1.000000    
    106 O2    c    0.793035 *  0.093441 *  0.854276 *   0.87073    1.000000    
    107 O2    c    0.301243 *  0.199004 *  0.522636 *   0.87073    1.000000    
    108 O2    c    0.917429 *  0.700197 *  0.189303 *   0.87073    1.000000    
    109 O2    c    0.323209 *  0.650077 *  0.250753 *   0.87073    1.000000    
    110 O2    c    0.359151 *  0.669044 *  0.584360 *   0.87073    1.000000    
    111 O2    c    0.325308 *  0.670400 *  0.917635 *   0.87073    1.000000    
    112 O2    c    0.673272 *  0.349812 *  0.747607 *   0.87073    1.000000    
    113 O2    c    0.652268 *  0.325100 *  0.085583 *   0.87073    1.000000    
    114 O2    c    0.676806 *  0.320652 *  0.419775 *   0.87073    1.000000    
    115 O3    c    0.364974 *  0.314904 *  0.975517 *   1.33043    1.000000    
    116 O2    c    0.666347 *  0.042245 *  0.305737 *   0.87073    1.000000    
    117 O2    c    0.968142 *  0.629976 *  0.638633 *   0.87073    1.000000    
    118 O2    c    0.625080 *  0.667649 *  0.472176 *   0.87073    1.000000    
    119 O2    c    0.329600 *  0.952977 *  0.802718 *   0.87073    1.000000    
    120 O2    c    0.052672 *  0.370253 *  0.138034 *   0.87073    1.000000    
    121 O2    c    0.329883 *  0.373959 *  0.364080 *   0.87073    1.000000    
    122 O2    c    0.042348 *  0.667361 *  0.029675 *   0.87073    1.000000    
    123 O2    c    0.627701 *  0.952552 *  0.696961 *   0.87073    1.000000    
    124 O2    c    0.674389 *  0.622820 *  0.866167 *   0.87073    1.000000    
    125 O2    c    0.958393 *  0.330777 *  0.530957 *   0.87073    1.000000    
    126 O3    c    0.380392 *  0.063877 *  0.194812 *   1.33043    1.000000    
    127 O2    c    0.769885 *  0.300968 *  0.012744 *   0.87073    1.000000    
    128 O2    c    0.694411 *  0.465111 *  0.346776 *   0.87073    1.000000    
    129 O3    c    0.544056 *  0.242778 *  0.672309 *   1.33043    1.000000    
    130 O2    c    0.230411 *  0.693203 *  0.512192 *   0.87073    1.000000    
    131 O2    c    0.308843 *  0.529826 *  0.847482 *   0.87073    1.000000    
    132 O2    c    0.469194 *  0.775534 *  0.179349 *   0.87073    1.000000    
    133 O2    c    0.301625 *  0.770203 *  0.323939 *   0.87073    1.000000    
    134 O2    c    0.468433 *  0.696564 *  0.989992 *   0.87073    1.000000    
    135 O2    c    0.236566 *  0.522975 *  0.657155 *   0.87073    1.000000    
    136 O2    c    0.690822 *  0.223621 *  0.819458 *   0.87073    1.000000    
    137 O2    c    0.532488 *  0.300029 *  0.491779 *   0.87073    1.000000    
    138 O2    c    0.783081 *  0.472320 *  0.157188 *   0.87073    1.000000    
    139 O2    c    0.786135 *  0.532554 *  0.029315 *   0.87073    1.000000    
    140 O2    c    0.463303 *  0.248036 *  0.364138 *   0.87073    1.000000    
    141 O2    c    0.743959 *  0.209179 *  0.693822 *   0.87073    1.000000    
    142 O2    c    0.216692 *  0.461044 *  0.529516 *   0.87073    1.000000    
    143 O2    c    0.534258 *  0.738578 *  0.866874 *   0.87073    1.000000    
    144 O3    c    0.242165 *  0.772591 *  0.191194 *   1.33043    1.000000    
    145 O2    c    0.530446 *  0.791031 *  0.304195 *   0.87073    1.000000    
    146 O2    c    0.259929 *  0.465399 *  0.973029 *   0.87073    1.000000    
    147 O2    c    0.224030 *  0.742875 *  0.640290 *   0.87073    1.000000    
    148 O2    c    0.464104 *  0.211657 *  0.802170 *   0.87073    1.000000    
    149 O2    c    0.748636 *  0.532268 *  0.474893 *   0.87073    1.000000    
    150 O2    c    0.793636 *  0.252059 *  0.140697 *   0.87073    1.000000    
    151 O2    c    0.238284 *  0.323126 *  0.900790 *   0.87073    1.000000    
    152 O2    c    0.671447 *  0.915329 *  0.233127 *   0.87073    1.000000    
    153 O2    c    0.099915 *  0.769686 *  0.566497 *   0.87073    1.000000    
    154 O2    c    0.768360 *  0.674763 *  0.400678 *   0.87073    1.000000    
    155 O3    c    0.303643 *  0.086890 *  0.733426 *   1.33043    1.000000    
    156 O2    c    0.912925 *  0.229093 *  0.066275 *   0.87073    1.000000    
    157 O2    c    0.322392 *  0.230850 *  0.437608 *   0.87073    1.000000    
    158 O2    c    0.915392 *  0.676672 *  0.103088 *   0.87073    1.000000    
    159 O2    c    0.762953 *  0.089988 *  0.767749 *   0.87073    1.000000    
    160 O2    c    0.679082 *  0.759161 *  0.939240 *   0.87073    1.000000    
    161 O2    c    0.094019 *  0.317358 *  0.603509 *   0.87073    1.000000    
    162 O3    c    0.218412 *  0.909440 *  0.276615 *   1.33043    1.000000    
    163 O3    c    0.601955 *  0.571848 *  0.001473 *   1.33043    1.000000    
    164 O2    c    0.440382 *  0.025870 *  0.325788 *   0.87073    1.000000    
    165 O2    c    0.978630 *  0.410457 *  0.658983 *   0.87073    1.000000    
    166 O2    c    0.412463 *  0.438347 *  0.492423 *   0.87073    1.000000    
    167 O2    c    0.557721 *  0.970266 *  0.820227 *   0.87073    1.000000    
    168 O2    c    0.038388 *  0.584537 *  0.157783 *   0.87073    1.000000    
    169 O2    c    0.558884 *  0.589857 *  0.344857 *   0.87073    1.000000    
    170 O2    c    0.029637 *  0.438299 *  0.009664 *   0.87073    1.000000    
    171 O3    c    0.410037 *  0.952458 *  0.670996 *   1.33043    1.000000    
    172 O2    c    0.445335 *  0.411258 *  0.846818 *   0.87073    1.000000    
    173 O2    c    0.972316 *  0.560651 *  0.511549 *   0.87073    1.000000    
    174 O2    c    0.581131 *  0.031040 *  0.177894 *   0.87073    1.000000    
    175 O2    c    0.579137 *  0.164933 *  0.252702 *   0.87073    1.000000    
    176 O2    c    0.840186 *  0.420490 *  0.585180 *   0.87073    1.000000    
    177 O3    c    0.601855 *  0.409734 *  0.915020 *   1.33043    1.000000    
    178 O2    c    0.417271 *  0.832529 *  0.748941 *   0.87073    1.000000    
    179 O2    c    0.171067 *  0.579434 *  0.083068 *   0.87073    1.000000    
    180 O2    c    0.415312 *  0.580889 *  0.417970 *   0.87073    1.000000    
    181 F     c    0.415983 *  0.909335 *  0.246605 *   0.56000    1.000000    
    182 F     c    0.099612 *  0.543467 *  0.585271 *   0.56000    1.000000    
    183 F     c    0.475234 *  0.522384 *  0.928297 *   0.56000    1.000000    
    184 F     c    0.518313 *  0.091457 *  0.738846 *   0.56000    1.000000    
    185 F     c    0.914819 *  0.449635 *  0.083851 *   0.56000    1.000000    
    186 F     c    0.547241 *  0.450906 *  0.418291 *   0.56000    1.000000    
    187 O2    s    0.929702 *  0.002912 *  0.003892 *  -2.87073    1.000000    
    188 O2    s    0.999830 *  0.923056 *  0.336325 *  -2.87073    1.000000    
    189 O2    s    0.076085 *  0.067821 *  0.670673 *  -2.87073    1.000000    
    190 O2    s    0.072845 *  0.996855 *  0.503607 *  -2.87073    1.000000    
    191 O2    s    0.998829 *  0.073647 *  0.837402 *  -2.87073    1.000000    
    192 O2    s    0.921923 *  0.921486 *  0.171240 *  -2.87073    1.000000    
    193 O2    s    0.352554 *  0.586923 *  0.334101 *  -2.87073    1.000000    
    194 O2    s    0.419937 *  0.751381 *  0.667565 *  -2.87073    1.000000    
    195 O2    s    0.232225 *  0.644289 *  0.999876 *  -2.87073    1.000000    
    196 O2    s    0.649787 *  0.413645 *  0.829515 *  -2.87073    1.000000    
    197 O2    s    0.600125 *  0.247794 *  0.169220 *  -2.87073    1.000000    
    198 O2    s    0.766814 *  0.352368 *  0.502535 *  -2.87073    1.000000    
    199 O3    s    0.589673 *  0.351551 *  0.003008 *  -3.33043    1.000000    
    200 O2    s    0.779945 *  0.422694 *  0.667797 *  -2.87073    1.000000    
    201 O2    s    0.645341 *  0.233165 *  0.336696 *  -2.87073    1.000000    
    202 O2    s    0.412901 *  0.643416 *  0.501131 *  -2.87073    1.000000    
    203 O2    s    0.242346 *  0.581126 *  0.166112 *  -2.87073    1.000000    
    204 O2    s    0.354754 *  0.762211 *  0.833402 *  -2.87073    1.000000    
    205 O2    s    0.116887 *  0.215057 *  0.971782 *  -2.87073    1.000000    
    206 O2    s    0.782407 *  0.902910 *  0.304499 *  -2.87073    1.000000    
    207 O2    s    0.108833 *  0.878405 *  0.639443 *  -2.87073    1.000000    
    208 O2    s    0.876513 *  0.781984 *  0.472681 *  -2.87073    1.000000    
    209 O2    s    0.214443 *  0.092456 *  0.808438 *  -2.87073    1.000000    
    210 O2    s    0.910937 *  0.121330 *  0.139256 *  -2.87073    1.000000    
    211 O2    s    0.214595 *  0.122663 *  0.366074 *  -2.87073    1.000000    
    212 O2    s    0.901211 *  0.781152 *  0.031918 *  -2.87073    1.000000    
    213 O2    s    0.879174 *  0.091499 *  0.697366 *  -2.87073    1.000000    
    214 O2    s    0.783941 *  0.874759 *  0.866737 *  -2.87073    1.000000    
    215 O2    s    0.095348 *  0.215059 *  0.531373 *  -2.87073    1.000000    
    216 O3    s    0.123309 *  0.910871 *  0.199923 *  -3.33043    1.000000    
    217 O2    s    0.930639 *  0.852678 *  0.253628 *  -2.87073    1.000000    
    218 O2    s    0.140635 *  0.069732 *  0.586221 *  -2.87073    1.000000    
    219 O2    s    0.923665 *  0.065880 *  0.919610 *  -2.87073    1.000000    
    220 O2    s    0.065917 *  0.134825 *  0.753830 *  -2.87073    1.000000    
    221 O2    s    0.865046 *  0.929445 *  0.087303 *  -2.87073    1.000000    
    222 O2    s    0.066443 *  0.933947 *  0.420223 *  -2.87073    1.000000    
    223 O2    s    0.905390 *  0.202876 *  0.984077 *  -2.87073    1.000000    
    224 O2    s    0.795184 *  0.702069 *  0.318781 *  -2.87073    1.000000    
    225 O3    s    0.298179 *  0.094548 *  0.650017 *  -3.33043    1.000000    
    226 O2    s    0.090751 *  0.794709 *  0.484305 *  -2.87073    1.000000    
    227 O2    s    0.204610 *  0.293072 *  0.818258 *  -2.87073    1.000000    
    228 O2    s    0.705180 *  0.915061 *  0.150372 *  -2.87073    1.000000    
    229 O2    s    0.207581 *  0.911773 *  0.358576 *  -2.87073    1.000000    
    230 O2    s    0.707653 *  0.810202 *  0.021132 *  -2.87073    1.000000    
    231 O2    s    0.094679 *  0.288452 *  0.686195 *  -2.87073    1.000000    
    232 O2    s    0.791661 *  0.086255 *  0.851591 *  -2.87073    1.000000    
    233 O2    s    0.295360 *  0.200794 *  0.520066 *  -2.87073    1.000000    
    234 O2    s    0.923756 *  0.705315 *  0.186567 *  -2.87073    1.000000    
    235 O2    s    0.328561 *  0.660232 *  0.250937 *  -2.87073    1.000000    
    236 O2    s    0.347310 *  0.663300 *  0.584406 *  -2.87073    1.000000    
    237 O2    s    0.330842 *  0.665658 *  0.917521 *  -2.87073    1.000000    
    238 O2    s    0.668200 *  0.339780 *  0.747926 *  -2.87073    1.000000    
    239 O2    s    0.663508 *  0.330689 *  0.085612 *  -2.87073    1.000000    
    240 O2    s    0.670700 *  0.326526 *  0.419657 *  -2.87073    1.000000    
    241 O3    s    0.363651 *  0.324515 *  0.972745 *  -3.33043    1.000000    
    242 O2    s    0.657098 *  0.035996 *  0.303620 *  -2.87073    1.000000    
    243 O2    s    0.974765 *  0.626301 *  0.636422 *  -2.87073    1.000000    
    244 O2    s    0.622005 *  0.657614 *  0.470028 *  -2.87073    1.000000    
    245 O2    s    0.338852 *  0.958578 *  0.800685 *  -2.87073    1.000000    
    246 O2    s    0.045448 *  0.373759 *  0.135776 *  -2.87073    1.000000    
    247 O2    s    0.339805 *  0.377040 *  0.366442 *  -2.87073    1.000000    
    248 O2    s    0.036019 *  0.657144 *  0.031966 *  -2.87073    1.000000    
    249 O2    s    0.624927 *  0.959011 *  0.698662 *  -2.87073    1.000000    
    250 O2    s    0.665508 *  0.620497 *  0.868271 *  -2.87073    1.000000    
    251 O2    s    0.965333 *  0.340659 *  0.533242 *  -2.87073    1.000000    
    252 O3    s    0.388333 *  0.059593 *  0.197116 *  -3.33043    1.000000    
    253 O2    s    0.777481 *  0.308553 *  0.015758 *  -2.87073    1.000000    
    254 O2    s    0.687020 *  0.464623 *  0.349926 *  -2.87073    1.000000    
    255 O3    s    0.549364 *  0.238866 *  0.676096 *  -3.33043    1.000000    
    256 O2    s    0.223582 *  0.685683 *  0.515345 *  -2.87073    1.000000    
    257 O2    s    0.315834 *  0.530747 *  0.850269 *  -2.87073    1.000000    
    258 O2    s    0.468621 *  0.782070 *  0.181864 *  -2.87073    1.000000    
    259 O2    s    0.308784 *  0.776607 *  0.321191 *  -2.87073    1.000000    
    260 O2    s    0.467247 *  0.689042 *  0.987628 *  -2.87073    1.000000    
    261 O2    s    0.229239 *  0.523892 *  0.654022 *  -2.87073    1.000000    
    262 O2    s    0.684194 *  0.217065 *  0.816695 *  -2.87073    1.000000    
    263 O2    s    0.532875 *  0.307717 *  0.488701 *  -2.87073    1.000000    
    264 O2    s    0.789888 *  0.471522 *  0.154163 *  -2.87073    1.000000    
    265 O2    s    0.791644 *  0.531032 *  0.031902 *  -2.87073    1.000000    
    266 O2    s    0.466013 *  0.256007 *  0.366689 *  -2.87073    1.000000    
    267 O2    s    0.738334 *  0.204829 *  0.696137 *  -2.87073    1.000000    
    268 O2    s    0.211651 *  0.463998 *  0.532089 *  -2.87073    1.000000    
    269 O2    s    0.531607 *  0.732153 *  0.868875 *  -2.87073    1.000000    
    270 O3    s    0.252584 *  0.775466 *  0.193973 *  -3.33043    1.000000    
    271 O2    s    0.528434 *  0.795026 *  0.302093 *  -2.87073    1.000000    
    272 O2    s    0.265995 *  0.468395 *  0.970923 *  -2.87073    1.000000    
    273 O2    s    0.218977 *  0.735556 *  0.637661 *  -2.87073    1.000000    
    274 O2    s    0.466979 *  0.207832 *  0.800061 *  -2.87073    1.000000    
    275 O2    s    0.740936 *  0.529956 *  0.472217 *  -2.87073    1.000000    
    276 O2    s    0.798866 *  0.260051 *  0.138024 *  -2.87073    1.000000    
    277 O2    s    0.246631 *  0.331527 *  0.901234 *  -2.87073    1.000000    
    278 O2    s    0.662997 *  0.914429 *  0.233960 *  -2.87073    1.000000    
    279 O2    s    0.099899 *  0.760231 *  0.567375 *  -2.87073    1.000000    
    280 O2    s    0.758933 *  0.665335 *  0.401582 *  -2.87073    1.000000    
    281 O3    s    0.313713 *  0.087115 *  0.736233 *  -3.33043    1.000000    
    282 O2    s    0.912551 *  0.238797 *  0.067184 *  -2.87073    1.000000    
    283 O2    s    0.331819 *  0.239918 *  0.436749 *  -2.87073    1.000000    
    284 O2    s    0.914890 *  0.667196 *  0.102280 *  -2.87073    1.000000    
    285 O2    s    0.754568 *  0.089917 *  0.767087 *  -2.87073    1.000000    
    286 O2    s    0.670725 *  0.751996 *  0.938015 *  -2.87073    1.000000    
    287 O2    s    0.094450 *  0.327320 *  0.602692 *  -2.87073    1.000000    
    288 O3    s    0.230060 *  0.909155 *  0.277219 *  -3.33043    1.000000    
    289 O3    s    0.597722 *  0.576810 *  0.997696 *  -3.33043    1.000000    
    290 O2    s    0.440345 *  0.022511 *  0.322858 *  -2.87073    1.000000    
    291 O2    s    0.983791 *  0.415297 *  0.655529 *  -2.87073    1.000000    
    292 O2    s    0.416827 *  0.437923 *  0.489114 *  -2.87073    1.000000    
    293 O2    s    0.557880 *  0.974388 *  0.817417 *  -2.87073    1.000000    
    294 O2    s    0.033497 *  0.580388 *  0.154468 *  -2.87073    1.000000    
    295 O2    s    0.559052 *  0.584617 *  0.348217 *  -2.87073    1.000000    
    296 O2    s    0.024734 *  0.438401 *  0.013175 *  -2.87073    1.000000    
    297 O3    s    0.416724 *  0.954947 *  0.675082 *  -3.33043    1.000000    
    298 O2    s    0.444151 *  0.414554 *  0.849585 *  -2.87073    1.000000    
    299 O2    s    0.977424 *  0.560563 *  0.514867 *  -2.87073    1.000000    
    300 O2    s    0.578415 *  0.026675 *  0.180838 *  -2.87073    1.000000    
    301 O2    s    0.574644 *  0.155601 *  0.252961 *  -2.87073    1.000000    
    302 O2    s    0.851525 *  0.426017 *  0.585092 *  -2.87073    1.000000    
    303 O3    s    0.596334 *  0.417000 *  0.913121 *  -3.33043    1.000000    
    304 O2    s    0.422104 *  0.842005 *  0.749309 *  -2.87073    1.000000    
    305 O2    s    0.159573 *  0.573858 *  0.083069 *  -2.87073    1.000000    
    306 O2    s    0.421133 *  0.575326 *  0.417991 *  -2.87073    1.000000    
    307 F     s    0.407007 *  0.909395 *  0.245061 *  -1.56000    1.000000    
    308 F     s    0.099833 *  0.543398 *  0.585342 *  -1.56000    1.000000    
    309 F     s    0.479289 *  0.516322 *  0.930790 *  -1.56000    1.000000    
    310 F     s    0.511297 *  0.091608 *  0.735795 *  -1.56000    1.000000    
    311 F     s    0.915255 *  0.449276 *  0.083783 *  -1.56000    1.000000    
    312 F     s    0.547472 *  0.450775 *  0.418214 *  -1.56000    1.000000    
--------------------------------------------------------------------------------



********************************************************************************
*  General input information                                                   *
********************************************************************************

  Species output for all configurations : 

--------------------------------------------------------------------------------
  Species    Type    Atomic    Atomic    Charge       Radii (Angs)     Library
                     Number     Mass       (e)     Cova   Ionic  VDW   Symbol
--------------------------------------------------------------------------------
    Si       Core       14      28.09   4.000000   1.200  0.000  2.100          
    O1       Core        8      16.00   1.733957   0.730  0.000  1.360          
    O1       Shell       8       0.00  -3.733957   0.730  0.000  1.360          
    O2       Core        8      16.00   0.870733   0.730  0.000  1.360          
    O2       Shell       8       0.00  -2.870733   0.730  0.000  1.360          
    O3       Core        8      16.00   1.330431   0.730  0.000  1.360          
    O3       Shell       8       0.00  -3.330431   0.730  0.000  1.360          
    F        Core        9      19.00   0.560000   0.710  0.000  1.300          
    F        Shell       9       0.00  -1.560000   0.710  0.000  1.300          
    Ge       Core       32      72.61   4.000000   1.170  0.000  1.750          
--------------------------------------------------------------------------------


  Lattice summation method               =    Ewald          (3-D)
                                         =    Parry          (2-D)
                                         =    Saunders et al (1-D)
  Accuracy factor for lattice sums       =   12.000


  Time limit = Infinity

  Maximum range for interatomic potentials =        16.000000 Angstroms

  Taper potentials to zero over   1.0000 Angstroms using polynomial

  General interatomic potentials :

--------------------------------------------------------------------------------
Atom  Types   Potential         A         B         C         D     Cutoffs(Ang)
  1     2                                                            Min    Max 
--------------------------------------------------------------------------------
Si   c O1   s Buckingham    0.132E+04 0.318      10.1      0.00     0.000 16.000
Si   c O2   s Buckingham    0.132E+04 0.318      10.1      0.00     0.000 16.000
Si   c O3   s Buckingham    0.132E+04 0.318      10.1      0.00     0.000 16.000
Ge   c O1   s Buckingham    0.150E+04 0.326      16.8      0.00     0.000 16.000
Ge   c O2   s Buckingham    0.150E+04 0.326      16.8      0.00     0.000 16.000
Ge   c O3   s Buckingham    0.150E+04 0.326      16.8      0.00     0.000 16.000
O1   s O1   s Buckingham    0.228E+05 0.149      10.9      0.00     0.000 16.000
O1   s O2   s Buckingham    0.228E+05 0.149      10.9      0.00     0.000 16.000
O1   s O3   s Buckingham    0.228E+05 0.149      10.9      0.00     0.000 16.000
O2   s O2   s Buckingham    0.228E+05 0.149      10.9      0.00     0.000 16.000
O2   s O3   s Buckingham    0.228E+05 0.149      10.9      0.00     0.000 16.000
O3   s O3   s Buckingham    0.228E+05 0.149      10.9      0.00     0.000 16.000
Si   c F    s Buckingham     977.     0.282      0.00      0.00     0.000 16.000
Ge   c F    s Buckingham     681.     0.320      0.00      0.00     0.000 16.000
F    s F    s Buckingham     540.     0.262      0.00      0.00     0.000 16.000
O1   s F    s Buckingham    0.168E+04 0.268      0.00      0.00     0.000 16.000
O2   s F    s Buckingham    0.168E+04 0.268      0.00      0.00     0.000 16.000
O3   s F    s Buckingham    0.168E+04 0.268      0.00      0.00     0.000 16.000
O2   c O2   s Spring (c-s)   76.0      0.00      0.00      0.00     0.000  0.800
O3   c O3   s Spring (c-s)   128.      0.00      0.00      0.00     0.000  0.800
O1   c O1   s Spring (c-s)   180.      0.00      0.00      0.00     0.000  0.800
F    c F    s Spring (c-s)   33.5      0.00      0.00      0.00     0.000  0.800
--------------------------------------------------------------------------------

  General Three-body potentials :

  Harmonic form:

--------------------------------------------------------------------------------
Atom    Atom    Atom           Force Constants            Theta     Cutoffs  
  1       2       3     (eVrad**-2/eVrad**-3/eVrad**-4)   (deg)  1-2  1-3  2-3
--------------------------------------------------------------------------------
Si    c O1    s O1    s  1.261        0.0000    0.0000   109.470 0.00 0.00 0.00
                                                                 1.90 1.90 3.50
Si    c O1    s O2    s  1.261        0.0000    0.0000   109.470 0.00 0.00 0.00
                                                                 1.90 1.90 3.50
Si    c O2    s O2    s  1.261        0.0000    0.0000   109.470 0.00 0.00 0.00
                                                                 1.90 1.90 3.50
--------------------------------------------------------------------------------

********************************************************************************
*  Output for configuration   1                                                *
********************************************************************************


  Components of energy : 

--------------------------------------------------------------------------------
  Interatomic potentials     =        2066.88669328 eV
  Three-body potentials      =           0.50129264 eV
  Monopole - monopole (real) =       -6616.11317351 eV
  Monopole - monopole (recip)=       -3171.94901735 eV
  Monopole - monopole (total)=       -9788.06219086 eV
  Neutralising energy        =          -6.46127313 eV
--------------------------------------------------------------------------------
  Total lattice energy       =       -7727.13547808 eV
--------------------------------------------------------------------------------
  Total lattice energy       =         -745550.4536 kJ/(mole unit cells)
--------------------------------------------------------------------------------


  Number of variables =      939

  Maximum number of calculations  =          1000
  Maximum Hessian update interval =            10
  Maximum step size               =   1.000000000
  Maximum parameter tolerance     =   0.000010000
  Maximum function  tolerance     =   0.000010000
  Maximum gradient  tolerance     =   0.001000000
  Maximum gradient  component     =   0.010000000

  Symmetry not applied to optimisation

  Cell parameters to be optimised using strains

  Newton-Raphson optimiser to be used

  BFGS hessian update to be used

  Dumpfile to be written after every cycle

  Start of bulk optimisation :

  Cycle:      0 Energy:     -7727.135478  Gnorm:      0.006352  CPU:    1.038
  ** Hessian calculated **
  Cycle:      1 Energy:     -7727.179622  Gnorm:      0.003813  CPU:    2.947
  Cycle:      2 Energy:     -7727.180016  Gnorm:      0.000254  CPU:    4.331
  Cycle:      3 Energy:     -7727.180030  Gnorm:      0.000069  CPU:    5.714


  **** Optimisation achieved ****


  Final energy =   -7727.18003045 eV
  Final Gnorm  =       0.00000670

  Components of energy : 

--------------------------------------------------------------------------------
  Interatomic potentials     =        2067.04401484 eV
  Three-body potentials      =           0.50721064 eV
  Monopole - monopole (real) =       -6615.96093816 eV
  Monopole - monopole (recip)=       -3172.30831223 eV
  Monopole - monopole (total)=       -9788.26925039 eV
  Neutralising energy        =          -6.46200554 eV
--------------------------------------------------------------------------------
  Total lattice energy       =       -7727.18003045 eV
--------------------------------------------------------------------------------
  Total lattice energy       =         -745554.7522 kJ/(mole unit cells)
--------------------------------------------------------------------------------

  Final fractional coordinates of atoms :

--------------------------------------------------------------------------------
   No.  Atomic        x           y          z          Radius
        Label       (Frac)      (Frac)     (Frac)       (Angs) 
--------------------------------------------------------------------------------
     1  Si    c     0.699600    0.375700    0.033890    0.000000
     2  Si    c     0.620905    0.311211    0.369318    0.000000
     3  Si    c     0.684049    0.294689    0.695577    0.000000
     4  Si    c     0.299360    0.602758    0.532420    0.000000
     5  Si    c     0.380110    0.660664    0.865133    0.000000
     6  Si    c     0.325583    0.694845    0.196314    0.000000
     7  Si    c     0.377110    0.691414    0.299781    0.000000
     8  Si    c     0.322538    0.611177    0.967339    0.000000
     9  Si    c     0.307292    0.653623    0.633027    0.000000
    10  Si    c     0.618264    0.284317    0.797335    0.000000
    11  Si    c     0.675047    0.365500    0.469750    0.000000
    12  Si    c     0.719310    0.328558    0.135464    0.000000
    13  Ge    c     0.526475    0.420962    0.965751    0.000000
    14  Si    c     0.583309    0.104712    0.304093    0.000000
    15  Si    c     0.904234    0.464927    0.635524    0.000000
    16  Si    c     0.468938    0.566779    0.466990    0.000000
    17  Si    c     0.415238    0.868336    0.796795    0.000000
    18  Si    c     0.124317    0.522283    0.131399    0.000000
    19  Si    c     0.418073    0.516944    0.365423    0.000000
    20  Si    c     0.111157    0.573589    0.030523    0.000000
    21  Si    c     0.473399    0.865752    0.694189    0.000000
    22  Si    c     0.590766    0.450522    0.866823    0.000000
    23  Si    c     0.890214    0.407351    0.534497    0.000000
    24  Si    c     0.537793    0.121631    0.200013    0.000000
    25  Si    c     0.302834    0.378840    0.852728    0.000000
    26  Si    c     0.606351    0.905381    0.184399    0.000000
    27  Si    c     0.099447    0.685869    0.519730    0.000000
    28  Si    c     0.699401    0.589358    0.353021    0.000000
    29  Ge    c     0.416090    0.083720    0.688871    0.000000
    30  Si    c     0.901541    0.297083    0.018402    0.000000
    31  Si    c     0.395645    0.285568    0.483394    0.000000
    32  Si    c     0.922911    0.604172    0.149140    0.000000
    33  Si    c     0.697829    0.079351    0.812862    0.000000
    34  Si    c     0.606360    0.693554    0.987425    0.000000
    35  Si    c     0.105713    0.380338    0.649301    0.000000
    36  Si    c     0.298657    0.893910    0.319349    0.000000
    37  Si    c     0.246764    0.322567    0.955074    0.000000
    38  Si    c     0.663084    0.903102    0.286800    0.000000
    39  Si    c     0.105445    0.740785    0.620546    0.000000
    40  Si    c     0.748841    0.647050    0.453822    0.000000
    41  Si    c     0.331625    0.071815    0.784179    0.000000
    42  Si    c     0.921779    0.247367    0.118642    0.000000
    43  Si    c     0.339179    0.238115    0.382116    0.000000
    44  Si    c     0.913408    0.654789    0.047710    0.000000
    45  Si    c     0.752634    0.075158    0.711437    0.000000
    46  Si    c     0.665270    0.730871    0.884297    0.000000
    47  Si    c     0.090787    0.324982    0.548567    0.000000
    48  Ge    c     0.275436    0.910164    0.219100    0.000000
    49  Si    c     0.962539    0.113992    0.969095    0.000000
    50  Si    c     0.881290    0.835224    0.301945    0.000000
    51  Si    c     0.163695    0.019960    0.636733    0.000000
    52  Si    c     0.026645    0.866208    0.469486    0.000000
    53  Si    c     0.118308    0.132735    0.803640    0.000000
    54  Si    c     0.856248    0.967266    0.136605    0.000000
    55  Si    c     0.122032    0.960182    0.369318    0.000000
    56  Si    c     0.851121    0.876034    0.035786    0.000000
    57  Si    c     0.032900    0.131409    0.700622    0.000000
    58  Si    c     0.876105    0.011805    0.868444    0.000000
    59  Si    c     0.149779    0.105656    0.534936    0.000000
    60  Si    c     0.988030    0.848559    0.202232    0.000000
    61  O2    c     0.930428    0.998631    0.003874    0.000000
    62  O2    c     0.000612    0.914635    0.335666    0.000000
    63  O2    c     0.073850    0.049114    0.669962    0.000000
    64  O2    c     0.067629    0.983961    0.503102    0.000000
    65  O2    c     0.000413    0.056282    0.837627    0.000000
    66  O2    c     0.929583    0.921599    0.171285    0.000000
    67  O2    c     0.342260    0.567225    0.331609    0.000000
    68  O2    c     0.433047    0.736089    0.665502    0.000000
    69  O2    c     0.233846    0.649324    0.996715    0.000000
    70  O2    c     0.660161    0.407244    0.829231    0.000000
    71  O2    c     0.601741    0.252301    0.170335    0.000000
    72  O2    c     0.762200    0.329190    0.503336    0.000000
    73  O3    c     0.577654    0.336648    0.003071    0.000000
    74  O2    c     0.782884    0.423143    0.668755    0.000000
    75  O2    c     0.659681    0.225904    0.337490    0.000000
    76  O2    c     0.419120    0.642475    0.498762    0.000000
    77  O2    c     0.253156    0.571014    0.163239    0.000000
    78  O2    c     0.343961    0.744084    0.830120    0.000000
    79  O2    c     0.114787    0.205351    0.973329    0.000000
    80  O2    c     0.787188    0.897336    0.306649    0.000000
    81  O2    c     0.109035    0.865673    0.641848    0.000000
    82  O2    c     0.872880    0.773452    0.474067    0.000000
    83  O2    c     0.211637    0.070902    0.810300    0.000000
    84  O2    c     0.922605    0.121354    0.139726    0.000000
    85  O2    c     0.212210    0.113752    0.362251    0.000000
    86  O2    c     0.908705    0.780601    0.027810    0.000000
    87  O2    c     0.879430    0.075513    0.692984    0.000000
    88  O2    c     0.787915    0.858039    0.863652    0.000000
    89  O2    c     0.087461    0.198550    0.527971    0.000000
    90  O3    c     0.136894    0.918415    0.197852    0.000000
    91  O2    c     0.933190    0.846413    0.252119    0.000000
    92  O2    c     0.136714    0.054531    0.585848    0.000000
    93  O2    c     0.920640    0.053921    0.919366    0.000000
    94  O2    c     0.060971    0.116715    0.753306    0.000000
    95  O2    c     0.867633    0.922056    0.086999    0.000000
    96  O2    c     0.065737    0.924878    0.419485    0.000000
    97  O2    c     0.892560    0.196589    0.979532    0.000000
    98  O2    c     0.798120    0.684606    0.314950    0.000000
    99  O3    c     0.310881    0.094289    0.647038    0.000000
   100  O2    c     0.097630    0.783403    0.480945    0.000000
   101  O2    c     0.202848    0.284495    0.814530    0.000000
   102  O2    c     0.704244    0.906050    0.147095    0.000000
   103  O2    c     0.209240    0.892757    0.361111    0.000000
   104  O2    c     0.699467    0.805611    0.022514    0.000000
   105  O2    c     0.106800    0.282676    0.688277    0.000000
   106  O2    c     0.792240    0.078832    0.852604    0.000000
   107  O2    c     0.300402    0.186646    0.521549    0.000000
   108  O2    c     0.925815    0.698557    0.188050    0.000000
   109  O2    c     0.325491    0.643304    0.248568    0.000000
   110  O2    c     0.361443    0.655853    0.582532    0.000000
   111  O2    c     0.324458    0.659213    0.914896    0.000000
   112  O2    c     0.674065    0.337936    0.747322    0.000000
   113  O2    c     0.656012    0.325627    0.085989    0.000000
   114  O2    c     0.677877    0.309392    0.419929    0.000000
   115  O3    c     0.360583    0.304518    0.974925    0.000000
   116  O2    c     0.668317    0.031777    0.305716    0.000000
   117  O2    c     0.973251    0.619617    0.638595    0.000000
   118  O2    c     0.624380    0.655486    0.470513    0.000000
   119  O2    c     0.329828    0.939125    0.800439    0.000000
   120  O2    c     0.057413    0.366832    0.135471    0.000000
   121  O2    c     0.330872    0.361769    0.362359    0.000000
   122  O2    c     0.043944    0.663767    0.027491    0.000000
   123  O2    c     0.630721    0.942306    0.694950    0.000000
   124  O2    c     0.673433    0.608574    0.865748    0.000000
   125  O2    c     0.958363    0.318713    0.530931    0.000000
   126  O3    c     0.386357    0.061329    0.194740    0.000000
   127  O2    c     0.768980    0.300051    0.012215    0.000000
   128  O2    c     0.696196    0.453485    0.346248    0.000000
   129  O3    c     0.547421    0.234071    0.671447    0.000000
   130  O2    c     0.230156    0.680250    0.511003    0.000000
   131  O2    c     0.309500    0.516685    0.845419    0.000000
   132  O2    c     0.473092    0.772899    0.177934    0.000000
   133  O2    c     0.303254    0.759582    0.322520    0.000000
   134  O2    c     0.467317    0.689567    0.987838    0.000000
   135  O2    c     0.241446    0.511171    0.656080    0.000000
   136  O2    c     0.689817    0.208825    0.818467    0.000000
   137  O2    c     0.532080    0.288324    0.491353    0.000000
   138  O2    c     0.790539    0.470951    0.156846    0.000000
   139  O2    c     0.786867    0.531605    0.028873    0.000000
   140  O2    c     0.464948    0.236336    0.363522    0.000000
   141  O2    c     0.746260    0.199071    0.692855    0.000000
   142  O2    c     0.216363    0.447778    0.528239    0.000000
   143  O2    c     0.534649    0.725465    0.865288    0.000000
   144  O3    c     0.246613    0.769941    0.189804    0.000000
   145  O2    c     0.531809    0.780380    0.302874    0.000000
   146  O2    c     0.259084    0.457463    0.971675    0.000000
   147  O2    c     0.228886    0.731511    0.639241    0.000000
   148  O2    c     0.463541    0.197731    0.801052    0.000000
   149  O2    c     0.748409    0.520806    0.474389    0.000000
   150  O2    c     0.799033    0.250410    0.139508    0.000000
   151  O2    c     0.235730    0.312160    0.899866    0.000000
   152  O2    c     0.674486    0.908452    0.232593    0.000000
   153  O2    c     0.102881    0.758499    0.565992    0.000000
   154  O2    c     0.768813    0.662819    0.399527    0.000000
   155  O3    c     0.305273    0.075430    0.731711    0.000000
   156  O2    c     0.913023    0.225700    0.064328    0.000000
   157  O2    c     0.322633    0.218765    0.436468    0.000000
   158  O2    c     0.921307    0.675329    0.101926    0.000000
   159  O2    c     0.764448    0.077822    0.766191    0.000000
   160  O2    c     0.678235    0.746604    0.938395    0.000000
   161  O2    c     0.096258    0.305419    0.602962    0.000000
   162  O3    c     0.221908    0.902182    0.275974    0.000000
   163  O3    c     0.596543    0.561768    0.001263    0.000000
   164  O2    c     0.442630    0.015222    0.325630    0.000000
   165  O2    c     0.983640    0.400152    0.659022    0.000000
   166  O2    c     0.411499    0.426060    0.490841    0.000000
   167  O2    c     0.557871    0.955619    0.817892    0.000000
   168  O2    c     0.045563    0.582562    0.155827    0.000000
   169  O2    c     0.559954    0.577434    0.343212    0.000000
   170  O2    c     0.028202    0.433410    0.007275    0.000000
   171  O3    c     0.414556    0.943794    0.668597    0.000000
   172  O2    c     0.444052    0.396137    0.846538    0.000000
   173  O2    c     0.972338    0.548823    0.511680    0.000000
   174  O2    c     0.587319    0.028817    0.177845    0.000000
   175  O2    c     0.583346    0.158534    0.253212    0.000000
   176  O2    c     0.843040    0.409503    0.585708    0.000000
   177  O3    c     0.598817    0.396898    0.915345    0.000000
   178  O2    c     0.418434    0.820788    0.746106    0.000000
   179  O2    c     0.174566    0.575267    0.080189    0.000000
   180  O2    c     0.415262    0.568439    0.415857    0.000000
   181  F     c     0.420037    0.903813    0.245800    0.000000
   182  F     c     0.103200    0.532021    0.584836    0.000000
   183  F     c     0.472963    0.511524    0.927087    0.000000
   184  F     c     0.519944    0.079885    0.737332    0.000000
   185  F     c     0.920117    0.449747    0.082294    0.000000
   186  F     c     0.547604    0.438651    0.417245    0.000000
   187  O2    s     0.925095    0.997914    0.003504    0.000000
   188  O2    s     0.000884    0.910894    0.335676    0.000000
   189  O2    s     0.078395    0.055492    0.670040    0.000000
   190  O2    s     0.072113    0.984194    0.502842    0.000000
   191  O2    s     0.999536    0.059762    0.837311    0.000000
   192  O2    s     0.927145    0.919199    0.170494    0.000000
   193  O2    s     0.353681    0.575147    0.331707    0.000000
   194  O2    s     0.424699    0.741003    0.665185    0.000000
   195  O2    s     0.231275    0.637794    0.996877    0.000000
   196  O2    s     0.648728    0.398619    0.829640    0.000000
   197  O2    s     0.607125    0.246211    0.169884    0.000000
   198  O2    s     0.766453    0.341075    0.503084    0.000000
   199  O3    s     0.587360    0.346924    0.003790    0.000000
   200  O2    s     0.784749    0.413615    0.668226    0.000000
   201  O2    s     0.647777    0.221954    0.337266    0.000000
   202  O2    s     0.411810    0.630461    0.498979    0.000000
   203  O2    s     0.247689    0.578591    0.163417    0.000000
   204  O2    s     0.355156    0.748033    0.830406    0.000000
   205  O2    s     0.112236    0.208046    0.970853    0.000000
   206  O2    s     0.783419    0.891612    0.304057    0.000000
   207  O2    s     0.114117    0.867720    0.639069    0.000000
   208  O2    s     0.876187    0.770124    0.471520    0.000000
   209  O2    s     0.213825    0.077532    0.807031    0.000000
   210  O2    s     0.915411    0.117987    0.137220    0.000000
   211  O2    s     0.215924    0.110615    0.365005    0.000000
   212  O2    s     0.903045    0.777952    0.030650    0.000000
   213  O2    s     0.881761    0.081274    0.695728    0.000000
   214  O2    s     0.784635    0.861219    0.866253    0.000000
   215  O2    s     0.094384    0.201953    0.530825    0.000000
   216  O3    s     0.129060    0.909936    0.199714    0.000000
   217  O2    s     0.932891    0.845344    0.252707    0.000000
   218  O2    s     0.141053    0.056717    0.585399    0.000000
   219  O2    s     0.920104    0.055663    0.918940    0.000000
   220  O2    s     0.064377    0.120131    0.753238    0.000000
   221  O2    s     0.864449    0.921853    0.086669    0.000000
   222  O2    s     0.067643    0.922215    0.419491    0.000000
   223  O2    s     0.900986    0.197497    0.982190    0.000000
   224  O2    s     0.796675    0.690648    0.317524    0.000000
   225  O3    s     0.301397    0.085188    0.648698    0.000000
   226  O2    s     0.090244    0.782190    0.483709    0.000000
   227  O2    s     0.204342    0.278457    0.817321    0.000000
   228  O2    s     0.709632    0.912336    0.149944    0.000000
   229  O2    s     0.208976    0.899854    0.357913    0.000000
   230  O2    s     0.705720    0.801571    0.020323    0.000000
   231  O2    s     0.098869    0.276609    0.685612    0.000000
   232  O2    s     0.790946    0.071759    0.849982    0.000000
   233  O2    s     0.294569    0.188404    0.519011    0.000000
   234  O2    s     0.931778    0.703624    0.185332    0.000000
   235  O2    s     0.330855    0.653332    0.248844    0.000000
   236  O2    s     0.349513    0.650190    0.582636    0.000000
   237  O2    s     0.330131    0.654589    0.914877    0.000000
   238  O2    s     0.669045    0.327933    0.747598    0.000000
   239  O2    s     0.667024    0.330929    0.085977    0.000000
   240  O2    s     0.671740    0.315292    0.419802    0.000000
   241  O3    s     0.359363    0.314239    0.972131    0.000000
   242  O2    s     0.659099    0.025636    0.303556    0.000000
   243  O2    s     0.979745    0.615868    0.636372    0.000000
   244  O2    s     0.621403    0.645438    0.468381    0.000000
   245  O2    s     0.339085    0.944807    0.798420    0.000000
   246  O2    s     0.050155    0.370378    0.133276    0.000000
   247  O2    s     0.340746    0.364929    0.364738    0.000000
   248  O2    s     0.037553    0.653586    0.029868    0.000000
   249  O2    s     0.627936    0.948754    0.696639    0.000000
   250  O2    s     0.664654    0.606392    0.867823    0.000000
   251  O2    s     0.965365    0.328586    0.533185    0.000000
   252  O3    s     0.394248    0.056982    0.197006    0.000000
   253  O2    s     0.776858    0.307233    0.015089    0.000000
   254  O2    s     0.688763    0.453127    0.349372    0.000000
   255  O3    s     0.552714    0.230040    0.675232    0.000000
   256  O2    s     0.223414    0.672803    0.514186    0.000000
   257  O2    s     0.316286    0.517539    0.848281    0.000000
   258  O2    s     0.472535    0.779242    0.180497    0.000000
   259  O2    s     0.310454    0.766051    0.319806    0.000000
   260  O2    s     0.466057    0.681755    0.985609    0.000000
   261  O2    s     0.233955    0.512070    0.652962    0.000000
   262  O2    s     0.683304    0.202485    0.815663    0.000000
   263  O2    s     0.532544    0.295986    0.488259    0.000000
   264  O2    s     0.797033    0.470028    0.153747    0.000000
   265  O2    s     0.792298    0.529579    0.031425    0.000000
   266  O2    s     0.467527    0.244333    0.366081    0.000000
   267  O2    s     0.740698    0.194666    0.695158    0.000000
   268  O2    s     0.211420    0.450802    0.530854    0.000000
   269  O2    s     0.531929    0.719036    0.867284    0.000000
   270  O3    s     0.256973    0.772591    0.192577    0.000000
   271  O2    s     0.529844    0.784495    0.300802    0.000000
   272  O2    s     0.264852    0.460268    0.969515    0.000000
   273  O2    s     0.223668    0.724205    0.636617    0.000000
   274  O2    s     0.466547    0.194035    0.798948    0.000000
   275  O2    s     0.740742    0.518403    0.471700    0.000000
   276  O2    s     0.804071    0.258236    0.136862    0.000000
   277  O2    s     0.244141    0.320448    0.900295    0.000000
   278  O2    s     0.666002    0.907555    0.233435    0.000000
   279  O2    s     0.102788    0.749005    0.566865    0.000000
   280  O2    s     0.759415    0.653436    0.400416    0.000000
   281  O3    s     0.315169    0.075528    0.734590    0.000000
   282  O2    s     0.912794    0.235326    0.065290    0.000000
   283  O2    s     0.332078    0.227852    0.435628    0.000000
   284  O2    s     0.920659    0.665730    0.101075    0.000000
   285  O2    s     0.755978    0.077706    0.765502    0.000000
   286  O2    s     0.669866    0.739696    0.937175    0.000000
   287  O2    s     0.096681    0.315360    0.602144    0.000000
   288  O3    s     0.233539    0.901852    0.276593    0.000000
   289  O3    s     0.592833    0.567145    0.997432    0.000000
   290  O2    s     0.442604    0.011984    0.322685    0.000000
   291  O2    s     0.988613    0.404867    0.655546    0.000000
   292  O2    s     0.415938    0.425566    0.487555    0.000000
   293  O2    s     0.558067    0.959962    0.815110    0.000000
   294  O2    s     0.040384    0.578306    0.152516    0.000000
   295  O2    s     0.560069    0.572309    0.346562    0.000000
   296  O2    s     0.023413    0.433615    0.010827    0.000000
   297  O3    s     0.421000    0.945917    0.672708    0.000000
   298  O2    s     0.442891    0.399675    0.849219    0.000000
   299  O2    s     0.977519    0.548692    0.514939    0.000000
   300  O2    s     0.584329    0.024264    0.180762    0.000000
   301  O2    s     0.578830    0.149191    0.253375    0.000000
   302  O2    s     0.854286    0.415001    0.585543    0.000000
   303  O3    s     0.593452    0.404203    0.913266    0.000000
   304  O2    s     0.423357    0.830227    0.746542    0.000000
   305  O2    s     0.162914    0.569671    0.080292    0.000000
   306  O2    s     0.421094    0.562907    0.415887    0.000000
   307  F     s     0.411042    0.904026    0.244249    0.000000
   308  F     s     0.103547    0.531992    0.584924    0.000000
   309  F     s     0.477045    0.505155    0.929767    0.000000
   310  F     s     0.512870    0.080170    0.734202    0.000000
   311  F     s     0.920823    0.449705    0.082209    0.000000
   312  F     s     0.547843    0.438483    0.417169    0.000000
--------------------------------------------------------------------------------

  Final Cartesian lattice vectors (Angstroms) :

       11.910800    0.003160   -0.006115
       -5.837946   10.416300    0.012730
       -0.572805    0.283432   29.443751


  Final cell parameters and derivatives :

--------------------------------------------------------------------------------
       a           11.910802 Angstrom     dE/de1(xx)     0.000426 eV/strain
       b           11.940732 Angstrom     dE/de2(yy)     0.000126 eV/strain
       c           29.450686 Angstrom     dE/de3(zz)     0.000484 eV/strain
       alpha       88.913017 Degrees      dE/de4(yz)     0.000096 eV/strain
       beta        91.143719 Degrees      dE/de5(xz)    -0.000129 eV/strain
       gamma      119.253812 Degrees      dE/de6(xy)     0.000045 eV/strain
--------------------------------------------------------------------------------

  Primitive cell volume =          3653.455802 Angs**3

  Density of cell =      1.751244 g/cm**3

  Non-primitive cell volume =          3653.455802 Angs**3


  Final internal derivatives :

--------------------------------------------------------------------------------
   No.  Atomic          a             b             c           Radius
        Label          (eV)          (eV)          (eV)        (eV/Angs)
--------------------------------------------------------------------------------
      1 Si    c       0.000000      0.000000      0.000000      0.000000
      2 Si    c      -0.000077      0.000076      0.000047      0.000000
      3 Si    c      -0.000095     -0.000010      0.000052      0.000000
      4 Si    c       0.000073     -0.000050     -0.000012      0.000000
      5 Si    c      -0.000034      0.000056      0.000085      0.000000
      6 Si    c       0.000027     -0.000038      0.000172      0.000000
      7 Si    c      -0.000036      0.000028     -0.000109      0.000000
      8 Si    c       0.000040     -0.000111     -0.000148      0.000000
      9 Si    c       0.000027     -0.000086     -0.000106      0.000000
     10 Si    c       0.000013      0.000017      0.000132      0.000000
     11 Si    c       0.000012      0.000010      0.000153      0.000000
     12 Si    c       0.000019      0.000109     -0.000049      0.000000
     13 Ge    c      -0.001104      0.000698     -0.002075      0.000000
     14 Si    c       0.000002      0.000018      0.000068      0.000000
     15 Si    c      -0.000013      0.000034      0.000023      0.000000
     16 Si    c      -0.000012      0.000002      0.000020      0.000000
     17 Si    c       0.000031     -0.000005     -0.000030      0.000000
     18 Si    c       0.000075     -0.000195     -0.000373      0.000000
     19 Si    c      -0.000003     -0.000008      0.000038      0.000000
     20 Si    c      -0.000079     -0.000151     -0.000012      0.000000
     21 Si    c      -0.000006     -0.000021     -0.000017      0.000000
     22 Si    c       0.000186     -0.000112     -0.001017      0.000000
     23 Si    c       0.000000      0.000022      0.000013      0.000000
     24 Si    c       0.000009     -0.000072     -0.000046      0.000000
     25 Si    c      -0.000088      0.000123      0.000071      0.000000
     26 Si    c       0.000054      0.000041     -0.000037      0.000000
     27 Si    c      -0.000057      0.000012      0.000013      0.000000
     28 Si    c       0.000007     -0.000011     -0.000039      0.000000
     29 Ge    c       0.000055      0.000033      0.000171      0.000000
     30 Si    c       0.000430     -0.000129     -0.000237      0.000000
     31 Si    c      -0.000015      0.000025      0.000047      0.000000
     32 Si    c      -0.000086      0.000056      0.000218      0.000000
     33 Si    c       0.000056     -0.000046      0.000098      0.000000
     34 Si    c       0.000138     -0.000138      0.000121      0.000000
     35 Si    c       0.000032      0.000023     -0.000060      0.000000
     36 Si    c      -0.000072      0.000007      0.000181      0.000000
     37 Si    c      -0.000027      0.000087      0.000036      0.000000
     38 Si    c       0.000021     -0.000037     -0.000041      0.000000
     39 Si    c      -0.000035      0.000016     -0.000032      0.000000
     40 Si    c       0.000006      0.000002      0.000065      0.000000
     41 Si    c      -0.000044      0.000040      0.000019      0.000000
     42 Si    c       0.000119      0.000038      0.000140      0.000000
     43 Si    c       0.000006      0.000007     -0.000033      0.000000
     44 Si    c       0.000002     -0.000314     -0.000164      0.000000
     45 Si    c       0.000003      0.000011      0.000081      0.000000
     46 Si    c       0.000063     -0.000034     -0.000227      0.000000
     47 Si    c       0.000034     -0.000015     -0.000002      0.000000
     48 Ge    c       0.000010      0.000032      0.000061      0.000000
     49 Si    c      -0.000055      0.000411      0.000320      0.000000
     50 Si    c       0.000048     -0.000060      0.000132      0.000000
     51 Si    c      -0.000026     -0.000005     -0.000058      0.000000
     52 Si    c       0.000014     -0.000010      0.000069      0.000000
     53 Si    c       0.000027      0.000000     -0.000075      0.000000
     54 Si    c      -0.000231      0.000016      0.000894      0.000000
     55 Si    c       0.000012     -0.000010     -0.000086      0.000000
     56 Si    c      -0.000226     -0.000164      0.000548      0.000000
     57 Si    c       0.000013      0.000018      0.000093      0.000000
     58 Si    c      -0.000024     -0.000044     -0.000024      0.000000
     59 Si    c       0.000004      0.000003      0.000015      0.000000
     60 Si    c      -0.000006     -0.000005     -0.000244      0.000000
     61 O2    c       0.000252      0.000080     -0.000750      0.000000
     62 O2    c      -0.000026     -0.000021     -0.000046      0.000000
     63 O2    c       0.000024     -0.000031     -0.000038      0.000000
     64 O2    c      -0.000002      0.000002      0.000005      0.000000
     65 O2    c       0.000090     -0.000020     -0.000018      0.000000
     66 O2    c       0.000089     -0.000047      0.000133      0.000000
     67 O2    c       0.000042     -0.000138      0.000249      0.000000
     68 O2    c       0.000060      0.000044      0.000116      0.000000
     69 O2    c      -0.000035      0.000036      0.000020      0.000000
     70 O2    c       0.000040     -0.000115     -0.000342      0.000000
     71 O2    c      -0.000009      0.000106     -0.000200      0.000000
     72 O2    c      -0.000057      0.000009     -0.000158      0.000000
     73 O3    c       0.000680     -0.000782      0.002997      0.000000
     74 O2    c       0.000053      0.000037     -0.000079      0.000000
     75 O2    c       0.000034     -0.000138     -0.000257      0.000000
     76 O2    c      -0.000077      0.000029      0.000150      0.000000
     77 O2    c       0.000032     -0.000018      0.000065      0.000000
     78 O2    c       0.000071     -0.000133      0.000309      0.000000
     79 O2    c      -0.000074      0.000068     -0.000050      0.000000
     80 O2    c      -0.000025      0.000022      0.000019      0.000000
     81 O2    c       0.000030     -0.000015      0.000001      0.000000
     82 O2    c      -0.000018      0.000002     -0.000020      0.000000
     83 O2    c       0.000053     -0.000024     -0.000030      0.000000
     84 O2    c      -0.000035      0.000236      0.000139      0.000000
     85 O2    c      -0.000007     -0.000012     -0.000002      0.000000
     86 O2    c       0.000128      0.000011     -0.000289      0.000000
     87 O2    c      -0.000023      0.000004      0.000034      0.000000
     88 O2    c      -0.000012     -0.000021      0.000063      0.000000
     89 O2    c      -0.000004      0.000001      0.000025      0.000000
     90 O3    c      -0.000031      0.000057      0.000064      0.000000
     91 O2    c      -0.000128      0.000119      0.000286      0.000000
     92 O2    c       0.000017     -0.000003      0.000055      0.000000
     93 O2    c      -0.000107     -0.000225     -0.001302      0.000000
     94 O2    c      -0.000052      0.000012     -0.000239      0.000000
     95 O2    c       0.000210     -0.000182     -0.001445      0.000000
     96 O2    c      -0.000004      0.000007     -0.000030      0.000000
     97 O2    c      -0.000143      0.000145     -0.000150      0.000000
     98 O2    c      -0.000008     -0.000039      0.000053      0.000000
     99 O3    c      -0.000045      0.000030     -0.000094      0.000000
    100 O2    c      -0.000005      0.000008     -0.000031      0.000000
    101 O2    c      -0.000009     -0.000046     -0.000113      0.000000
    102 O2    c      -0.000004     -0.000004     -0.000093      0.000000
    103 O2    c       0.000043     -0.000033     -0.000136      0.000000
    104 O2    c      -0.000006     -0.000043     -0.000073      0.000000
    105 O2    c       0.000016     -0.000040      0.000047      0.000000
    106 O2    c       0.000021      0.000015      0.000058      0.000000
    107 O2    c      -0.000006     -0.000002      0.000017      0.000000
    108 O2    c       0.000008     -0.000006      0.000018      0.000000
    109 O2    c      -0.000017      0.000013     -0.000150      0.000000
    110 O2    c       0.000002     -0.000007     -0.000095      0.000000
    111 O2    c       0.000013     -0.000019     -0.000054      0.000000
    112 O2    c      -0.000007     -0.000020     -0.000029      0.000000
    113 O2    c      -0.000076      0.000089     -0.000043      0.000000
    114 O2    c       0.000016     -0.000012     -0.000040      0.000000
    115 O3    c      -0.000002     -0.000002      0.000070      0.000000
    116 O2    c      -0.000003      0.000009      0.000017      0.000000
    117 O2    c       0.000008     -0.000022     -0.000007      0.000000
    118 O2    c      -0.000013      0.000011      0.000010      0.000000
    119 O2    c      -0.000004     -0.000007      0.000003      0.000000
    120 O2    c      -0.000034      0.000010     -0.000123      0.000000
    121 O2    c       0.000006     -0.000010      0.000045      0.000000
    122 O2    c      -0.000061      0.000049     -0.000060      0.000000
    123 O2    c       0.000026      0.000004      0.000003      0.000000
    124 O2    c      -0.000011      0.000026     -0.000019      0.000000
    125 O2    c      -0.000019      0.000002     -0.000023      0.000000
    126 O3    c       0.000025      0.000021     -0.000157      0.000000
    127 O2    c      -0.000102      0.000044      0.000093      0.000000
    128 O2    c       0.000005     -0.000050      0.000046      0.000000
    129 O3    c       0.000020     -0.000019      0.000089      0.000000
    130 O2    c       0.000002      0.000011     -0.000064      0.000000
    131 O2    c      -0.000008     -0.000053      0.000101      0.000000
    132 O2    c      -0.000024     -0.000045     -0.000008      0.000000
    133 O2    c       0.000020     -0.000052      0.000007      0.000000
    134 O2    c      -0.000053     -0.000038      0.000244      0.000000
    135 O2    c      -0.000024     -0.000020      0.000017      0.000000
    136 O2    c      -0.000039      0.000061     -0.000020      0.000000
    137 O2    c       0.000019     -0.000005     -0.000011      0.000000
    138 O2    c       0.000011     -0.000168     -0.000138      0.000000
    139 O2    c      -0.000030      0.000203      0.000404      0.000000
    140 O2    c       0.000051     -0.000009      0.000013      0.000000
    141 O2    c       0.000045     -0.000059      0.000032      0.000000
    142 O2    c      -0.000004      0.000020      0.000005      0.000000
    143 O2    c      -0.000144      0.000037     -0.000169      0.000000
    144 O3    c      -0.000074      0.000000     -0.000074      0.000000
    145 O2    c       0.000033     -0.000012      0.000027      0.000000
    146 O2    c       0.000051      0.000035     -0.000145      0.000000
    147 O2    c      -0.000031      0.000033      0.000033      0.000000
    148 O2    c       0.000014     -0.000016     -0.000049      0.000000
    149 O2    c      -0.000006     -0.000006     -0.000002      0.000000
    150 O2    c       0.000015     -0.000072     -0.000019      0.000000
    151 O2    c       0.000120     -0.000127     -0.000106      0.000000
    152 O2    c       0.000006     -0.000004      0.000064      0.000000
    153 O2    c       0.000014     -0.000014     -0.000022      0.000000
    154 O2    c       0.000005      0.000008     -0.000042      0.000000
    155 O3    c      -0.000009     -0.000013      0.000082      0.000000
    156 O2    c      -0.000073      0.000001     -0.000416      0.000000
    157 O2    c      -0.000004     -0.000002      0.000005      0.000000
    158 O2    c      -0.000044      0.000033     -0.000082      0.000000
    159 O2    c       0.000004      0.000000     -0.000154      0.000000
    160 O2    c      -0.000054      0.000088      0.000513      0.000000
    161 O2    c      -0.000009      0.000013      0.000041      0.000000
    162 O3    c      -0.000051     -0.000044     -0.000131      0.000000
    163 O3    c      -0.000152      0.000542     -0.000580      0.000000
    164 O2    c      -0.000007      0.000007      0.000074      0.000000
    165 O2    c      -0.000031      0.000011      0.000063      0.000000
    166 O2    c       0.000004     -0.000004      0.000012      0.000000
    167 O2    c      -0.000040      0.000009      0.000004      0.000000
    168 O2    c      -0.000028      0.000082      0.000333      0.000000
    169 O2    c       0.000015      0.000008     -0.000055      0.000000
    170 O2    c      -0.000084     -0.000057      0.000045      0.000000
    171 O3    c      -0.000027     -0.000030     -0.000198      0.000000
    172 O2    c       0.000027      0.000027     -0.000173      0.000000
    173 O2    c       0.000016      0.000014     -0.000029      0.000000
    174 O2    c      -0.000031      0.000052     -0.000020      0.000000
    175 O2    c       0.000009      0.000011      0.000120      0.000000
    176 O2    c       0.000012     -0.000004     -0.000015      0.000000
    177 O3    c       0.000496     -0.000509     -0.000392      0.000000
    178 O2    c      -0.000002     -0.000005      0.000020      0.000000
    179 O2    c       0.000003     -0.000012      0.000083      0.000000
    180 O2    c      -0.000005      0.000006     -0.000026      0.000000
    181 F     c       0.000009      0.000007     -0.000019      0.000000
    182 F     c      -0.000003      0.000001      0.000017      0.000000
    183 F     c       0.000026     -0.000038      0.000791      0.000000
    184 F     c      -0.000019      0.000030     -0.000050      0.000000
    185 F     c       0.000060     -0.000065     -0.000142      0.000000
    186 F     c      -0.000031      0.000036      0.000025      0.000000
    187 O2    s       0.000033     -0.000144      0.000538      0.000000
    188 O2    s       0.000020      0.000012      0.000045      0.000000
    189 O2    s      -0.000015      0.000006      0.000018      0.000000
    190 O2    s       0.000006      0.000004      0.000018      0.000000
    191 O2    s       0.000019     -0.000037      0.000113      0.000000
    192 O2    s       0.000069     -0.000026      0.000247      0.000000
    193 O2    s      -0.000023      0.000003     -0.000040      0.000000
    194 O2    s      -0.000036     -0.000044      0.000017      0.000000
    195 O2    s       0.000051     -0.000031     -0.000026      0.000000
    196 O2    s      -0.000062      0.000082      0.000171      0.000000
    197 O2    s      -0.000035      0.000010      0.000152      0.000000
    198 O2    s       0.000012      0.000011      0.000022      0.000000
    199 O3    s      -0.000599      0.000550     -0.002122      0.000000
    200 O2    s      -0.000033      0.000011     -0.000046      0.000000
    201 O2    s       0.000012      0.000047      0.000017      0.000000
    202 O2    s       0.000022     -0.000002     -0.000001      0.000000
    203 O2    s      -0.000052      0.000029     -0.000050      0.000000
    204 O2    s       0.000018      0.000040     -0.000042      0.000000
    205 O2    s       0.000061      0.000014      0.000134      0.000000
    206 O2    s      -0.000005      0.000019      0.000025      0.000000
    207 O2    s      -0.000003      0.000018      0.000022      0.000000
    208 O2    s       0.000002      0.000004      0.000050      0.000000
    209 O2    s      -0.000006      0.000003      0.000015      0.000000
    210 O2    s       0.000113     -0.000017      0.000172      0.000000
    211 O2    s      -0.000005      0.000018     -0.000050      0.000000
    212 O2    s       0.000097     -0.000141      0.000158      0.000000
    213 O2    s      -0.000000      0.000023      0.000013      0.000000
    214 O2    s       0.000016      0.000025     -0.000222      0.000000
    215 O2    s       0.000009     -0.000003     -0.000035      0.000000
    216 O3    s       0.000026      0.000020     -0.000167      0.000000
    217 O2    s       0.000078     -0.000050     -0.000062      0.000000
    218 O2    s      -0.000009      0.000001      0.000013      0.000000
    219 O2    s       0.000122     -0.000014      0.000172      0.000000
    220 O2    s       0.000015      0.000017     -0.000013      0.000000
    221 O2    s      -0.000111      0.000105      0.000287      0.000000
    222 O2    s      -0.000003      0.000002      0.000023      0.000000
    223 O2    s      -0.000132      0.000145      0.000053      0.000000
    224 O2    s       0.000023     -0.000017     -0.000094      0.000000
    225 O3    s      -0.000010      0.000013      0.000015      0.000000
    226 O2    s       0.000009     -0.000003      0.000023      0.000000
    227 O2    s      -0.000004      0.000061      0.000020      0.000000
    228 O2    s      -0.000089     -0.000066      0.000091      0.000000
    229 O2    s      -0.000014      0.000011      0.000070      0.000000
    230 O2    s      -0.000134      0.000002      0.000053      0.000000
    231 O2    s       0.000010      0.000001     -0.000003      0.000000
    232 O2    s      -0.000049     -0.000024     -0.000030      0.000000
    233 O2    s      -0.000006      0.000008      0.000009      0.000000
    234 O2    s      -0.000022     -0.000010     -0.000026      0.000000
    235 O2    s      -0.000005     -0.000014     -0.000066      0.000000
    236 O2    s      -0.000037      0.000012     -0.000018      0.000000
    237 O2    s      -0.000004      0.000055     -0.000044      0.000000
    238 O2    s       0.000003      0.000033      0.000138      0.000000
    239 O2    s      -0.000030     -0.000049      0.000125      0.000000
    240 O2    s      -0.000004      0.000007      0.000111      0.000000
    241 O3    s       0.000101     -0.000154     -0.000065      0.000000
    242 O2    s      -0.000014      0.000033      0.000000      0.000000
    243 O2    s      -0.000016      0.000001     -0.000032      0.000000
    244 O2    s       0.000010     -0.000002      0.000010      0.000000
    245 O2    s      -0.000020      0.000030     -0.000010      0.000000
    246 O2    s       0.000095     -0.000030      0.000265      0.000000
    247 O2    s      -0.000010      0.000016     -0.000080      0.000000
    248 O2    s      -0.000037      0.000130      0.000177      0.000000
    249 O2    s      -0.000031      0.000026      0.000044      0.000000
    250 O2    s       0.000069     -0.000183      0.000146      0.000000
    251 O2    s       0.000017     -0.000004      0.000003      0.000000
    252 O3    s      -0.000073      0.000019      0.000125      0.000000
    253 O2    s       0.000178     -0.000163     -0.000138      0.000000
    254 O2    s      -0.000001      0.000063     -0.000092      0.000000
    255 O3    s      -0.000027      0.000009     -0.000204      0.000000
    256 O2    s       0.000014     -0.000014      0.000090      0.000000
    257 O2    s      -0.000012      0.000008      0.000022      0.000000
    258 O2    s      -0.000024     -0.000008     -0.000059      0.000000
    259 O2    s      -0.000015      0.000056      0.000063      0.000000
    260 O2    s       0.000217     -0.000155     -0.000032      0.000000
    261 O2    s       0.000000     -0.000002      0.000008      0.000000
    262 O2    s      -0.000022      0.000066     -0.000041      0.000000
    263 O2    s       0.000012     -0.000006     -0.000001      0.000000
    264 O2    s      -0.000040      0.000118      0.000109      0.000000
    265 O2    s       0.000251     -0.000269      0.000119      0.000000
    266 O2    s      -0.000057      0.000014     -0.000064      0.000000
    267 O2    s       0.000010     -0.000025      0.000003      0.000000
    268 O2    s       0.000020     -0.000007     -0.000037      0.000000
    269 O2    s      -0.000002      0.000058     -0.000151      0.000000
    270 O3    s       0.000068     -0.000035     -0.000039      0.000000
    271 O2    s       0.000002      0.000030     -0.000034      0.000000
    272 O2    s      -0.000103      0.000059      0.000171      0.000000
    273 O2    s       0.000017     -0.000023     -0.000016      0.000000
    274 O2    s      -0.000017      0.000060      0.000073      0.000000
    275 O2    s       0.000019     -0.000017     -0.000013      0.000000
    276 O2    s      -0.000065      0.000035      0.000131      0.000000
    277 O2    s       0.000029     -0.000029     -0.000092      0.000000
    278 O2    s       0.000022      0.000001      0.000052      0.000000
    279 O2    s      -0.000015      0.000002      0.000013      0.000000
    280 O2    s       0.000000     -0.000004      0.000008      0.000000
    281 O3    s      -0.000010      0.000028     -0.000017      0.000000
    282 O2    s       0.000050     -0.000051      0.000042      0.000000
    283 O2    s       0.000003      0.000000      0.000031      0.000000
    284 O2    s       0.000047     -0.000068     -0.000185      0.000000
    285 O2    s       0.000011     -0.000021     -0.000076      0.000000
    286 O2    s      -0.000157     -0.000015      0.000376      0.000000
    287 O2    s       0.000009     -0.000006      0.000046      0.000000
    288 O3    s       0.000051      0.000042      0.000085      0.000000
    289 O3    s       0.000336     -0.000390      0.000402      0.000000
    290 O2    s       0.000015      0.000001     -0.000092      0.000000
    291 O2    s       0.000010      0.000002     -0.000080      0.000000
    292 O2    s       0.000002      0.000001      0.000009      0.000000
    293 O2    s       0.000027     -0.000043      0.000009      0.000000
    294 O2    s       0.000030     -0.000067     -0.000321      0.000000
    295 O2    s      -0.000011     -0.000002      0.000030      0.000000
    296 O2    s       0.000119     -0.000081     -0.000373      0.000000
    297 O3    s       0.000027      0.000048      0.000283      0.000000
    298 O2    s       0.000062      0.000001      0.000368      0.000000
    299 O2    s      -0.000005      0.000013      0.000031      0.000000
    300 O2    s       0.000032     -0.000033      0.000030      0.000000
    301 O2    s       0.000008      0.000011      0.000121      0.000000
    302 O2    s      -0.000027      0.000016      0.000068      0.000000
    303 O3    s      -0.000624      0.000648      0.000369      0.000000
    304 O2    s       0.000003      0.000002     -0.000048      0.000000
    305 O2    s       0.000060      0.000024      0.000143      0.000000
    306 O2    s      -0.000007      0.000012      0.000014      0.000000
    307 F     s      -0.000007     -0.000018      0.000088      0.000000
    308 F     s       0.000013      0.000003     -0.000018      0.000000
    309 F     s       0.000454     -0.000607      0.000013      0.000000
    310 F     s      -0.000019     -0.000021     -0.000095      0.000000
    311 F     s      -0.000122      0.000170      0.000450      0.000000
    312 F     s       0.000062     -0.000061     -0.000033      0.000000
--------------------------------------------------------------------------------
  Maximum abs         0.001104      0.000782      0.002997      0.000000
--------------------------------------------------------------------------------


  Time to end of optimisation =       7.0997 seconds


  Peak dynamic memory used =      19.13 MB 


  Timing analysis for GULP :

--------------------------------------------------------------------------------
  Task / Subroutine                                          Time (Seconds)
--------------------------------------------------------------------------------
  Calculation of reciprocal space energy and derivatives          0.2791
  Calculation of real space energy and derivatives                5.9362
  Calculation of three-body energy and derivatives                0.6571
  Calculation of matrix inversion                                 0.1919
--------------------------------------------------------------------------------
  Total CPU time                                                  7.0997
--------------------------------------------------------------------------------


  Dump file written as out.res                                                 
  CIF file written as out.cif                                                 


  Job Finished at 10:25.41 29th November   2016                               

