********************************************************************************
*                       GENERAL UTILITY LATTICE PROGRAM                        *
*                                 Julian Gale                                  *
*                      Nanochemistry Research Institute                        *
*                           Department of Chemistry                            *
*                    Curtin University, Western Australia                      *
********************************************************************************
* Version = 4.2.0 * Last modified =  20th January 2014                         *
********************************************************************************
*  optimise     - perform optimisation run                                     *
*  conp         - constant pressure calculation                                *
*  qok          - running with non charge neutral cell is OK                   *
********************************************************************************

  Job Started  at 02:29.31 29th November   2016                               

  Number of CPUs =     1


  Total number of configurations input =   1

********************************************************************************
*  Input for Configuration =   1                                               *
********************************************************************************

  Formula = Si57Ge3O120F6                                               

  Number of irreducible atoms/shells =     312


  Total number atoms/shells =     312

  Dimensionality = 3               :  Bulk   


  Charge on solid   =  -6.000000 =>neutralising background added


  Cartesian lattice vectors (Angstroms) :

       11.955344    0.000000    0.000000
       -5.841893   10.367480    0.000000
       -0.191535    0.244683   29.496327

  Cell parameters (Angstroms/Degrees):

  a =      11.9553    alpha =  89.4033
  b =      11.9001    beta  =  90.3720
  c =      29.4980    gamma = 119.4005

  Initial cell volume =        3655.975164 Angs**3

  Temperature of configuration =  0.000     K 

  Pressure of configuration =         0.000 GPa 

  Fractional coordinates of asymmetric unit :

--------------------------------------------------------------------------------
   No.  Atomic       x           y          z         Charge      Occupancy
        Label      (Frac)      (Frac)     (Frac)        (e)         (Frac)  
--------------------------------------------------------------------------------
      1 Si    c    0.699600    0.375700    0.033890     4.00000    1.000000    
      2 Si    c    0.619929 *  0.324329 *  0.368127 *   4.00000    1.000000    
      3 Si    c    0.676034 *  0.294491 *  0.697024 *   4.00000    1.000000    
      4 Si    c    0.298082 *  0.621048 *  0.533441 *   4.00000    1.000000    
      5 Si    c    0.383000 *  0.674587 *  0.866507 *   4.00000    1.000000    
      6 Si    c    0.332401 *  0.715012 *  0.200750 *   4.00000    1.000000    
      7 Si    c    0.381944 *  0.707061 *  0.300971 *   4.00000    1.000000    
      8 Si    c    0.322320 *  0.619692 *  0.968718 *   4.00000    1.000000    
      9 Si    c    0.297570 *  0.674121 *  0.633987 *   4.00000    1.000000    
     10 Si    c    0.622900 *  0.295176 *  0.797469 *   4.00000    1.000000    
     11 Si    c    0.674378 *  0.378642 *  0.468242 *   4.00000    1.000000    
     12 Si    c    0.698033 *  0.324167 *  0.137590 *   4.00000    1.000000    
     13 Ge    c    0.532598 *  0.427132 *  0.965949 *   4.00000    1.000000    
     14 Si    c    0.579935 *  0.114981 *  0.303173 *   4.00000    1.000000    
     15 Si    c    0.887402 *  0.469603 *  0.633614 *   4.00000    1.000000    
     16 Si    c    0.469574 *  0.583134 *  0.468445 *   4.00000    1.000000    
     17 Si    c    0.423217 *  0.885938 *  0.799835 *   4.00000    1.000000    
     18 Si    c    0.124823 *  0.536291 *  0.136446 *   4.00000    1.000000    
     19 Si    c    0.417418 *  0.532480 *  0.366889 *   4.00000    1.000000    
     20 Si    c    0.111029 *  0.581292 *  0.032876 *   4.00000    1.000000    
     21 Si    c    0.471807 *  0.882855 *  0.698432 *   4.00000    1.000000    
     22 Si    c    0.594684 *  0.465018 *  0.865679 *   4.00000    1.000000    
     23 Si    c    0.886661 *  0.417904 *  0.532259 *   4.00000    1.000000    
     24 Si    c    0.525721 *  0.120341 *  0.201840 *   4.00000    1.000000    
     25 Si    c    0.307720 *  0.393603 *  0.851940 *   4.00000    1.000000    
     26 Si    c    0.607870 *  0.917060 *  0.185275 *   4.00000    1.000000    
     27 Si    c    0.095534 *  0.698189 *  0.518596 *   4.00000    1.000000    
     28 Si    c    0.698083 *  0.603846 *  0.353354 *   4.00000    1.000000    
     29 Si    c    0.398997 *  0.093448 *  0.683589 *   4.00000    1.000000    
     30 Si    c    0.902546 *  0.295251 *  0.017568 *   4.00000    1.000000    
     31 Si    c    0.397523 *  0.301306 *  0.482918 *   4.00000    1.000000    
     32 Si    c    0.907538 *  0.604622 *  0.151142 *   4.00000    1.000000    
     33 Si    c    0.701353 *  0.093238 *  0.813532 *   4.00000    1.000000    
     34 Ge    c    0.608853 *  0.702990 *  0.986665 *   4.00000    1.000000    
     35 Si    c    0.096232 *  0.397001 *  0.648393 *   4.00000    1.000000    
     36 Si    c    0.301453 *  0.905927 *  0.317024 *   4.00000    1.000000    
     37 Si    c    0.252003 *  0.332353 *  0.954211 *   4.00000    1.000000    
     38 Si    c    0.660842 *  0.915556 *  0.286420 *   4.00000    1.000000    
     39 Si    c    0.088306 *  0.747262 *  0.619047 *   4.00000    1.000000    
     40 Si    c    0.748049 *  0.661132 *  0.453909 *   4.00000    1.000000    
     41 Si    c    0.343613 *  0.087152 *  0.784181 *   4.00000    1.000000    
     42 Ge    c    0.914162 *  0.273109 *  0.117539 *   4.00000    1.000000    
     43 Si    c    0.338939 *  0.252109 *  0.382355 *   4.00000    1.000000    
     44 Si    c    0.909667 *  0.662072 *  0.048830 *   4.00000    1.000000    
     45 Si    c    0.749335 *  0.084080 *  0.712943 *   4.00000    1.000000    
     46 Si    c    0.670510 *  0.746890 *  0.883122 *   4.00000    1.000000    
     47 Si    c    0.089244 *  0.340494 *  0.548065 *   4.00000    1.000000    
     48 Si    c    0.250365 *  0.916993 *  0.216686 *   4.00000    1.000000    
     49 Si    c    0.969003 *  0.119856 *  0.966192 *   4.00000    1.000000    
     50 Si    c    0.878413 *  0.851474 *  0.302320 *   4.00000    1.000000    
     51 Si    c    0.150490 *  0.027221 *  0.634047 *   4.00000    1.000000    
     52 Si    c    0.026596 *  0.879368 *  0.467950 *   4.00000    1.000000    
     53 Si    c    0.125096 *  0.148238 *  0.800678 *   4.00000    1.000000    
     54 Si    c    0.858734 *  0.989079 *  0.136227 *   4.00000    1.000000    
     55 Si    c    0.121049 *  0.973365 *  0.367253 *   4.00000    1.000000    
     56 Si    c    0.852614 *  0.889927 *  0.036616 *   4.00000    1.000000    
     57 Si    c    0.029774 *  0.148666 *  0.699644 *   4.00000    1.000000    
     58 Si    c    0.881686 *  0.025629 *  0.865307 *   4.00000    1.000000    
     59 Si    c    0.150035 *  0.121244 *  0.532963 *   4.00000    1.000000    
     60 Si    c    0.970772 *  0.852934 *  0.201364 *   4.00000    1.000000    
     61 O2    c    0.934041 *  0.003566 *  0.000900 *   0.87073    1.000000    
     62 O2    c    0.999974 *  0.932461 *  0.334555 *   0.87073    1.000000    
     63 O2    c    0.073737 *  0.069209 *  0.667968 *   0.87073    1.000000    
     64 O2    c    0.069021 *  0.000227 *  0.500760 *   0.87073    1.000000    
     65 O2    c    0.006310 *  0.069429 *  0.834174 *   0.87073    1.000000    
     66 O2    c    0.925747 *  0.932134 *  0.169989 *   0.87073    1.000000    
     67 O2    c    0.342496 *  0.582654 *  0.333753 *   0.87073    1.000000    
     68 O2    c    0.421004 *  0.756959 *  0.666559 *   0.87073    1.000000    
     69 O2    c    0.231194 *  0.655717 *  0.998454 *   0.87073    1.000000    
     70 O2    c    0.664583 *  0.421404 *  0.828274 *   0.87073    1.000000    
     71 O2    c    0.571662 *  0.247685 *  0.169932 *   0.87073    1.000000    
     72 O2    c    0.761165 *  0.340211 *  0.500582 *   0.87073    1.000000    
     73 O3    c    0.582120 *  0.338291 *  0.001622 *   1.33043    1.000000    
     74 O2    c    0.760226 *  0.418871 *  0.664985 *   0.87073    1.000000    
     75 O2    c    0.657561 *  0.239004 *  0.335712 *   0.87073    1.000000    
     76 O2    c    0.420402 *  0.659677 *  0.500856 *   0.87073    1.000000    
     77 O2    c    0.254376 *  0.596538 *  0.166386 *   0.87073    1.000000    
     78 O2    c    0.348018 *  0.760823 *  0.833051 *   0.87073    1.000000    
     79 O2    c    0.121101 *  0.211022 *  0.971613 *   0.87073    1.000000    
     80 O2    c    0.787300 *  0.915411 *  0.306769 *   0.87073    1.000000    
     81 O2    c    0.087405 *  0.872937 *  0.639448 *   0.87073    1.000000    
     82 O2    c    0.873233 *  0.787868 *  0.473663 *   0.87073    1.000000    
     83 O2    c    0.216565 *  0.084342 *  0.804720 *   0.87073    1.000000    
     84 O3    c    0.921928 *  0.137519 *  0.141449 *   1.33043    1.000000    
     85 O2    c    0.212758 *  0.127657 *  0.362197 *   0.87073    1.000000    
     86 O2    c    0.900823 *  0.784167 *  0.028987 *   0.87073    1.000000    
     87 O2    c    0.876020 *  0.084113 *  0.693511 *   0.87073    1.000000    
     88 O2    c    0.789729 *  0.872140 *  0.859070 *   0.87073    1.000000    
     89 O2    c    0.088291 *  0.214431 *  0.527409 *   0.87073    1.000000    
     90 O2    c    0.124336 *  0.916728 *  0.196111 *   0.87073    1.000000    
     91 O2    c    0.930720 *  0.860401 *  0.252239 *   0.87073    1.000000    
     92 O2    c    0.135207 *  0.068307 *  0.583813 *   0.87073    1.000000    
     93 O2    c    0.930334 *  0.061675 *  0.916266 *   0.87073    1.000000    
     94 O2    c    0.069151 *  0.137890 *  0.750767 *   0.87073    1.000000    
     95 O2    c    0.877873 *  0.943139 *  0.086892 *   0.87073    1.000000    
     96 O2    c    0.066004 *  0.933792 *  0.417582 *   0.87073    1.000000    
     97 O2    c    0.900677 *  0.205342 *  0.975541 *   0.87073    1.000000    
     98 O2    c    0.796719 *  0.700242 *  0.315322 *   0.87073    1.000000    
     99 O2    c    0.302053 *  0.095107 *  0.645233 *   0.87073    1.000000    
    100 O2    c    0.097049 *  0.796872 *  0.479959 *   0.87073    1.000000    
    101 O2    c    0.210355 *  0.299258 *  0.813502 *   0.87073    1.000000    
    102 O2    c    0.704343 *  0.920484 *  0.146413 *   0.87073    1.000000    
    103 O2    c    0.203342 *  0.903090 *  0.355700 *   0.87073    1.000000    
    104 O3    c    0.703855 *  0.822763 *  0.025174 *   1.33043    1.000000    
    105 O2    c    0.097827 *  0.300011 *  0.687284 *   0.87073    1.000000    
    106 O2    c    0.801243 *  0.097293 *  0.851864 *   0.87073    1.000000    
    107 O2    c    0.301068 *  0.201761 *  0.521129 *   0.87073    1.000000    
    108 O2    c    0.905523 *  0.701751 *  0.188535 *   0.87073    1.000000    
    109 O2    c    0.327002 *  0.651190 *  0.250602 *   0.87073    1.000000    
    110 O2    c    0.354707 *  0.675596 *  0.583843 *   0.87073    1.000000    
    111 O2    c    0.326425 *  0.669685 *  0.916636 *   0.87073    1.000000    
    112 O2    c    0.677941 *  0.351029 *  0.747155 *   0.87073    1.000000    
    113 O2    c    0.651193 *  0.328164 *  0.085871 *   0.87073    1.000000    
    114 O2    c    0.676004 *  0.321545 *  0.418439 *   0.87073    1.000000    
    115 O3    c    0.366046 *  0.314870 *  0.973427 *   1.33043    1.000000    
    116 O2    c    0.667622 *  0.045513 *  0.305950 *   0.87073    1.000000    
    117 O2    c    0.956145 *  0.625737 *  0.637460 *   0.87073    1.000000    
    118 O2    c    0.624997 *  0.670505 *  0.471980 *   0.87073    1.000000    
    119 O2    c    0.335723 *  0.955227 *  0.803481 *   0.87073    1.000000    
    120 O3    c    0.064056 *  0.384907 *  0.142118 *   1.33043    1.000000    
    121 O2    c    0.329800 *  0.376447 *  0.364367 *   0.87073    1.000000    
    122 O2    c    0.041452 *  0.669077 *  0.031424 *   0.87073    1.000000    
    123 O2    c    0.627564 *  0.950909 *  0.695547 *   0.87073    1.000000    
    124 O2    c    0.678594 *  0.622869 *  0.865255 *   0.87073    1.000000    
    125 O2    c    0.956942 *  0.330967 *  0.529832 *   0.87073    1.000000    
    126 O2    c    0.370202 *  0.051594 *  0.199295 *   0.87073    1.000000    
    127 O2    c    0.769901 *  0.299319 *  0.013821 *   0.87073    1.000000    
    128 O2    c    0.696412 *  0.468363 *  0.346143 *   0.87073    1.000000    
    129 O2    c    0.532208 *  0.226676 *  0.675613 *   0.87073    1.000000    
    130 O2    c    0.229142 *  0.697271 *  0.511475 *   0.87073    1.000000    
    131 O2    c    0.311467 *  0.530578 *  0.845795 *   0.87073    1.000000    
    132 O2    c    0.475002 *  0.782612 *  0.178756 *   0.87073    1.000000    
    133 O2    c    0.305215 *  0.772842 *  0.324322 *   0.87073    1.000000    
    134 O3    c    0.461534 *  0.699140 *  0.990377 *   1.33043    1.000000    
    135 O2    c    0.229200 *  0.530352 *  0.656475 *   0.87073    1.000000    
    136 O2    c    0.696929 *  0.225500 *  0.820760 *   0.87073    1.000000    
    137 O2    c    0.532283 *  0.302326 *  0.491072 *   0.87073    1.000000    
    138 O2    c    0.775744 *  0.470324 *  0.157778 *   0.87073    1.000000    
    139 O2    c    0.793028 *  0.530705 *  0.030474 *   0.87073    1.000000    
    140 O2    c    0.464568 *  0.251822 *  0.363058 *   0.87073    1.000000    
    141 O2    c    0.747613 *  0.209274 *  0.692429 *   0.87073    1.000000    
    142 O2    c    0.215407 *  0.465397 *  0.528891 *   0.87073    1.000000    
    143 O2    c    0.536409 *  0.736519 *  0.866775 *   0.87073    1.000000    
    144 O2    c    0.253098 *  0.793197 *  0.196201 *   0.87073    1.000000    
    145 O2    c    0.537528 *  0.786996 *  0.305484 *   0.87073    1.000000    
    146 O2    c    0.259969 *  0.464711 *  0.972432 *   0.87073    1.000000    
    147 O2    c    0.215452 *  0.748944 *  0.638795 *   0.87073    1.000000    
    148 O2    c    0.467235 *  0.215355 *  0.802895 *   0.87073    1.000000    
    149 O2    c    0.749265 *  0.534816 *  0.473721 *   0.87073    1.000000    
    150 O3    c    0.770800 *  0.243266 *  0.144962 *   1.33043    1.000000    
    151 O2    c    0.242912 *  0.325690 *  0.899231 *   0.87073    1.000000    
    152 O2    c    0.680432 *  0.919684 *  0.232246 *   0.87073    1.000000    
    153 O2    c    0.090051 *  0.767876 *  0.564799 *   0.87073    1.000000    
    154 O2    c    0.767021 *  0.677942 *  0.399694 *   0.87073    1.000000    
    155 O2    c    0.324722 *  0.088723 *  0.729972 *   0.87073    1.000000    
    156 O3    c    0.910399 *  0.218885 *  0.060966 *   1.33043    1.000000    
    157 O2    c    0.322943 *  0.231903 *  0.436691 *   0.87073    1.000000    
    158 O2    c    0.909775 *  0.671599 *  0.103058 *   0.87073    1.000000    
    159 O2    c    0.770257 *  0.088397 *  0.767171 *   0.87073    1.000000    
    160 O3    c    0.691681 *  0.772403 *  0.935878 *   1.33043    1.000000    
    161 O2    c    0.091971 *  0.321910 *  0.602407 *   0.87073    1.000000    
    162 O2    c    0.229620 *  0.911276 *  0.270983 *   0.87073    1.000000    
    163 O1    c    0.605932 *  0.564769 *  0.001446 *   1.73396    1.000000    
    164 O2    c    0.439286 *  0.031456 *  0.326196 *   0.87073    1.000000    
    165 O2    c    0.970193 *  0.410265 *  0.657368 *   0.87073    1.000000    
    166 O2    c    0.411086 *  0.441108 *  0.491731 *   0.87073    1.000000    
    167 O2    c    0.564276 *  0.965767 *  0.822905 *   0.87073    1.000000    
    168 O2    c    0.032242 *  0.588102 *  0.157671 *   0.87073    1.000000    
    169 O2    c    0.558566 *  0.589258 *  0.344468 *   0.87073    1.000000    
    170 O2    c    0.025234 *  0.439641 *  0.011297 *   0.87073    1.000000    
    171 O2    c    0.414617 *  0.968218 *  0.675314 *   0.87073    1.000000    
    172 O2    c    0.449629 *  0.414213 *  0.846058 *   0.87073    1.000000    
    173 O2    c    0.971262 *  0.559595 *  0.509467 *   0.87073    1.000000    
    174 O2    c    0.582969 *  0.037309 *  0.178114 *   0.87073    1.000000    
    175 O2    c    0.578989 *  0.170439 *  0.252718 *   0.87073    1.000000    
    176 O2    c    0.834557 *  0.418470 *  0.582973 *   0.87073    1.000000    
    177 O3    c    0.599649 *  0.408005 *  0.913982 *   1.33043    1.000000    
    178 O2    c    0.420258 *  0.830124 *  0.749534 *   0.87073    1.000000    
    179 O2    c    0.165550 *  0.582398 *  0.083404 *   0.87073    1.000000    
    180 O2    c    0.417071 *  0.585035 *  0.417634 *   0.87073    1.000000    
    181 F     c    0.449436 *  0.907193 *  0.252593 *   0.56000    1.000000    
    182 F     c    0.095258 *  0.547474 *  0.584502 *   0.56000    1.000000    
    183 F     c    0.483117 *  0.532418 *  0.929872 *   0.56000    1.000000    
    184 F     c    0.547654 *  0.090545 *  0.749651 *   0.56000    1.000000    
    185 F     c    0.910852 *  0.418619 *  0.090392 *   0.56000    1.000000    
    186 F     c    0.548043 *  0.452158 *  0.419138 *   0.56000    1.000000    
    187 O2    s    0.929072 *  0.004232 *  0.000887 *  -2.87073    1.000000    
    188 O2    s    0.000045 *  0.928068 *  0.334638 *  -2.87073    1.000000    
    189 O2    s    0.077367 *  0.073482 *  0.667752 *  -2.87073    1.000000    
    190 O2    s    0.073373 *  0.000336 *  0.500721 *  -2.87073    1.000000    
    191 O2    s    0.005890 *  0.073422 *  0.833852 *  -2.87073    1.000000    
    192 O2    s    0.923835 *  0.928877 *  0.170062 *  -2.87073    1.000000    
    193 O2    s    0.354381 *  0.590115 *  0.333863 *  -2.87073    1.000000    
    194 O2    s    0.413737 *  0.761590 *  0.666545 *  -2.87073    1.000000    
    195 O2    s    0.228288 *  0.644284 *  0.998881 *  -2.87073    1.000000    
    196 O2    s    0.653080 *  0.412731 *  0.828890 *  -2.87073    1.000000    
    197 O2    s    0.579472 *  0.242428 *  0.169955 *  -2.87073    1.000000    
    198 O2    s    0.765414 *  0.352262 *  0.500585 *  -2.87073    1.000000    
    199 O3    s    0.591449 *  0.348466 *  0.002672 *  -3.33043    1.000000    
    200 O2    s    0.764445 *  0.411067 *  0.665128 *  -2.87073    1.000000    
    201 O2    s    0.645663 *  0.235138 *  0.335751 *  -2.87073    1.000000    
    202 O2    s    0.412705 *  0.647841 *  0.500944 *  -2.87073    1.000000    
    203 O2    s    0.248805 *  0.602626 *  0.166810 *  -2.87073    1.000000    
    204 O2    s    0.359365 *  0.764249 *  0.833278 *  -2.87073    1.000000    
    205 O2    s    0.118727 *  0.214352 *  0.969113 *  -2.87073    1.000000    
    206 O2    s    0.784005 *  0.908589 *  0.304220 *  -2.87073    1.000000    
    207 O2    s    0.094242 *  0.876417 *  0.636786 *  -2.87073    1.000000    
    208 O2    s    0.876566 *  0.784534 *  0.471069 *  -2.87073    1.000000    
    209 O2    s    0.219902 *  0.091472 *  0.802194 *  -2.87073    1.000000    
    210 O3    s    0.914170 *  0.129446 *  0.139297 *  -3.33043    1.000000    
    211 O2    s    0.216126 *  0.124257 *  0.364787 *  -2.87073    1.000000    
    212 O2    s    0.897011 *  0.781426 *  0.031828 *  -2.87073    1.000000    
    213 O2    s    0.879109 *  0.090903 *  0.696148 *  -2.87073    1.000000    
    214 O2    s    0.787452 *  0.875738 *  0.862099 *  -2.87073    1.000000    
    215 O2    s    0.095011 *  0.217633 *  0.530138 *  -2.87073    1.000000    
    216 O2    s    0.121170 *  0.909955 *  0.198799 *  -2.87073    1.000000    
    217 O2    s    0.929241 *  0.858523 *  0.252239 *  -2.87073    1.000000    
    218 O2    s    0.138608 *  0.069554 *  0.583833 *  -2.87073    1.000000    
    219 O2    s    0.929119 *  0.064055 *  0.916021 *  -2.87073    1.000000    
    220 O2    s    0.071109 *  0.140249 *  0.750734 *  -2.87073    1.000000    
    221 O2    s    0.872929 *  0.941771 *  0.086250 *  -2.87073    1.000000    
    222 O2    s    0.067688 *  0.932042 *  0.417669 *  -2.87073    1.000000    
    223 O2    s    0.908077 *  0.205105 *  0.978616 *  -2.87073    1.000000    
    224 O2    s    0.795165 *  0.706297 *  0.317891 *  -2.87073    1.000000    
    225 O2    s    0.296029 *  0.087741 *  0.648023 *  -2.87073    1.000000    
    226 O2    s    0.089378 *  0.795465 *  0.482672 *  -2.87073    1.000000    
    227 O2    s    0.211577 *  0.293306 *  0.816148 *  -2.87073    1.000000    
    228 O2    s    0.709302 *  0.926775 *  0.149453 *  -2.87073    1.000000    
    229 O2    s    0.204468 *  0.910849 *  0.353043 *  -2.87073    1.000000    
    230 O3    s    0.711788 *  0.820537 *  0.023417 *  -3.33043    1.000000    
    231 O2    s    0.090345 *  0.293629 *  0.684644 *  -2.87073    1.000000    
    232 O2    s    0.799521 *  0.089257 *  0.849345 *  -2.87073    1.000000    
    233 O2    s    0.294782 *  0.203264 *  0.518523 *  -2.87073    1.000000    
    234 O2    s    0.912577 *  0.707265 *  0.185921 *  -2.87073    1.000000    
    235 O2    s    0.333159 *  0.663355 *  0.250722 *  -2.87073    1.000000    
    236 O2    s    0.343102 *  0.669903 *  0.583873 *  -2.87073    1.000000    
    237 O2    s    0.331913 *  0.665202 *  0.916572 *  -2.87073    1.000000    
    238 O2    s    0.671999 *  0.339320 *  0.747200 *  -2.87073    1.000000    
    239 O2    s    0.660813 *  0.332499 *  0.085966 *  -2.87073    1.000000    
    240 O2    s    0.670091 *  0.327696 *  0.418422 *  -2.87073    1.000000    
    241 O3    s    0.365435 *  0.324533 *  0.970844 *  -3.33043    1.000000    
    242 O2    s    0.657815 *  0.039041 *  0.303602 *  -2.87073    1.000000    
    243 O2    s    0.962839 *  0.622314 *  0.635140 *  -2.87073    1.000000    
    244 O2    s    0.621889 *  0.660561 *  0.469725 *  -2.87073    1.000000    
    245 O2    s    0.345667 *  0.961787 *  0.801078 *  -2.87073    1.000000    
    246 O3    s    0.059827 *  0.392841 *  0.139773 *  -3.33043    1.000000    
    247 O2    s    0.339788 *  0.379448 *  0.366535 *  -2.87073    1.000000    
    248 O2    s    0.035002 *  0.659382 *  0.033369 *  -2.87073    1.000000    
    249 O2    s    0.624294 *  0.957775 *  0.697660 *  -2.87073    1.000000    
    250 O2    s    0.669484 *  0.620297 *  0.867192 *  -2.87073    1.000000    
    251 O2    s    0.963667 *  0.341002 *  0.532029 *  -2.87073    1.000000    
    252 O2    s    0.373662 *  0.044524 *  0.201409 *  -2.87073    1.000000    
    253 O2    s    0.777022 *  0.306626 *  0.016312 *  -2.87073    1.000000    
    254 O2    s    0.688699 *  0.467805 *  0.349210 *  -2.87073    1.000000    
    255 O2    s    0.533033 *  0.219655 *  0.678691 *  -2.87073    1.000000    
    256 O2    s    0.222133 *  0.689472 *  0.514544 *  -2.87073    1.000000    
    257 O2    s    0.318556 *  0.531230 *  0.848616 *  -2.87073    1.000000    
    258 O2    s    0.474134 *  0.789694 *  0.181759 *  -2.87073    1.000000    
    259 O2    s    0.312658 *  0.780253 *  0.321130 *  -2.87073    1.000000    
    260 O3    s    0.458681 *  0.691266 *  0.987846 *  -3.33043    1.000000    
    261 O2    s    0.222288 *  0.531152 *  0.653291 *  -2.87073    1.000000    
    262 O2    s    0.689744 *  0.218575 *  0.817560 *  -2.87073    1.000000    
    263 O2    s    0.532684 *  0.310020 *  0.487853 *  -2.87073    1.000000    
    264 O2    s    0.782125 *  0.470120 *  0.155029 *  -2.87073    1.000000    
    265 O2    s    0.796675 *  0.529485 *  0.032873 *  -2.87073    1.000000    
    266 O2    s    0.467043 *  0.259496 *  0.365660 *  -2.87073    1.000000    
    267 O2    s    0.740206 *  0.204478 *  0.695105 *  -2.87073    1.000000    
    268 O2    s    0.210266 *  0.468168 *  0.531437 *  -2.87073    1.000000    
    269 O2    s    0.533806 *  0.730755 *  0.868469 *  -2.87073    1.000000    
    270 O2    s    0.261116 *  0.798579 *  0.198873 *  -2.87073    1.000000    
    271 O2    s    0.534637 *  0.792620 *  0.302986 *  -2.87073    1.000000    
    272 O2    s    0.265903 *  0.467548 *  0.970196 *  -2.87073    1.000000    
    273 O2    s    0.210265 *  0.740856 *  0.636200 *  -2.87073    1.000000    
    274 O2    s    0.469915 *  0.209691 *  0.800360 *  -2.87073    1.000000    
    275 O2    s    0.741334 *  0.532379 *  0.471057 *  -2.87073    1.000000    
    276 O3    s    0.774060 *  0.253807 *  0.142226 *  -3.33043    1.000000    
    277 O2    s    0.250933 *  0.333787 *  0.899690 *  -2.87073    1.000000    
    278 O2    s    0.670839 *  0.918997 *  0.233151 *  -2.87073    1.000000    
    279 O2    s    0.090427 *  0.758424 *  0.565761 *  -2.87073    1.000000    
    280 O2    s    0.757777 *  0.668393 *  0.400638 *  -2.87073    1.000000    
    281 O2    s    0.334466 *  0.089044 *  0.730915 *  -2.87073    1.000000    
    282 O3    s    0.909848 *  0.230328 *  0.060406 *  -3.33043    1.000000    
    283 O2    s    0.332443 *  0.241308 *  0.435806 *  -2.87073    1.000000    
    284 O2    s    0.909549 *  0.663484 *  0.102229 *  -2.87073    1.000000    
    285 O2    s    0.760751 *  0.088434 *  0.766299 *  -2.87073    1.000000    
    286 O3    s    0.683341 *  0.764539 *  0.934115 *  -3.33043    1.000000    
    287 O2    s    0.092136 *  0.331735 *  0.601525 *  -2.87073    1.000000    
    288 O2    s    0.239326 *  0.911332 *  0.270083 *  -2.87073    1.000000    
    289 O1    s    0.601274 *  0.567485 *  0.997936 *  -3.73396    1.000000    
    290 O2    s    0.439148 *  0.026530 *  0.322812 *  -2.87073    1.000000    
    291 O2    s    0.975250 *  0.415185 *  0.653939 *  -2.87073    1.000000    
    292 O2    s    0.415870 *  0.440848 *  0.488364 *  -2.87073    1.000000    
    293 O2    s    0.564084 *  0.971031 *  0.819513 *  -2.87073    1.000000    
    294 O2    s    0.027634 *  0.584608 *  0.154847 *  -2.87073    1.000000    
    295 O2    s    0.558925 *  0.584711 *  0.347802 *  -2.87073    1.000000    
    296 O2    s    0.021766 *  0.439959 *  0.014231 *  -2.87073    1.000000    
    297 O2    s    0.419125 *  0.972962 *  0.678648 *  -2.87073    1.000000    
    298 O2    s    0.448336 *  0.417120 *  0.848690 *  -2.87073    1.000000    
    299 O2    s    0.975982 *  0.559697 *  0.512851 *  -2.87073    1.000000    
    300 O2    s    0.579375 *  0.032825 *  0.181406 *  -2.87073    1.000000    
    301 O2    s    0.573578 *  0.159483 *  0.252721 *  -2.87073    1.000000    
    302 O2    s    0.845555 *  0.423813 *  0.583033 *  -2.87073    1.000000    
    303 O3    s    0.594674 *  0.415284 *  0.912408 *  -3.33043    1.000000    
    304 O2    s    0.425852 *  0.841331 *  0.749552 *  -2.87073    1.000000    
    305 O2    s    0.155888 *  0.577802 *  0.083206 *  -2.87073    1.000000    
    306 O2    s    0.422569 *  0.579440 *  0.417705 *  -2.87073    1.000000    
    307 F     s    0.448811 *  0.906402 *  0.252699 *  -1.56000    1.000000    
    308 F     s    0.095564 *  0.547648 *  0.584621 *  -1.56000    1.000000    
    309 F     s    0.487049 *  0.527805 *  0.932315 *  -1.56000    1.000000    
    310 F     s    0.547598 *  0.090665 *  0.749792 *  -1.56000    1.000000    
    311 F     s    0.911136 *  0.409817 *  0.091977 *  -1.56000    1.000000    
    312 F     s    0.548357 *  0.451851 *  0.419264 *  -1.56000    1.000000    
--------------------------------------------------------------------------------



********************************************************************************
*  General input information                                                   *
********************************************************************************

  Species output for all configurations : 

--------------------------------------------------------------------------------
  Species    Type    Atomic    Atomic    Charge       Radii (Angs)     Library
                     Number     Mass       (e)     Cova   Ionic  VDW   Symbol
--------------------------------------------------------------------------------
    Si       Core       14      28.09   4.000000   1.200  0.000  2.100          
    O1       Core        8      16.00   1.733957   0.730  0.000  1.360          
    O1       Shell       8       0.00  -3.733957   0.730  0.000  1.360          
    O2       Core        8      16.00   0.870733   0.730  0.000  1.360          
    O2       Shell       8       0.00  -2.870733   0.730  0.000  1.360          
    O3       Core        8      16.00   1.330431   0.730  0.000  1.360          
    O3       Shell       8       0.00  -3.330431   0.730  0.000  1.360          
    F        Core        9      19.00   0.560000   0.710  0.000  1.300          
    F        Shell       9       0.00  -1.560000   0.710  0.000  1.300          
    Ge       Core       32      72.61   4.000000   1.170  0.000  1.750          
--------------------------------------------------------------------------------


  Lattice summation method               =    Ewald          (3-D)
                                         =    Parry          (2-D)
                                         =    Saunders et al (1-D)
  Accuracy factor for lattice sums       =   12.000


  Time limit = Infinity

  Maximum range for interatomic potentials =        16.000000 Angstroms

  Taper potentials to zero over   1.0000 Angstroms using polynomial

  General interatomic potentials :

--------------------------------------------------------------------------------
Atom  Types   Potential         A         B         C         D     Cutoffs(Ang)
  1     2                                                            Min    Max 
--------------------------------------------------------------------------------
Si   c O1   s Buckingham    0.132E+04 0.318      10.1      0.00     0.000 16.000
Si   c O2   s Buckingham    0.132E+04 0.318      10.1      0.00     0.000 16.000
Si   c O3   s Buckingham    0.132E+04 0.318      10.1      0.00     0.000 16.000
Ge   c O1   s Buckingham    0.150E+04 0.326      16.8      0.00     0.000 16.000
Ge   c O2   s Buckingham    0.150E+04 0.326      16.8      0.00     0.000 16.000
Ge   c O3   s Buckingham    0.150E+04 0.326      16.8      0.00     0.000 16.000
O1   s O1   s Buckingham    0.228E+05 0.149      10.9      0.00     0.000 16.000
O1   s O2   s Buckingham    0.228E+05 0.149      10.9      0.00     0.000 16.000
O1   s O3   s Buckingham    0.228E+05 0.149      10.9      0.00     0.000 16.000
O2   s O2   s Buckingham    0.228E+05 0.149      10.9      0.00     0.000 16.000
O2   s O3   s Buckingham    0.228E+05 0.149      10.9      0.00     0.000 16.000
O3   s O3   s Buckingham    0.228E+05 0.149      10.9      0.00     0.000 16.000
Si   c F    s Buckingham     977.     0.282      0.00      0.00     0.000 16.000
Ge   c F    s Buckingham     681.     0.320      0.00      0.00     0.000 16.000
F    s F    s Buckingham     540.     0.262      0.00      0.00     0.000 16.000
O1   s F    s Buckingham    0.168E+04 0.268      0.00      0.00     0.000 16.000
O2   s F    s Buckingham    0.168E+04 0.268      0.00      0.00     0.000 16.000
O3   s F    s Buckingham    0.168E+04 0.268      0.00      0.00     0.000 16.000
O2   c O2   s Spring (c-s)   76.0      0.00      0.00      0.00     0.000  0.800
O3   c O3   s Spring (c-s)   128.      0.00      0.00      0.00     0.000  0.800
O1   c O1   s Spring (c-s)   180.      0.00      0.00      0.00     0.000  0.800
F    c F    s Spring (c-s)   33.5      0.00      0.00      0.00     0.000  0.800
--------------------------------------------------------------------------------

  General Three-body potentials :

  Harmonic form:

--------------------------------------------------------------------------------
Atom    Atom    Atom           Force Constants            Theta     Cutoffs  
  1       2       3     (eVrad**-2/eVrad**-3/eVrad**-4)   (deg)  1-2  1-3  2-3
--------------------------------------------------------------------------------
Si    c O1    s O1    s  1.261        0.0000    0.0000   109.470 0.00 0.00 0.00
                                                                 1.90 1.90 3.50
Si    c O1    s O2    s  1.261        0.0000    0.0000   109.470 0.00 0.00 0.00
                                                                 1.90 1.90 3.50
Si    c O2    s O2    s  1.261        0.0000    0.0000   109.470 0.00 0.00 0.00
                                                                 1.90 1.90 3.50
--------------------------------------------------------------------------------

********************************************************************************
*  Output for configuration   1                                                *
********************************************************************************


  Components of energy : 

--------------------------------------------------------------------------------
  Interatomic potentials     =        2063.89171946 eV
  Three-body potentials      =           0.47972441 eV
  Monopole - monopole (real) =       -6612.55278600 eV
  Monopole - monopole (recip)=       -3171.91928055 eV
  Monopole - monopole (total)=       -9784.47206655 eV
  Neutralising energy        =          -6.46052085 eV
--------------------------------------------------------------------------------
  Total lattice energy       =       -7726.56114354 eV
--------------------------------------------------------------------------------
  Total lattice energy       =         -745495.0390 kJ/(mole unit cells)
--------------------------------------------------------------------------------


  Number of variables =      939

  Maximum number of calculations  =          1000
  Maximum Hessian update interval =            10
  Maximum step size               =   1.000000000
  Maximum parameter tolerance     =   0.000010000
  Maximum function  tolerance     =   0.000010000
  Maximum gradient  tolerance     =   0.001000000
  Maximum gradient  component     =   0.010000000

  Symmetry not applied to optimisation

  Cell parameters to be optimised using strains

  Newton-Raphson optimiser to be used

  BFGS hessian update to be used

  Dumpfile to be written after every cycle

  Start of bulk optimisation :

  Cycle:      0 Energy:     -7726.561144  Gnorm:      0.004015  CPU:    1.065
  ** Hessian calculated **
  Cycle:      1 Energy:     -7726.600217  Gnorm:      0.004246  CPU:    2.974
  Cycle:      2 Energy:     -7726.600691  Gnorm:      0.000267  CPU:    4.357
  Cycle:      3 Energy:     -7726.600719  Gnorm:      0.000106  CPU:    5.741


  **** Optimisation achieved ****


  Final energy =   -7726.60071892 eV
  Final Gnorm  =       0.00000862

  Components of energy : 

--------------------------------------------------------------------------------
  Interatomic potentials     =        2064.16764173 eV
  Three-body potentials      =           0.47222234 eV
  Monopole - monopole (real) =       -6612.31937880 eV
  Monopole - monopole (recip)=       -3172.45958394 eV
  Monopole - monopole (total)=       -9784.77896273 eV
  Neutralising energy        =          -6.46162026 eV
--------------------------------------------------------------------------------
  Total lattice energy       =       -7726.60071892 eV
--------------------------------------------------------------------------------
  Total lattice energy       =         -745498.8575 kJ/(mole unit cells)
--------------------------------------------------------------------------------

  Final fractional coordinates of atoms :

--------------------------------------------------------------------------------
   No.  Atomic        x           y          z          Radius
        Label       (Frac)      (Frac)     (Frac)       (Angs) 
--------------------------------------------------------------------------------
     1  Si    c     0.699600    0.375700    0.033890    0.000000
     2  Si    c     0.631365    0.331662    0.368009    0.000000
     3  Si    c     0.688178    0.299593    0.697053    0.000000
     4  Si    c     0.306469    0.625412    0.531736    0.000000
     5  Si    c     0.393429    0.676379    0.864577    0.000000
     6  Si    c     0.345140    0.726815    0.198253    0.000000
     7  Si    c     0.393527    0.714601    0.298635    0.000000
     8  Si    c     0.328252    0.624584    0.966601    0.000000
     9  Si    c     0.309164    0.678821    0.632380    0.000000
    10  Si    c     0.633152    0.296439    0.797560    0.000000
    11  Si    c     0.684054    0.386176    0.468220    0.000000
    12  Si    c     0.710282    0.333001    0.137812    0.000000
    13  Ge    c     0.536180    0.430415    0.966049    0.000000
    14  Si    c     0.591821    0.122173    0.303496    0.000000
    15  Si    c     0.899361    0.475609    0.633903    0.000000
    16  Si    c     0.478459    0.589819    0.466282    0.000000
    17  Si    c     0.434415    0.887419    0.797681    0.000000
    18  Si    c     0.137307    0.547768    0.133418    0.000000
    19  Si    c     0.428201    0.539205    0.364639    0.000000
    20  Si    c     0.114798    0.585644    0.029688    0.000000
    21  Si    c     0.484672    0.887701    0.696336    0.000000
    22  Si    c     0.603591    0.464964    0.866375    0.000000
    23  Si    c     0.895505    0.423378    0.532485    0.000000
    24  Si    c     0.538531    0.131606    0.202491    0.000000
    25  Si    c     0.316931    0.394307    0.851468    0.000000
    26  Si    c     0.621410    0.929822    0.184304    0.000000
    27  Si    c     0.103836    0.703274    0.517877    0.000000
    28  Si    c     0.709368    0.610638    0.352208    0.000000
    29  Si    c     0.411729    0.098559    0.682362    0.000000
    30  Si    c     0.905403    0.298760    0.016001    0.000000
    31  Si    c     0.406461    0.308470    0.481738    0.000000
    32  Si    c     0.919545    0.614851    0.149066    0.000000
    33  Si    c     0.712042    0.094200    0.812180    0.000000
    34  Ge    c     0.614144    0.707213    0.986478    0.000000
    35  Si    c     0.108168    0.402326    0.647944    0.000000
    36  Si    c     0.313254    0.913178    0.316227    0.000000
    37  Si    c     0.256619    0.336193    0.953608    0.000000
    38  Si    c     0.672966    0.923680    0.285347    0.000000
    39  Si    c     0.100031    0.752753    0.618485    0.000000
    40  Si    c     0.757221    0.668193    0.452830    0.000000
    41  Si    c     0.354232    0.088612    0.782940    0.000000
    42  Ge    c     0.926420    0.283394    0.115921    0.000000
    43  Si    c     0.349833    0.259044    0.381050    0.000000
    44  Si    c     0.911685    0.663797    0.046580    0.000000
    45  Si    c     0.761636    0.088709    0.711609    0.000000
    46  Si    c     0.679950    0.747769    0.882926    0.000000
    47  Si    c     0.097954    0.345423    0.547488    0.000000
    48  Si    c     0.263096    0.928470    0.216013    0.000000
    49  Si    c     0.973641    0.123750    0.965407    0.000000
    50  Si    c     0.889808    0.858135    0.301215    0.000000
    51  Si    c     0.163392    0.033193    0.633034    0.000000
    52  Si    c     0.035948    0.885366    0.466900    0.000000
    53  Si    c     0.135066    0.148779    0.799896    0.000000
    54  Si    c     0.871735    0.999801    0.134832    0.000000
    55  Si    c     0.132258    0.979660    0.366310    0.000000
    56  Si    c     0.857701    0.894160    0.035739    0.000000
    57  Si    c     0.042146    0.153838    0.698820    0.000000
    58  Si    c     0.891800    0.026135    0.864517    0.000000
    59  Si    c     0.159653    0.126992    0.532107    0.000000
    60  Si    c     0.983292    0.863391    0.200093    0.000000
    61  O2    c     0.939371    0.007929    0.000202    0.000000
    62  O2    c     0.011488    0.939037    0.333439    0.000000
    63  O2    c     0.087581    0.075826    0.667090    0.000000
    64  O2    c     0.079114    0.006230    0.499759    0.000000
    65  O2    c     0.016813    0.069054    0.833581    0.000000
    66  O2    c     0.938217    0.943690    0.169289    0.000000
    67  O2    c     0.354079    0.589036    0.330848    0.000000
    68  O2    c     0.434244    0.762367    0.664196    0.000000
    69  O2    c     0.234061    0.659913    0.994814    0.000000
    70  O2    c     0.674031    0.420767    0.829371    0.000000
    71  O2    c     0.586158    0.260139    0.171193    0.000000
    72  O2    c     0.769153    0.346751    0.501062    0.000000
    73  O3    c     0.580834    0.338614    0.002663    0.000000
    74  O2    c     0.773087    0.425366    0.665720    0.000000
    75  O2    c     0.669628    0.245251    0.336433    0.000000
    76  O2    c     0.427683    0.665281    0.498528    0.000000
    77  O2    c     0.268456    0.610950    0.162701    0.000000
    78  O2    c     0.358940    0.761299    0.830320    0.000000
    79  O2    c     0.125090    0.217117    0.971436    0.000000
    80  O2    c     0.798651    0.922040    0.305765    0.000000
    81  O2    c     0.100398    0.879064    0.638888    0.000000
    82  O2    c     0.882363    0.795315    0.472474    0.000000
    83  O2    c     0.226443    0.084586    0.803317    0.000000
    84  O3    c     0.937804    0.148717    0.139023    0.000000
    85  O2    c     0.223987    0.133899    0.361029    0.000000
    86  O2    c     0.901032    0.785112    0.026799    0.000000
    87  O2    c     0.888635    0.089759    0.691984    0.000000
    88  O2    c     0.800595    0.872219    0.859091    0.000000
    89  O2    c     0.096071    0.218683    0.526993    0.000000
    90  O2    c     0.137194    0.928712    0.195487    0.000000
    91  O2    c     0.941372    0.866913    0.251045    0.000000
    92  O2    c     0.146830    0.073354    0.582790    0.000000
    93  O2    c     0.939190    0.064890    0.915465    0.000000
    94  O2    c     0.078778    0.140321    0.750099    0.000000
    95  O2    c     0.886698    0.947427    0.086062    0.000000
    96  O2    c     0.076796    0.939981    0.416603    0.000000
    97  O2    c     0.902417    0.207034    0.974219    0.000000
    98  O2    c     0.808539    0.706914    0.314292    0.000000
    99  O2    c     0.315261    0.101181    0.643927    0.000000
   100  O2    c     0.104746    0.801437    0.479182    0.000000
   101  O2    c     0.220558    0.299488    0.812926    0.000000
   102  O2    c     0.717900    0.934709    0.145276    0.000000
   103  O2    c     0.214499    0.909064    0.354929    0.000000
   104  O3    c     0.708471    0.828540    0.024682    0.000000
   105  O2    c     0.110577    0.305567    0.686831    0.000000
   106  O2    c     0.811442    0.097242    0.850442    0.000000
   107  O2    c     0.310282    0.209156    0.519964    0.000000
   108  O2    c     0.919221    0.713208    0.186248    0.000000
   109  O2    c     0.339210    0.661455    0.247890    0.000000
   110  O2    c     0.364542    0.679535    0.582034    0.000000
   111  O2    c     0.334883    0.672944    0.914192    0.000000
   112  O2    c     0.688889    0.354154    0.747478    0.000000
   113  O2    c     0.657994    0.331606    0.086455    0.000000
   114  O2    c     0.686657    0.329380    0.418491    0.000000
   115  O3    c     0.369697    0.317891    0.973302    0.000000
   116  O2    c     0.679631    0.052684    0.305831    0.000000
   117  O2    c     0.968425    0.631832    0.637527    0.000000
   118  O2    c     0.633782    0.677804    0.470350    0.000000
   119  O2    c     0.346584    0.956326    0.801658    0.000000
   120  O3    c     0.077522    0.396660    0.139675    0.000000
   121  O2    c     0.340735    0.383024    0.362466    0.000000
   122  O2    c     0.043022    0.671379    0.028178    0.000000
   123  O2    c     0.640468    0.955950    0.693605    0.000000
   124  O2    c     0.687308    0.622878    0.865542    0.000000
   125  O2    c     0.965094    0.335766    0.529709    0.000000
   126  O2    c     0.383113    0.063945    0.199420    0.000000
   127  O2    c     0.771475    0.300883    0.013332    0.000000
   128  O2    c     0.708101    0.475110    0.345588    0.000000
   129  O2    c     0.544823    0.232382    0.675191    0.000000
   130  O2    c     0.236871    0.701632    0.510318    0.000000
   131  O2    c     0.322960    0.531993    0.844195    0.000000
   132  O2    c     0.488578    0.795726    0.177064    0.000000
   133  O2    c     0.316634    0.779552    0.322490    0.000000
   134  O3    c     0.466937    0.704441    0.988741    0.000000
   135  O2    c     0.241600    0.535682    0.655359    0.000000
   136  O2    c     0.707191    0.225988    0.820242    0.000000
   137  O2    c     0.541329    0.310137    0.490444    0.000000
   138  O2    c     0.788916    0.480362    0.156833    0.000000
   139  O2    c     0.793598    0.531319    0.029681    0.000000
   140  O2    c     0.476077    0.258983    0.362309    0.000000
   141  O2    c     0.760028    0.214725    0.691881    0.000000
   142  O2    c     0.223358    0.469661    0.527556    0.000000
   143  O2    c     0.546851    0.738410    0.865733    0.000000
   144  O2    c     0.266684    0.805927    0.194688    0.000000
   145  O2    c     0.549008    0.794128    0.303395    0.000000
   146  O2    c     0.266236    0.469878    0.971108    0.000000
   147  O2    c     0.227657    0.754231    0.637671    0.000000
   148  O2    c     0.477411    0.216094    0.802336    0.000000
   149  O2    c     0.758364    0.542423    0.473329    0.000000
   150  O3    c     0.785073    0.253927    0.144876    0.000000
   151  O2    c     0.249048    0.328194    0.898589    0.000000
   152  O2    c     0.693703    0.930785    0.231182    0.000000
   153  O2    c     0.099792    0.773010    0.564261    0.000000
   154  O2    c     0.777389    0.684786    0.398661    0.000000
   155  O2    c     0.336581    0.092056    0.728716    0.000000
   156  O3    c     0.917285    0.225325    0.059535    0.000000
   157  O2    c     0.332886    0.239095    0.435370    0.000000
   158  O2    c     0.917326    0.678062    0.100728    0.000000
   159  O2    c     0.781905    0.090985    0.765847    0.000000
   160  O3    c     0.698860    0.773469    0.935728    0.000000
   161  O2    c     0.102540    0.327167    0.601800    0.000000
   162  O2    c     0.241955    0.920675    0.270300    0.000000
   163  O1    c     0.608098    0.567891    0.001798    0.000000
   164  O2    c     0.450979    0.037956    0.326336    0.000000
   165  O2    c     0.982679    0.416314    0.657351    0.000000
   166  O2    c     0.419439    0.448236    0.489942    0.000000
   167  O2    c     0.575139    0.966257    0.821118    0.000000
   168  O2    c     0.045705    0.600350    0.154907    0.000000
   169  O2    c     0.569908    0.595820    0.342736    0.000000
   170  O2    c     0.027922    0.443092    0.008814    0.000000
   171  O2    c     0.427992    0.973919    0.673490    0.000000
   172  O2    c     0.458239    0.412466    0.846626    0.000000
   173  O2    c     0.979215    0.564592    0.509322    0.000000
   174  O2    c     0.596424    0.050191    0.177924    0.000000
   175  O2    c     0.591429    0.180293    0.253475    0.000000
   176  O2    c     0.844795    0.424155    0.583399    0.000000
   177  O3    c     0.607280    0.409946    0.915171    0.000000
   178  O2    c     0.432360    0.833255    0.747191    0.000000
   179  O2    c     0.173503    0.590331    0.079865    0.000000
   180  O2    c     0.426891    0.592087    0.415293    0.000000
   181  F     c     0.462848    0.918915    0.251807    0.000000
   182  F     c     0.105044    0.552220    0.583926    0.000000
   183  F     c     0.489097    0.534028    0.929059    0.000000
   184  F     c     0.559546    0.093247    0.748486    0.000000
   185  F     c     0.920137    0.426468    0.088719    0.000000
   186  F     c     0.558128    0.459929    0.417935    0.000000
   187  O2    s     0.934257    0.008499    0.000167    0.000000
   188  O2    s     0.011496    0.934602    0.333543    0.000000
   189  O2    s     0.090946    0.079892    0.666866    0.000000
   190  O2    s     0.083348    0.006310    0.499728    0.000000
   191  O2    s     0.016289    0.073217    0.833218    0.000000
   192  O2    s     0.936400    0.940199    0.169231    0.000000
   193  O2    s     0.365819    0.596612    0.331078    0.000000
   194  O2    s     0.426766    0.766886    0.664290    0.000000
   195  O2    s     0.231657    0.648647    0.995425    0.000000
   196  O2    s     0.662551    0.412364    0.829845    0.000000
   197  O2    s     0.593638    0.254383    0.171038    0.000000
   198  O2    s     0.773654    0.358806    0.500980    0.000000
   199  O3    s     0.591014    0.348920    0.003662    0.000000
   200  O2    s     0.777135    0.417383    0.665745    0.000000
   201  O2    s     0.657630    0.241598    0.336346    0.000000
   202  O2    s     0.420241    0.653398    0.498702    0.000000
   203  O2    s     0.262615    0.616427    0.163327    0.000000
   204  O2    s     0.370301    0.764995    0.830689    0.000000
   205  O2    s     0.122896    0.220021    0.968803    0.000000
   206  O2    s     0.795417    0.915362    0.303194    0.000000
   207  O2    s     0.107100    0.882454    0.636173    0.000000
   208  O2    s     0.885741    0.791808    0.469906    0.000000
   209  O2    s     0.229865    0.091871    0.800874    0.000000
   210  O3    s     0.929475    0.140460    0.137054    0.000000
   211  O2    s     0.227334    0.130594    0.363631    0.000000
   212  O2    s     0.897878    0.782811    0.029742    0.000000
   213  O2    s     0.891668    0.096405    0.694716    0.000000
   214  O2    s     0.798123    0.875972    0.862009    0.000000
   215  O2    s     0.103090    0.222098    0.529659    0.000000
   216  O2    s     0.133987    0.921720    0.198103    0.000000
   217  O2    s     0.940186    0.865507    0.251055    0.000000
   218  O2    s     0.150155    0.074794    0.582831    0.000000
   219  O2    s     0.937639    0.067042    0.915221    0.000000
   220  O2    s     0.081083    0.142777    0.750030    0.000000
   221  O2    s     0.881784    0.946723    0.085333    0.000000
   222  O2    s     0.078361    0.938227    0.416688    0.000000
   223  O2    s     0.910159    0.207144    0.977278    0.000000
   224  O2    s     0.806882    0.712962    0.316839    0.000000
   225  O2    s     0.309175    0.093732    0.646745    0.000000
   226  O2    s     0.097298    0.800221    0.481882    0.000000
   227  O2    s     0.221642    0.293577    0.815573    0.000000
   228  O2    s     0.722806    0.940522    0.148329    0.000000
   229  O2    s     0.215684    0.916953    0.352260    0.000000
   230  O3    s     0.716366    0.826002    0.022912    0.000000
   231  O2    s     0.103016    0.299164    0.684169    0.000000
   232  O2    s     0.809738    0.089309    0.847971    0.000000
   233  O2    s     0.303999    0.210481    0.517378    0.000000
   234  O2    s     0.926020    0.718543    0.183749    0.000000
   235  O2    s     0.345303    0.673407    0.248075    0.000000
   236  O2    s     0.352931    0.673943    0.582100    0.000000
   237  O2    s     0.340329    0.668452    0.914232    0.000000
   238  O2    s     0.683010    0.342492    0.747469    0.000000
   239  O2    s     0.667496    0.336179    0.086357    0.000000
   240  O2    s     0.680713    0.335487    0.418452    0.000000
   241  O3    s     0.369154    0.327677    0.970664    0.000000
   242  O2    s     0.669822    0.046295    0.303429    0.000000
   243  O2    s     0.975015    0.628328    0.635167    0.000000
   244  O2    s     0.630745    0.667787    0.468098    0.000000
   245  O2    s     0.356535    0.962995    0.799278    0.000000
   246  O3    s     0.073194    0.404517    0.137342    0.000000
   247  O2    s     0.350670    0.386083    0.364651    0.000000
   248  O2    s     0.036923    0.661817    0.030219    0.000000
   249  O2    s     0.637128    0.962764    0.695768    0.000000
   250  O2    s     0.678304    0.620423    0.867467    0.000000
   251  O2    s     0.971928    0.345875    0.531890    0.000000
   252  O2    s     0.386526    0.056651    0.201505    0.000000
   253  O2    s     0.778601    0.308118    0.015718    0.000000
   254  O2    s     0.700328    0.474638    0.348632    0.000000
   255  O2    s     0.545604    0.225235    0.678232    0.000000
   256  O2    s     0.229950    0.693889    0.513385    0.000000
   257  O2    s     0.329706    0.532606    0.847106    0.000000
   258  O2    s     0.487525    0.802563    0.180069    0.000000
   259  O2    s     0.324123    0.787084    0.319360    0.000000
   260  O3    s     0.464099    0.696475    0.986285    0.000000
   261  O2    s     0.234537    0.536386    0.652195    0.000000
   262  O2    s     0.700026    0.219229    0.817009    0.000000
   263  O2    s     0.541812    0.317770    0.487222    0.000000
   264  O2    s     0.795095    0.480049    0.154067    0.000000
   265  O2    s     0.797607    0.530602    0.031980    0.000000
   266  O2    s     0.478430    0.266634    0.364913    0.000000
   267  O2    s     0.752583    0.209809    0.694533    0.000000
   268  O2    s     0.218358    0.472530    0.530144    0.000000
   269  O2    s     0.544120    0.732526    0.867419    0.000000
   270  O2    s     0.274556    0.811006    0.197356    0.000000
   271  O2    s     0.546150    0.799871    0.300978    0.000000
   272  O2    s     0.271981    0.472565    0.968857    0.000000
   273  O2    s     0.222340    0.746116    0.635088    0.000000
   274  O2    s     0.480188    0.210585    0.799788    0.000000
   275  O2    s     0.750488    0.539870    0.470631    0.000000
   276  O3    s     0.787928    0.264238    0.142077    0.000000
   277  O2    s     0.257225    0.336218    0.899067    0.000000
   278  O2    s     0.684004    0.929939    0.232102    0.000000
   279  O2    s     0.100234    0.763574    0.565176    0.000000
   280  O2    s     0.768103    0.675241    0.399584    0.000000
   281  O2    s     0.346275    0.092361    0.729668    0.000000
   282  O3    s     0.916672    0.236719    0.058919    0.000000
   283  O2    s     0.342403    0.248491    0.434511    0.000000
   284  O2    s     0.916969    0.669776    0.099989    0.000000
   285  O2    s     0.772359    0.091076    0.764969    0.000000
   286  O3    s     0.690635    0.765839    0.933938    0.000000
   287  O2    s     0.102652    0.336965    0.600944    0.000000
   288  O2    s     0.251629    0.920718    0.269377    0.000000
   289  O1    s     0.603809    0.570750    0.998229    0.000000
   290  O2    s     0.450848    0.033159    0.322879    0.000000
   291  O2    s     0.987628    0.421150    0.653906    0.000000
   292  O2    s     0.424331    0.447873    0.486604    0.000000
   293  O2    s     0.574971    0.971692    0.817733    0.000000
   294  O2    s     0.040893    0.596540    0.152129    0.000000
   295  O2    s     0.570175    0.591306    0.346079    0.000000
   296  O2    s     0.024648    0.443579    0.011757    0.000000
   297  O2    s     0.432373    0.978522    0.676860    0.000000
   298  O2    s     0.457019    0.415807    0.849153    0.000000
   299  O2    s     0.984083    0.564772    0.512683    0.000000
   300  O2    s     0.592781    0.045460    0.181216    0.000000
   301  O2    s     0.585951    0.169153    0.253395    0.000000
   302  O2    s     0.855823    0.429493    0.583405    0.000000
   303  O3    s     0.602242    0.417109    0.913425    0.000000
   304  O2    s     0.437942    0.844505    0.747263    0.000000
   305  O2    s     0.163895    0.585702    0.079798    0.000000
   306  O2    s     0.432377    0.586437    0.415391    0.000000
   307  F     s     0.462332    0.918355    0.251929    0.000000
   308  F     s     0.105310    0.552360    0.584051    0.000000
   309  F     s     0.492953    0.529034    0.931639    0.000000
   310  F     s     0.559513    0.093319    0.748627    0.000000
   311  F     s     0.920651    0.417572    0.090365    0.000000
   312  F     s     0.558428    0.459701    0.418053    0.000000
--------------------------------------------------------------------------------

  Final Cartesian lattice vectors (Angstroms) :

       11.950714    0.002139   -0.003573
       -5.837776   10.366266   -0.002559
       -0.200232    0.232397   29.493140


  Final cell parameters and derivatives :

--------------------------------------------------------------------------------
       a           11.950715 Angstrom     dE/de1(xx)     0.001018 eV/strain
       b           11.897021 Angstrom     dE/de2(yy)     0.000928 eV/strain
       c           29.494735 Angstrom     dE/de3(zz)     0.001796 eV/strain
       alpha       89.428090 Degrees      dE/de4(yz)     0.000418 eV/strain
       beta        90.406019 Degrees      dE/de5(xz)    -0.000029 eV/strain
       gamma      119.375832 Degrees      dE/de6(xy)     0.000142 eV/strain
--------------------------------------------------------------------------------

  Primitive cell volume =          3654.109358 Angs**3

  Density of cell =      1.750931 g/cm**3

  Non-primitive cell volume =          3654.109358 Angs**3


  Final internal derivatives :

--------------------------------------------------------------------------------
   No.  Atomic          a             b             c           Radius
        Label          (eV)          (eV)          (eV)        (eV/Angs)
--------------------------------------------------------------------------------
      1 Si    c       0.000000      0.000000      0.000000      0.000000
      2 Si    c       0.000019      0.000021      0.000327      0.000000
      3 Si    c      -0.000038     -0.000006      0.000064      0.000000
      4 Si    c       0.000103     -0.000071      0.000085      0.000000
      5 Si    c      -0.000014      0.000064      0.000198      0.000000
      6 Si    c      -0.000009     -0.000033      0.000716      0.000000
      7 Si    c      -0.000004      0.000030     -0.000425      0.000000
      8 Si    c       0.000349     -0.000436     -0.000265      0.000000
      9 Si    c       0.000001     -0.000055     -0.000198      0.000000
     10 Si    c      -0.000010     -0.000026      0.000023      0.000000
     11 Si    c       0.000067     -0.000008     -0.000011      0.000000
     12 Si    c       0.000107      0.000175      0.000463      0.000000
     13 Ge    c      -0.000585      0.001006      0.000661      0.000000
     14 Si    c       0.000041      0.000039      0.000147      0.000000
     15 Si    c      -0.000055      0.000026      0.000075      0.000000
     16 Si    c       0.000024     -0.000007      0.000090      0.000000
     17 Si    c       0.000038      0.000029      0.000042      0.000000
     18 Si    c      -0.000196     -0.000111      0.000275      0.000000
     19 Si    c      -0.000040      0.000018     -0.000084      0.000000
     20 Si    c      -0.000301      0.000008      0.000172      0.000000
     21 Si    c       0.000036     -0.000050     -0.000041      0.000000
     22 Si    c       0.000243     -0.000056     -0.001361      0.000000
     23 Si    c      -0.000012      0.000005     -0.000177      0.000000
     24 Si    c       0.000102     -0.000111      0.000102      0.000000
     25 Si    c      -0.000074     -0.000049     -0.000178      0.000000
     26 Si    c       0.000177      0.000006     -0.000106      0.000000
     27 Si    c      -0.000054      0.000050     -0.000047      0.000000
     28 Si    c       0.000021      0.000034     -0.000071      0.000000
     29 Si    c      -0.000091      0.000063     -0.000146      0.000000
     30 Si    c      -0.000229      0.000059     -0.001060      0.000000
     31 Si    c      -0.000102      0.000018      0.000115      0.000000
     32 Si    c       0.000313      0.000122      0.000309      0.000000
     33 Si    c       0.000045     -0.000048      0.000171      0.000000
     34 Ge    c       0.000454     -0.000276     -0.000009      0.000000
     35 Si    c       0.000051     -0.000030     -0.000033      0.000000
     36 Si    c      -0.000183      0.000088      0.000218      0.000000
     37 Si    c       0.000078      0.000248      0.000145      0.000000
     38 Si    c       0.000171     -0.000104     -0.000010      0.000000
     39 Si    c      -0.000042      0.000027     -0.000054      0.000000
     40 Si    c       0.000008      0.000038      0.000081      0.000000
     41 Si    c      -0.000030      0.000031     -0.000001      0.000000
     42 Ge    c       0.000397      0.000235      0.000117      0.000000
     43 Si    c      -0.000064     -0.000016     -0.000031      0.000000
     44 Si    c      -0.000117      0.000014     -0.000335      0.000000
     45 Si    c       0.000035     -0.000041     -0.000015      0.000000
     46 Si    c       0.000167     -0.000086     -0.000502      0.000000
     47 Si    c       0.000037     -0.000018     -0.000005      0.000000
     48 Si    c      -0.000185      0.000087     -0.000004      0.000000
     49 Si    c      -0.000129      0.000172      0.000835      0.000000
     50 Si    c      -0.000048     -0.000014      0.000169      0.000000
     51 Si    c      -0.000024     -0.000007      0.000095      0.000000
     52 Si    c      -0.000011     -0.000052      0.000367      0.000000
     53 Si    c      -0.000047      0.000087      0.000210      0.000000
     54 Si    c      -0.000091     -0.000214      0.000818      0.000000
     55 Si    c      -0.000002     -0.000020     -0.000137      0.000000
     56 Si    c      -0.000014     -0.000018     -0.000468      0.000000
     57 Si    c       0.000084     -0.000056     -0.000101      0.000000
     58 Si    c      -0.000040     -0.000002     -0.000798      0.000000
     59 Si    c       0.000042     -0.000007     -0.000119      0.000000
     60 Si    c      -0.000001     -0.000027     -0.000647      0.000000
     61 O2    c      -0.000030      0.000015      0.000070      0.000000
     62 O2    c       0.000027     -0.000009      0.000051      0.000000
     63 O2    c      -0.000026      0.000082      0.000092      0.000000
     64 O2    c       0.000040     -0.000019     -0.000019      0.000000
     65 O2    c       0.000014     -0.000041      0.000075      0.000000
     66 O2    c      -0.000090      0.000073     -0.000262      0.000000
     67 O2    c       0.000017     -0.000136      0.000199      0.000000
     68 O2    c       0.000077      0.000026      0.000169      0.000000
     69 O2    c      -0.000668      0.000492      0.000909      0.000000
     70 O2    c      -0.000041      0.000063      0.000115      0.000000
     71 O2    c       0.000150      0.000272     -0.000683      0.000000
     72 O2    c      -0.000028      0.000015     -0.000045      0.000000
     73 O3    c      -0.000895      0.000879     -0.002094      0.000000
     74 O2    c       0.000076      0.000097     -0.000298      0.000000
     75 O2    c       0.000103     -0.000164     -0.000369      0.000000
     76 O2    c      -0.000052      0.000031      0.000034      0.000000
     77 O2    c       0.000173     -0.000296     -0.000401      0.000000
     78 O2    c      -0.000038     -0.000063      0.000139      0.000000
     79 O2    c       0.000057     -0.000168      0.000125      0.000000
     80 O2    c      -0.000032      0.000012     -0.000015      0.000000
     81 O2    c      -0.000016      0.000049      0.000016      0.000000
     82 O2    c       0.000039      0.000026     -0.000037      0.000000
     83 O2    c       0.000075     -0.000063      0.000053      0.000000
     84 O3    c      -0.000102      0.000455      0.000294      0.000000
     85 O2    c       0.000002     -0.000005      0.000016      0.000000
     86 O2    c      -0.000048     -0.000041     -0.000112      0.000000
     87 O2    c      -0.000024     -0.000002     -0.000051      0.000000
     88 O2    c      -0.000014     -0.000116     -0.000089      0.000000
     89 O2    c       0.000021     -0.000029      0.000007      0.000000
     90 O2    c       0.000059     -0.000022      0.000013      0.000000
     91 O2    c      -0.000080      0.000072      0.000538      0.000000
     92 O2    c       0.000011      0.000003     -0.000084      0.000000
     93 O2    c      -0.000050      0.000110      0.000058      0.000000
     94 O2    c      -0.000104     -0.000001     -0.000335      0.000000
     95 O2    c       0.000057     -0.000138     -0.000442      0.000000
     96 O2    c       0.000004      0.000052     -0.000381      0.000000
     97 O2    c      -0.000174      0.000103     -0.000070      0.000000
     98 O2    c       0.000019      0.000034     -0.000062      0.000000
     99 O2    c       0.000037     -0.000005      0.000057      0.000000
    100 O2    c      -0.000025      0.000034      0.000002      0.000000
    101 O2    c       0.000037      0.000039      0.000070      0.000000
    102 O2    c       0.000177     -0.000037     -0.000179      0.000000
    103 O2    c       0.000028     -0.000034     -0.000078      0.000000
    104 O3    c       0.000182     -0.000109      0.000339      0.000000
    105 O2    c       0.000008      0.000033     -0.000009      0.000000
    106 O2    c       0.000029      0.000002      0.000081      0.000000
    107 O2    c      -0.000043      0.000027     -0.000049      0.000000
    108 O2    c      -0.000038     -0.000045     -0.000003      0.000000
    109 O2    c      -0.000018      0.000023     -0.000091      0.000000
    110 O2    c       0.000010     -0.000004     -0.000058      0.000000
    111 O2    c      -0.000005      0.000044     -0.000804      0.000000
    112 O2    c       0.000004      0.000031     -0.000063      0.000000
    113 O2    c       0.000149     -0.000198      0.002575      0.000000
    114 O2    c       0.000013     -0.000007     -0.000009      0.000000
    115 O3    c       0.000026      0.000023      0.000202      0.000000
    116 O2    c      -0.000060      0.000122      0.000163      0.000000
    117 O2    c       0.000007      0.000016      0.000008      0.000000
    118 O2    c      -0.000052      0.000021      0.000040      0.000000
    119 O2    c      -0.000007     -0.000021      0.000036      0.000000
    120 O3    c       0.000059      0.000155     -0.000130      0.000000
    121 O2    c      -0.000013      0.000019     -0.000011      0.000000
    122 O2    c       0.000216     -0.000164      0.000019      0.000000
    123 O2    c      -0.000003     -0.000012     -0.000015      0.000000
    124 O2    c       0.000024     -0.000152     -0.000107      0.000000
    125 O2    c      -0.000041      0.000018     -0.000050      0.000000
    126 O2    c       0.000018      0.000032     -0.000028      0.000000
    127 O2    c      -0.000472      0.000266      0.000188      0.000000
    128 O2    c       0.000039     -0.000028     -0.000071      0.000000
    129 O2    c       0.000029      0.000043     -0.000016      0.000000
    130 O2    c       0.000015      0.000026     -0.000057      0.000000
    131 O2    c      -0.000121      0.000024      0.000098      0.000000
    132 O2    c       0.000106     -0.000113     -0.000233      0.000000
    133 O2    c       0.000010     -0.000108      0.000162      0.000000
    134 O3    c      -0.000496      0.000212      0.000172      0.000000
    135 O2    c       0.000017      0.000009     -0.000026      0.000000
    136 O2    c      -0.000007      0.000049      0.000064      0.000000
    137 O2    c       0.000063     -0.000052      0.000052      0.000000
    138 O2    c      -0.000060     -0.000024      0.000346      0.000000
    139 O2    c      -0.000169     -0.000210     -0.000014      0.000000
    140 O2    c       0.000004     -0.000057     -0.000144      0.000000
    141 O2    c       0.000010      0.000025     -0.000119      0.000000
    142 O2    c       0.000014     -0.000016     -0.000015      0.000000
    143 O2    c      -0.000360      0.000125     -0.000435      0.000000
    144 O2    c      -0.000100     -0.000040     -0.000245      0.000000
    145 O2    c      -0.000067     -0.000090      0.000183      0.000000
    146 O2    c      -0.000016      0.000130     -0.000073      0.000000
    147 O2    c       0.000019      0.000023      0.000095      0.000000
    148 O2    c       0.000003      0.000024      0.000031      0.000000
    149 O2    c       0.000030     -0.000060      0.000033      0.000000
    150 O3    c      -0.000472      0.000089      0.001120      0.000000
    151 O2    c       0.000350     -0.000275     -0.000512      0.000000
    152 O2    c       0.000054     -0.000033     -0.000128      0.000000
    153 O2    c       0.000008      0.000008     -0.000083      0.000000
    154 O2    c       0.000003      0.000022     -0.000023      0.000000
    155 O2    c      -0.000042      0.000025      0.000067      0.000000
    156 O3    c       0.000164     -0.000400     -0.000537      0.000000
    157 O2    c      -0.000014     -0.000015      0.000048      0.000000
    158 O2    c      -0.000078      0.000026      0.000511      0.000000
    159 O2    c       0.000031     -0.000015      0.000009      0.000000
    160 O3    c      -0.000239      0.000164      0.001868      0.000000
    161 O2    c      -0.000006      0.000002      0.000025      0.000000
    162 O2    c      -0.000077      0.000026      0.000001      0.000000
    163 O1    c       0.000076     -0.000270     -0.000947      0.000000
    164 O2    c       0.000072      0.000069      0.000133      0.000000
    165 O2    c      -0.000023      0.000005      0.000041      0.000000
    166 O2    c       0.000006      0.000037     -0.000027      0.000000
    167 O2    c      -0.000047     -0.000002      0.000042      0.000000
    168 O2    c      -0.000019      0.000015     -0.000027      0.000000
    169 O2    c      -0.000036      0.000030     -0.000078      0.000000
    170 O2    c       0.000028      0.000015     -0.000108      0.000000
    171 O2    c       0.000020     -0.000066     -0.000066      0.000000
    172 O2    c      -0.000074      0.000128     -0.000319      0.000000
    173 O2    c       0.000002     -0.000043      0.000026      0.000000
    174 O2    c      -0.000057      0.000085      0.000089      0.000000
    175 O2    c       0.000029      0.000058      0.000228      0.000000
    176 O2    c      -0.000025      0.000004      0.000019      0.000000
    177 O3    c       0.001025     -0.000699     -0.000767      0.000000
    178 O2    c       0.000002     -0.000040     -0.000063      0.000000
    179 O2    c       0.000113     -0.000008     -0.000358      0.000000
    180 O2    c      -0.000032      0.000027      0.000013      0.000000
    181 F     c       0.000006     -0.000091     -0.000012      0.000000
    182 F     c       0.000013      0.000004     -0.000011      0.000000
    183 F     c       0.000032     -0.000009      0.001730      0.000000
    184 F     c      -0.000005      0.000005     -0.000008      0.000000
    185 F     c       0.000060     -0.000031     -0.000106      0.000000
    186 F     c       0.000011     -0.000025     -0.000075      0.000000
    187 O2    s       0.000062     -0.000157     -0.000039      0.000000
    188 O2    s      -0.000018      0.000011      0.000004      0.000000
    189 O2    s       0.000039     -0.000017     -0.000017      0.000000
    190 O2    s       0.000009      0.000016      0.000003      0.000000
    191 O2    s       0.000059     -0.000074     -0.000047      0.000000
    192 O2    s       0.000046      0.000016      0.000189      0.000000
    193 O2    s      -0.000008     -0.000040      0.000099      0.000000
    194 O2    s      -0.000006     -0.000017      0.000035      0.000000
    195 O2    s       0.000155     -0.000032     -0.000191      0.000000
    196 O2    s      -0.000076      0.000123      0.000175      0.000000
    197 O2    s      -0.000174     -0.000041      0.000101      0.000000
    198 O2    s       0.000055     -0.000063      0.000070      0.000000
    199 O3    s       0.000344     -0.000679      0.000781      0.000000
    200 O2    s      -0.000036      0.000018     -0.000022      0.000000
    201 O2    s       0.000015      0.000021     -0.000107      0.000000
    202 O2    s       0.000058     -0.000015     -0.000086      0.000000
    203 O2    s       0.000064     -0.000015     -0.000002      0.000000
    204 O2    s       0.000006      0.000045      0.000015      0.000000
    205 O2    s       0.000012     -0.000014      0.000524      0.000000
    206 O2    s       0.000065      0.000014      0.000127      0.000000
    207 O2    s      -0.000009     -0.000025      0.000067      0.000000
    208 O2    s      -0.000029      0.000001      0.000136      0.000000
    209 O2    s       0.000016     -0.000062      0.000089      0.000000
    210 O3    s       0.000220     -0.000256      0.000361      0.000000
    211 O2    s      -0.000020      0.000023     -0.000102      0.000000
    212 O2    s      -0.000019      0.000154     -0.000257      0.000000
    213 O2    s       0.000006     -0.000016     -0.000075      0.000000
    214 O2    s       0.000189     -0.000099     -0.000336      0.000000
    215 O2    s      -0.000007     -0.000019     -0.000087      0.000000
    216 O2    s       0.000036      0.000090     -0.000198      0.000000
    217 O2    s       0.000011     -0.000012     -0.000016      0.000000
    218 O2    s      -0.000003      0.000017      0.000016      0.000000
    219 O2    s       0.000054     -0.000141      0.000093      0.000000
    220 O2    s       0.000028     -0.000023     -0.000058      0.000000
    221 O2    s       0.000054      0.000029      0.000042      0.000000
    222 O2    s      -0.000011      0.000003      0.000103      0.000000
    223 O2    s      -0.000087      0.000011     -0.000246      0.000000
    224 O2    s       0.000023     -0.000046     -0.000048      0.000000
    225 O2    s      -0.000027      0.000013     -0.000033      0.000000
    226 O2    s       0.000018     -0.000026     -0.000041      0.000000
    227 O2    s      -0.000062      0.000089      0.000054      0.000000
    228 O2    s      -0.000147     -0.000028      0.000040      0.000000
    229 O2    s      -0.000028      0.000011      0.000201      0.000000
    230 O3    s      -0.000142      0.000134     -0.000547      0.000000
    231 O2    s       0.000003      0.000006     -0.000030      0.000000
    232 O2    s      -0.000108      0.000124     -0.000266      0.000000
    233 O2    s      -0.000022      0.000001      0.000138      0.000000
    234 O2    s      -0.000009      0.000007      0.000220      0.000000
    235 O2    s      -0.000009     -0.000222      0.000077      0.000000
    236 O2    s       0.000033      0.000000      0.000024      0.000000
    237 O2    s       0.000054      0.000071     -0.000218      0.000000
    238 O2    s       0.000002      0.000025      0.000015      0.000000
    239 O2    s      -0.000137     -0.000100     -0.000391      0.000000
    240 O2    s       0.000069     -0.000076      0.000038      0.000000
    241 O3    s       0.000467     -0.000511     -0.000075      0.000000
    242 O2    s      -0.000023      0.000080     -0.000001      0.000000
    243 O2    s      -0.000020     -0.000016      0.000004      0.000000
    244 O2    s       0.000016      0.000042      0.000113      0.000000
    245 O2    s      -0.000039      0.000023      0.000035      0.000000
    246 O3    s       0.000207     -0.000364      0.000807      0.000000
    247 O2    s      -0.000003     -0.000000     -0.000007      0.000000
    248 O2    s       0.000122      0.000083     -0.000714      0.000000
    249 O2    s      -0.000008     -0.000011     -0.000011      0.000000
    250 O2    s       0.000118     -0.000252      0.000153      0.000000
    251 O2    s      -0.000002     -0.000016     -0.000032      0.000000
    252 O2    s      -0.000078     -0.000006     -0.000111      0.000000
    253 O2    s       0.000437     -0.000243      0.000229      0.000000
    254 O2    s      -0.000020      0.000026     -0.000123      0.000000
    255 O2    s      -0.000029     -0.000010     -0.000145      0.000000
    256 O2    s      -0.000014     -0.000013     -0.000027      0.000000
    257 O2    s      -0.000054      0.000025      0.000141      0.000000
    258 O2    s      -0.000034      0.000088     -0.000077      0.000000
    259 O2    s      -0.000055      0.000040      0.000293      0.000000
    260 O3    s       0.000560     -0.000235      0.000388      0.000000
    261 O2    s      -0.000009     -0.000008      0.000185      0.000000
    262 O2    s      -0.000009      0.000019      0.000007      0.000000
    263 O2    s       0.000001     -0.000015      0.000130      0.000000
    264 O2    s      -0.000126     -0.000186      0.000123      0.000000
    265 O2    s      -0.000001      0.000393     -0.000401      0.000000
    266 O2    s      -0.000060      0.000078      0.000068      0.000000
    267 O2    s       0.000009     -0.000034      0.000057      0.000000
    268 O2    s      -0.000022     -0.000009     -0.000028      0.000000
    269 O2    s      -0.000075      0.000069      0.000042      0.000000
    270 O2    s       0.000066      0.000108      0.000140      0.000000
    271 O2    s       0.000098     -0.000039      0.000205      0.000000
    272 O2    s      -0.000250      0.000095      0.000135      0.000000
    273 O2    s      -0.000038     -0.000001      0.000004      0.000000
    274 O2    s      -0.000023      0.000030      0.000072      0.000000
    275 O2    s       0.000008      0.000041      0.000049      0.000000
    276 O3    s       0.000010     -0.000016     -0.000911      0.000000
    277 O2    s       0.000030     -0.000082     -0.000399      0.000000
    278 O2    s      -0.000022      0.000051     -0.000016      0.000000
    279 O2    s      -0.000029      0.000007      0.000092      0.000000
    280 O2    s       0.000012      0.000004     -0.000015      0.000000
    281 O2    s      -0.000013     -0.000001     -0.000054      0.000000
    282 O3    s       0.000012      0.000193      0.000611      0.000000
    283 O2    s      -0.000002      0.000010     -0.000060      0.000000
    284 O2    s      -0.000128      0.000203      0.000090      0.000000
    285 O2    s       0.000002     -0.000009     -0.000055      0.000000
    286 O3    s       0.000008     -0.000005     -0.000185      0.000000
    287 O2    s       0.000000     -0.000013      0.000043      0.000000
    288 O2    s       0.000030      0.000010     -0.000037      0.000000
    289 O1    s       0.000169      0.000253      0.000787      0.000000
    290 O2    s       0.000024      0.000023     -0.000115      0.000000
    291 O2    s      -0.000029      0.000025     -0.000030      0.000000
    292 O2    s      -0.000038     -0.000002      0.000164      0.000000
    293 O2    s       0.000028     -0.000032      0.000035      0.000000
    294 O2    s       0.000044      0.000112      0.000264      0.000000
    295 O2    s      -0.000014     -0.000020      0.000046      0.000000
    296 O2    s       0.000054     -0.000024     -0.000315      0.000000
    297 O2    s       0.000012     -0.000009      0.000017      0.000000
    298 O2    s       0.000180     -0.000029      0.000435      0.000000
    299 O2    s      -0.000030      0.000034     -0.000077      0.000000
    300 O2    s       0.000041     -0.000084     -0.000378      0.000000
    301 O2    s       0.000001     -0.000047      0.000181      0.000000
    302 O2    s       0.000001      0.000006      0.000063      0.000000
    303 O3    s      -0.001296      0.000868      0.000671      0.000000
    304 O2    s      -0.000001     -0.000015     -0.000052      0.000000
    305 O2    s       0.000108      0.000075     -0.000295      0.000000
    306 O2    s      -0.000005      0.000003     -0.000065      0.000000
    307 F     s      -0.000029      0.000286      0.000016      0.000000
    308 F     s      -0.000038     -0.000004      0.000027      0.000000
    309 F     s       0.000632     -0.000944     -0.001353      0.000000
    310 F     s       0.000009     -0.000010     -0.000005      0.000000
    311 F     s      -0.000035     -0.000089      0.000418      0.000000
    312 F     s      -0.000043      0.000065      0.000080      0.000000
--------------------------------------------------------------------------------
  Maximum abs         0.001296      0.001006      0.002575      0.000000
--------------------------------------------------------------------------------


  Time to end of optimisation =       7.1253 seconds


  Peak dynamic memory used =      19.13 MB 


  Timing analysis for GULP :

--------------------------------------------------------------------------------
  Task / Subroutine                                          Time (Seconds)
--------------------------------------------------------------------------------
  Calculation of reciprocal space energy and derivatives          0.2815
  Calculation of real space energy and derivatives                5.9378
  Calculation of three-body energy and derivatives                0.6757
  Calculation of matrix inversion                                 0.1920
--------------------------------------------------------------------------------
  Total CPU time                                                  7.1254
--------------------------------------------------------------------------------


  Dump file written as out.res                                                 
  CIF file written as out.cif                                                 


  Job Finished at 02:29.38 29th November   2016                               

