********************************************************************************
*                       GENERAL UTILITY LATTICE PROGRAM                        *
*                                 Julian Gale                                  *
*                      Nanochemistry Research Institute                        *
*                           Department of Chemistry                            *
*                    Curtin University, Western Australia                      *
********************************************************************************
* Version = 4.2.0 * Last modified =  20th January 2014                         *
********************************************************************************
*  optimise     - perform optimisation run                                     *
*  conp         - constant pressure calculation                                *
*  qok          - running with non charge neutral cell is OK                   *
********************************************************************************

  Job Started  at 08:45.15 27th November   2016                               

  Number of CPUs =     1


  Total number of configurations input =   1

********************************************************************************
*  Input for Configuration =   1                                               *
********************************************************************************

  Formula = Si57Ge3O120F6                                               

  Number of irreducible atoms/shells =     312


  Total number atoms/shells =     312

  Dimensionality = 3               :  Bulk   


  Charge on solid   =  -6.000000 =>neutralising background added


  Cartesian lattice vectors (Angstroms) :

       11.958412    0.000000    0.000000
       -5.994006   10.404887    0.000000
        0.089059   -0.203483   29.342528

  Cell parameters (Angstroms/Degrees):

  a =      11.9584    alpha =  90.4311
  b =      12.0079    beta  =  89.8261
  c =      29.3434    gamma = 119.9452

  Initial cell volume =        3650.971344 Angs**3

  Temperature of configuration =  0.000     K 

  Pressure of configuration =         0.000 GPa 

  Fractional coordinates of asymmetric unit :

--------------------------------------------------------------------------------
   No.  Atomic       x           y          z         Charge      Occupancy
        Label      (Frac)      (Frac)     (Frac)        (e)         (Frac)  
--------------------------------------------------------------------------------
      1 Si    c    0.699600    0.375700    0.033890     4.00000    1.000000    
      2 Si    c    0.623115 *  0.323108 *  0.366976 *   4.00000    1.000000    
      3 Si    c    0.680000 *  0.293694 *  0.699386 *   4.00000    1.000000    
      4 Si    c    0.298039 *  0.618983 *  0.534641 *   4.00000    1.000000    
      5 Si    c    0.369069 *  0.680136 *  0.865853 *   4.00000    1.000000    
      6 Si    c    0.319387 *  0.691820 *  0.199104 *   4.00000    1.000000    
      7 Si    c    0.384338 *  0.699656 *  0.301653 *   4.00000    1.000000    
      8 Si    c    0.316425 *  0.615741 *  0.968662 *   4.00000    1.000000    
      9 Si    c    0.296949 *  0.674276 *  0.635752 *   4.00000    1.000000    
     10 Si    c    0.630490 *  0.296705 *  0.800457 *   4.00000    1.000000    
     11 Si    c    0.678276 *  0.377974 *  0.468072 *   4.00000    1.000000    
     12 Si    c    0.696567 *  0.327496 *  0.135022 *   4.00000    1.000000    
     13 Si    c    0.527860 *  0.411240 *  0.967277 *   4.00000    1.000000    
     14 Si    c    0.591330 *  0.115309 *  0.300860 *   4.00000    1.000000    
     15 Si    c    0.888422 *  0.469000 *  0.634689 *   4.00000    1.000000    
     16 Si    c    0.471263 *  0.581166 *  0.469488 *   4.00000    1.000000    
     17 Si    c    0.417370 *  0.893752 *  0.802646 *   4.00000    1.000000    
     18 Si    c    0.100892 *  0.522478 *  0.136507 *   4.00000    1.000000    
     19 Si    c    0.420213 *  0.528097 *  0.367317 *   4.00000    1.000000    
     20 Si    c    0.106621 *  0.576420 *  0.034940 *   4.00000    1.000000    
     21 Si    c    0.469259 *  0.885719 *  0.701021 *   4.00000    1.000000    
     22 Si    c    0.590796 *  0.466668 *  0.863738 *   4.00000    1.000000    
     23 Si    c    0.889506 *  0.416341 *  0.532698 *   4.00000    1.000000    
     24 Si    c    0.531175 *  0.117630 *  0.197738 *   4.00000    1.000000    
     25 Ge    c    0.317836 *  0.413279 *  0.857370 *   4.00000    1.000000    
     26 Ge    c    0.589140 *  0.902712 *  0.191652 *   4.00000    1.000000    
     27 Si    c    0.097409 *  0.695390 *  0.519445 *   4.00000    1.000000    
     28 Si    c    0.700530 *  0.600054 *  0.352587 *   4.00000    1.000000    
     29 Si    c    0.400499 *  0.095458 *  0.685821 *   4.00000    1.000000    
     30 Si    c    0.898871 *  0.295994 *  0.020492 *   4.00000    1.000000    
     31 Si    c    0.399577 *  0.300982 *  0.483467 *   4.00000    1.000000    
     32 Si    c    0.898727 *  0.603590 *  0.150082 *   4.00000    1.000000    
     33 Si    c    0.701709 *  0.093615 *  0.816361 *   4.00000    1.000000    
     34 Si    c    0.599671 *  0.696707 *  0.984490 *   4.00000    1.000000    
     35 Si    c    0.096479 *  0.395865 *  0.649880 *   4.00000    1.000000    
     36 Si    c    0.306644 *  0.903004 *  0.316747 *   4.00000    1.000000    
     37 Si    c    0.243418 *  0.328888 *  0.953914 *   4.00000    1.000000    
     38 Si    c    0.672024 *  0.912764 *  0.287807 *   4.00000    1.000000    
     39 Si    c    0.088295 *  0.747375 *  0.620419 *   4.00000    1.000000    
     40 Si    c    0.750696 *  0.658749 *  0.453842 *   4.00000    1.000000    
     41 Si    c    0.344882 *  0.097573 *  0.786909 *   4.00000    1.000000    
     42 Si    c    0.899462 *  0.244599 *  0.121928 *   4.00000    1.000000    
     43 Si    c    0.342757 *  0.251037 *  0.382241 *   4.00000    1.000000    
     44 Si    c    0.907074 *  0.656744 *  0.048872 *   4.00000    1.000000    
     45 Si    c    0.749372 *  0.084037 *  0.715099 *   4.00000    1.000000    
     46 Ge    c    0.659306 *  0.749270 *  0.880710 *   4.00000    1.000000    
     47 Si    c    0.090201 *  0.338855 *  0.548432 *   4.00000    1.000000    
     48 Si    c    0.250860 *  0.908730 *  0.214718 *   4.00000    1.000000    
     49 Si    c    0.966611 *  0.115118 *  0.970418 *   4.00000    1.000000    
     50 Si    c    0.882858 *  0.847498 *  0.303774 *   4.00000    1.000000    
     51 Si    c    0.151903 *  0.027630 *  0.635518 *   4.00000    1.000000    
     52 Si    c    0.031152 *  0.876287 *  0.469434 *   4.00000    1.000000    
     53 Si    c    0.130800 *  0.166185 *  0.802926 *   4.00000    1.000000    
     54 Si    c    0.839277 *  0.965315 *  0.137964 *   4.00000    1.000000    
     55 Si    c    0.127536 *  0.970953 *  0.368634 *   4.00000    1.000000    
     56 Si    c    0.845567 *  0.874370 *  0.036470 *   4.00000    1.000000    
     57 Si    c    0.030467 *  0.149733 *  0.701438 *   4.00000    1.000000    
     58 Si    c    0.885410 *  0.030898 *  0.867185 *   4.00000    1.000000    
     59 Si    c    0.151925 *  0.120854 *  0.534393 *   4.00000    1.000000    
     60 Si    c    0.970356 *  0.851886 *  0.201282 *   4.00000    1.000000    
     61 O2    c    0.921090 *  0.992895 *  0.002538 *   0.87073    1.000000    
     62 O2    c    0.006486 *  0.924152 *  0.335725 *   0.87073    1.000000    
     63 O2    c    0.074021 *  0.070404 *  0.668788 *   0.87073    1.000000    
     64 O2    c    0.072009 *  0.997860 *  0.502087 *   0.87073    1.000000    
     65 O2    c    0.010076 *  0.082249 *  0.836058 *   0.87073    1.000000    
     66 O2    c    0.931389 *  0.934437 *  0.169623 *   0.87073    1.000000    
     67 O2    c    0.344926 *  0.578380 *  0.334700 *   0.87073    1.000000    
     68 O2    c    0.419054 *  0.758737 *  0.668902 *   0.87073    1.000000    
     69 O2    c    0.232742 *  0.652360 *  0.002584 *   0.87073    1.000000    
     70 O2    c    0.674910 *  0.419539 *  0.834060 *   0.87073    1.000000    
     71 O2    c    0.572878 *  0.246895 *  0.168182 *   0.87073    1.000000    
     72 O2    c    0.763565 *  0.339582 *  0.500146 *   0.87073    1.000000    
     73 O2    c    0.577840 *  0.337861 *  0.000299 *   0.87073    1.000000    
     74 O2    c    0.761983 *  0.416758 *  0.666729 *   0.87073    1.000000    
     75 O2    c    0.663233 *  0.239514 *  0.333963 *   0.87073    1.000000    
     76 O2    c    0.422219 *  0.657593 *  0.502058 *   0.87073    1.000000    
     77 O2    c    0.222186 *  0.564925 *  0.170446 *   0.87073    1.000000    
     78 O2    c    0.336165 *  0.774787 *  0.836918 *   0.87073    1.000000    
     79 O2    c    0.120414 *  0.207603 *  0.978053 *   0.87073    1.000000    
     80 O2    c    0.792186 *  0.909859 *  0.312805 *   0.87073    1.000000    
     81 O2    c    0.087486 *  0.873479 *  0.640222 *   0.87073    1.000000    
     82 O2    c    0.876589 *  0.785390 *  0.473950 *   0.87073    1.000000    
     83 O2    c    0.223027 *  0.102639 *  0.807819 *   0.87073    1.000000    
     84 O2    c    0.897305 *  0.120173 *  0.143090 *   0.87073    1.000000    
     85 O2    c    0.215920 *  0.124297 *  0.362446 *   0.87073    1.000000    
     86 O2    c    0.908067 *  0.782980 *  0.028989 *   0.87073    1.000000    
     87 O2    c    0.875850 *  0.083856 *  0.694942 *   0.87073    1.000000    
     88 O3    c    0.798372 *  0.879332 *  0.859788 *   1.33043    1.000000    
     89 O2    c    0.089505 *  0.212045 *  0.528281 *   0.87073    1.000000    
     90 O2    c    0.124538 *  0.909077 *  0.195724 *   0.87073    1.000000    
     91 O2    c    0.935363 *  0.864914 *  0.252867 *   0.87073    1.000000    
     92 O2    c    0.138495 *  0.068957 *  0.585051 *   0.87073    1.000000    
     93 O2    c    0.929665 *  0.063349 *  0.919462 *   0.87073    1.000000    
     94 O2    c    0.070514 *  0.140292 *  0.752136 *   0.87073    1.000000    
     95 O2    c    0.862490 *  0.930027 *  0.086787 *   0.87073    1.000000    
     96 O2    c    0.074379 *  0.930810 *  0.419081 *   0.87073    1.000000    
     97 O2    c    0.896790 *  0.197491 *  0.982026 *   0.87073    1.000000    
     98 O2    c    0.800103 *  0.695441 *  0.314318 *   0.87073    1.000000    
     99 O2    c    0.303742 *  0.095133 *  0.646902 *   0.87073    1.000000    
    100 O2    c    0.099949 *  0.793888 *  0.481105 *   0.87073    1.000000    
    101 O3    c    0.207806 *  0.312439 *  0.813894 *   1.33043    1.000000    
    102 O3    c    0.692804 *  0.892831 *  0.149424 *   1.33043    1.000000    
    103 O2    c    0.213409 *  0.904705 *  0.356318 *   0.87073    1.000000    
    104 O2    c    0.692485 *  0.788331 *  0.025124 *   0.87073    1.000000    
    105 O2    c    0.097583 *  0.300175 *  0.688186 *   0.87073    1.000000    
    106 O2    c    0.796041 *  0.093635 *  0.855812 *   0.87073    1.000000    
    107 O2    c    0.303570 *  0.202884 *  0.521834 *   0.87073    1.000000    
    108 O2    c    0.898052 *  0.700734 *  0.188633 *   0.87073    1.000000    
    109 O2    c    0.328438 *  0.646217 *  0.251048 *   0.87073    1.000000    
    110 O2    c    0.355062 *  0.675684 *  0.585166 *   0.87073    1.000000    
    111 O2    c    0.319477 *  0.674267 *  0.918689 *   0.87073    1.000000    
    112 O2    c    0.683755 *  0.352970 *  0.749778 *   0.87073    1.000000    
    113 O2    c    0.639636 *  0.321755 *  0.084100 *   0.87073    1.000000    
    114 O2    c    0.679726 *  0.322372 *  0.417290 *   0.87073    1.000000    
    115 O2    c    0.371955 *  0.326588 *  0.970818 *   0.87073    1.000000    
    116 O2    c    0.677975 *  0.046251 *  0.303944 *   0.87073    1.000000    
    117 O2    c    0.955496 *  0.624678 *  0.638168 *   0.87073    1.000000    
    118 O2    c    0.627666 *  0.668465 *  0.471983 *   0.87073    1.000000    
    119 O2    c    0.332042 *  0.964128 *  0.804577 *   0.87073    1.000000    
    120 O2    c    0.032942 *  0.367660 *  0.139223 *   0.87073    1.000000    
    121 O2    c    0.332461 *  0.372324 *  0.363301 *   0.87073    1.000000    
    122 O2    c    0.038736 *  0.664221 *  0.030432 *   0.87073    1.000000    
    123 O2    c    0.625498 *  0.952408 *  0.696778 *   0.87073    1.000000    
    124 O3    c    0.675946 *  0.620812 *  0.863476 *   1.33043    1.000000    
    125 O2    c    0.958264 *  0.328939 *  0.529344 *   0.87073    1.000000    
    126 O2    c    0.373594 *  0.041204 *  0.197673 *   0.87073    1.000000    
    127 O2    c    0.767284 *  0.300157 *  0.011726 *   0.87073    1.000000    
    128 O2    c    0.697804 *  0.465150 *  0.344367 *   0.87073    1.000000    
    129 O2    c    0.536485 *  0.225660 *  0.676971 *   0.87073    1.000000    
    130 O2    c    0.231145 *  0.694413 *  0.511692 *   0.87073    1.000000    
    131 O3    c    0.294103 *  0.542907 *  0.842237 *   1.33043    1.000000    
    132 O3    c    0.455324 *  0.752583 *  0.174656 *   1.33043    1.000000    
    133 O2    c    0.310509 *  0.771567 *  0.322154 *   0.87073    1.000000    
    134 O2    c    0.461081 *  0.688161 *  0.989691 *   0.87073    1.000000    
    135 O2    c    0.229406 *  0.530882 *  0.657227 *   0.87073    1.000000    
    136 O2    c    0.705519 *  0.229034 *  0.822575 *   0.87073    1.000000    
    137 O2    c    0.534636 *  0.302434 *  0.490190 *   0.87073    1.000000    
    138 O2    c    0.763475 *  0.471276 *  0.156758 *   0.87073    1.000000    
    139 O2    c    0.779956 *  0.531743 *  0.029229 *   0.87073    1.000000    
    140 O2    c    0.466633 *  0.246756 *  0.362164 *   0.87073    1.000000    
    141 O2    c    0.753310 *  0.210943 *  0.694989 *   0.87073    1.000000    
    142 O2    c    0.217309 *  0.463329 *  0.529043 *   0.87073    1.000000    
    143 O3    c    0.525048 *  0.747859 *  0.860275 *   1.33043    1.000000    
    144 O2    c    0.255264 *  0.784588 *  0.196491 *   0.87073    1.000000    
    145 O2    c    0.539288 *  0.788507 *  0.305395 *   0.87073    1.000000    
    146 O2    c    0.249579 *  0.461192 *  0.970728 *   0.87073    1.000000    
    147 O2    c    0.213567 *  0.746929 *  0.640269 *   0.87073    1.000000    
    148 O2    c    0.474958 *  0.218892 *  0.806285 *   0.87073    1.000000    
    149 O2    c    0.750417 *  0.533359 *  0.473196 *   0.87073    1.000000    
    150 O2    c    0.777587 *  0.253372 *  0.141157 *   0.87073    1.000000    
    151 O3    c    0.219927 *  0.305573 *  0.900847 *   1.33043    1.000000    
    152 O3    c    0.697822 *  0.909437 *  0.235076 *   1.33043    1.000000    
    153 O2    c    0.091349 *  0.765908 *  0.565826 *   0.87073    1.000000    
    154 O2    c    0.770359 *  0.674356 *  0.399320 *   0.87073    1.000000    
    155 O2    c    0.328609 *  0.098317 *  0.732158 *   0.87073    1.000000    
    156 O2    c    0.897681 *  0.225287 *  0.067272 *   0.87073    1.000000    
    157 O2    c    0.324744 *  0.231973 *  0.436678 *   0.87073    1.000000    
    158 O2    c    0.906452 *  0.677467 *  0.103340 *   0.87073    1.000000    
    159 O2    c    0.769022 *  0.084371 *  0.769605 *   0.87073    1.000000    
    160 O3    c    0.671349 *  0.769136 *  0.939186 *   1.33043    1.000000    
    161 O2    c    0.091990 *  0.322238 *  0.602866 *   0.87073    1.000000    
    162 O2    c    0.240253 *  0.906465 *  0.269597 *   0.87073    1.000000    
    163 O2    c    0.580566 *  0.554621 *  0.987301 *   0.87073    1.000000    
    164 O2    c    0.449336 *  0.023696 *  0.321880 *   0.87073    1.000000    
    165 O2    c    0.972330 *  0.412484 *  0.657964 *   0.87073    1.000000    
    166 O2    c    0.415221 *  0.440674 *  0.492361 *   0.87073    1.000000    
    167 O2    c    0.559827 *  0.972648 *  0.825597 *   0.87073    1.000000    
    168 O2    c    0.021282 *  0.585154 *  0.159629 *   0.87073    1.000000    
    169 O2    c    0.561363 *  0.587339 *  0.343699 *   0.87073    1.000000    
    170 O2    c    0.025885 *  0.434285 *  0.012140 *   0.87073    1.000000    
    171 O2    c    0.410487 *  0.967614 *  0.677669 *   0.87073    1.000000    
    172 O3    c    0.456056 *  0.411218 *  0.837633 *   1.33043    1.000000    
    173 O2    c    0.972042 *  0.556876 *  0.509386 *   0.87073    1.000000    
    174 O3    c    0.590747 *  0.042481 *  0.171725 *   1.33043    1.000000    
    175 O2    c    0.586375 *  0.162800 *  0.249777 *   0.87073    1.000000    
    176 O2    c    0.835548 *  0.416283 *  0.583527 *   0.87073    1.000000    
    177 O2    c    0.578343 *  0.412760 *  0.915997 *   0.87073    1.000000    
    178 O2    c    0.416817 *  0.835042 *  0.752249 *   0.87073    1.000000    
    179 O2    c    0.159157 *  0.578549 *  0.086190 *   0.87073    1.000000    
    180 O2    c    0.417942 *  0.580242 *  0.418363 *   0.87073    1.000000    
    181 F     c    0.484296 *  0.905290 *  0.240295 *   0.56000    1.000000    
    182 F     c    0.095962 *  0.546673 *  0.582995 *   0.56000    1.000000    
    183 F     c    0.429876 *  0.524847 *  0.905581 *   0.56000    1.000000    
    184 F     c    0.551746 *  0.094336 *  0.750177 *   0.56000    1.000000    
    185 F     c    0.899391 *  0.451926 *  0.084512 *   0.56000    1.000000    
    186 F     c    0.547999 *  0.449739 *  0.416432 *   0.56000    1.000000    
    187 O2    s    0.917759 *  0.993381 *  0.002715 *  -2.87073    1.000000    
    188 O2    s    0.006440 *  0.920838 *  0.335898 *  -2.87073    1.000000    
    189 O2    s    0.078048 *  0.074324 *  0.668615 *  -2.87073    1.000000    
    190 O2    s    0.076306 *  0.997873 *  0.502006 *  -2.87073    1.000000    
    191 O2    s    0.008530 *  0.085268 *  0.836115 *  -2.87073    1.000000    
    192 O2    s    0.926282 *  0.928256 *  0.169941 *  -2.87073    1.000000    
    193 O2    s    0.356694 *  0.585981 *  0.334543 *  -2.87073    1.000000    
    194 O2    s    0.411473 *  0.762898 *  0.668722 *  -2.87073    1.000000    
    195 O2    s    0.228631 *  0.640719 *  0.002322 *  -2.87073    1.000000    
    196 O2    s    0.661909 *  0.411753 *  0.833611 *  -2.87073    1.000000    
    197 O2    s    0.581107 *  0.242046 *  0.167805 *  -2.87073    1.000000    
    198 O2    s    0.767556 *  0.351426 *  0.500120 *  -2.87073    1.000000    
    199 O2    s    0.585048 *  0.349416 *  0.000279 *  -2.87073    1.000000    
    200 O2    s    0.766781 *  0.409572 *  0.666745 *  -2.87073    1.000000    
    201 O2    s    0.651562 *  0.234979 *  0.333856 *  -2.87073    1.000000    
    202 O2    s    0.414717 *  0.645705 *  0.501985 *  -2.87073    1.000000    
    203 O2    s    0.219881 *  0.574015 *  0.169979 *  -2.87073    1.000000    
    204 O2    s    0.347890 *  0.777292 *  0.836388 *  -2.87073    1.000000    
    205 O2    s    0.116871 *  0.210245 *  0.974878 *  -2.87073    1.000000    
    206 O2    s    0.789624 *  0.903606 *  0.309403 *  -2.87073    1.000000    
    207 O2    s    0.094331 *  0.876588 *  0.637696 *  -2.87073    1.000000    
    208 O2    s    0.879905 *  0.781889 *  0.471414 *  -2.87073    1.000000    
    209 O2    s    0.226952 *  0.108447 *  0.805090 *  -2.87073    1.000000    
    210 O2    s    0.891774 *  0.118105 *  0.140337 *  -2.87073    1.000000    
    211 O2    s    0.219518 *  0.120942 *  0.365112 *  -2.87073    1.000000    
    212 O2    s    0.901447 *  0.779434 *  0.031790 *  -2.87073    1.000000    
    213 O2    s    0.878971 *  0.090754 *  0.697671 *  -2.87073    1.000000    
    214 O3    s    0.796012 *  0.884187 *  0.862172 *  -3.33043    1.000000    
    215 O2    s    0.096209 *  0.215384 *  0.530967 *  -2.87073    1.000000    
    216 O2    s    0.122035 *  0.903087 *  0.198305 *  -2.87073    1.000000    
    217 O2    s    0.933352 *  0.861464 *  0.252861 *  -2.87073    1.000000    
    218 O2    s    0.141531 *  0.070253 *  0.584909 *  -2.87073    1.000000    
    219 O2    s    0.929026 *  0.065688 *  0.919562 *  -2.87073    1.000000    
    220 O2    s    0.072225 *  0.144111 *  0.751595 *  -2.87073    1.000000    
    221 O2    s    0.858102 *  0.927295 *  0.086333 *  -2.87073    1.000000    
    222 O2    s    0.075650 *  0.929306 *  0.418929 *  -2.87073    1.000000    
    223 O2    s    0.904364 *  0.199024 *  0.984800 *  -2.87073    1.000000    
    224 O2    s    0.798639 *  0.701696 *  0.317119 *  -2.87073    1.000000    
    225 O2    s    0.297352 *  0.087944 *  0.649635 *  -2.87073    1.000000    
    226 O2    s    0.092313 *  0.792737 *  0.483736 *  -2.87073    1.000000    
    227 O3    s    0.206343 *  0.302483 *  0.815505 *  -3.33043    1.000000    
    228 O3    s    0.702524 *  0.901687 *  0.150907 *  -3.33043    1.000000    
    229 O2    s    0.214403 *  0.911416 *  0.353402 *  -2.87073    1.000000    
    230 O2    s    0.698509 *  0.787629 *  0.022111 *  -2.87073    1.000000    
    231 O2    s    0.090461 *  0.294472 *  0.685553 *  -2.87073    1.000000    
    232 O2    s    0.795465 *  0.087183 *  0.852894 *  -2.87073    1.000000    
    233 O2    s    0.297494 *  0.204345 *  0.519206 *  -2.87073    1.000000    
    234 O2    s    0.905777 *  0.706707 *  0.185992 *  -2.87073    1.000000    
    235 O2    s    0.333449 *  0.656268 *  0.251306 *  -2.87073    1.000000    
    236 O2    s    0.343323 *  0.669720 *  0.585095 *  -2.87073    1.000000    
    237 O2    s    0.323950 *  0.668737 *  0.918783 *  -2.87073    1.000000    
    238 O2    s    0.677897 *  0.341073 *  0.749778 *  -2.87073    1.000000    
    239 O2    s    0.651635 *  0.327900 *  0.084119 *  -2.87073    1.000000    
    240 O2    s    0.673738 *  0.328111 *  0.417269 *  -2.87073    1.000000    
    241 O2    s    0.375109 *  0.335617 *  0.968729 *  -2.87073    1.000000    
    242 O2    s    0.668367 *  0.040100 *  0.301994 *  -2.87073    1.000000    
    243 O2    s    0.962446 *  0.621513 *  0.635954 *  -2.87073    1.000000    
    244 O2    s    0.624490 *  0.658470 *  0.469812 *  -2.87073    1.000000    
    245 O2    s    0.342419 *  0.970727 *  0.802494 *  -2.87073    1.000000    
    246 O2    s    0.026107 *  0.371115 *  0.137101 *  -2.87073    1.000000    
    247 O2    s    0.342519 *  0.375646 *  0.365690 *  -2.87073    1.000000    
    248 O2    s    0.031968 *  0.654386 *  0.032827 *  -2.87073    1.000000    
    249 O2    s    0.622461 *  0.959307 *  0.699127 *  -2.87073    1.000000    
    250 O3    s    0.666245 *  0.616285 *  0.864919 *  -3.33043    1.000000    
    251 O2    s    0.964961 *  0.338957 *  0.531683 *  -2.87073    1.000000    
    252 O2    s    0.376411 *  0.034818 *  0.199500 *  -2.87073    1.000000    
    253 O2    s    0.773989 *  0.307677 *  0.015013 *  -2.87073    1.000000    
    254 O2    s    0.690352 *  0.464655 *  0.347603 *  -2.87073    1.000000    
    255 O2    s    0.536897 *  0.218901 *  0.680235 *  -2.87073    1.000000    
    256 O2    s    0.223934 *  0.686789 *  0.514887 *  -2.87073    1.000000    
    257 O3    s    0.303624 *  0.548002 *  0.845826 *  -3.33043    1.000000    
    258 O3    s    0.450506 *  0.756781 *  0.178446 *  -3.33043    1.000000    
    259 O2    s    0.317681 *  0.778298 *  0.319454 *  -2.87073    1.000000    
    260 O2    s    0.460721 *  0.681523 *  0.986946 *  -2.87073    1.000000    
    261 O2    s    0.222434 *  0.531513 *  0.654203 *  -2.87073    1.000000    
    262 O2    s    0.697283 *  0.221538 *  0.819548 *  -2.87073    1.000000    
    263 O2    s    0.535205 *  0.310067 *  0.487166 *  -2.87073    1.000000    
    264 O2    s    0.770871 *  0.470401 *  0.153759 *  -2.87073    1.000000    
    265 O2    s    0.785442 *  0.529201 *  0.031787 *  -2.87073    1.000000    
    266 O2    s    0.469548 *  0.255150 *  0.364776 *  -2.87073    1.000000    
    267 O2    s    0.745140 *  0.205915 *  0.697572 *  -2.87073    1.000000    
    268 O2    s    0.211893 *  0.466035 *  0.531675 *  -2.87073    1.000000    
    269 O3    s    0.522250 *  0.741568 *  0.862522 *  -3.33043    1.000000    
    270 O2    s    0.261250 *  0.789202 *  0.198739 *  -2.87073    1.000000    
    271 O2    s    0.536323 *  0.791858 *  0.303191 *  -2.87073    1.000000    
    272 O2    s    0.256183 *  0.464050 *  0.968763 *  -2.87073    1.000000    
    273 O2    s    0.208527 *  0.739286 *  0.637659 *  -2.87073    1.000000    
    274 O2    s    0.477258 *  0.213793 *  0.803599 *  -2.87073    1.000000    
    275 O2    s    0.742819 *  0.530767 *  0.470585 *  -2.87073    1.000000    
    276 O2    s    0.782346 *  0.260383 *  0.138470 *  -2.87073    1.000000    
    277 O3    s    0.229234 *  0.315490 *  0.903409 *  -3.33043    1.000000    
    278 O3    s    0.687832 *  0.909368 *  0.237715 *  -3.33043    1.000000    
    279 O2    s    0.091653 *  0.756524 *  0.566710 *  -2.87073    1.000000    
    280 O2    s    0.760941 *  0.664896 *  0.400199 *  -2.87073    1.000000    
    281 O2    s    0.337936 *  0.097948 *  0.732977 *  -2.87073    1.000000    
    282 O2    s    0.897972 *  0.234796 *  0.068077 *  -2.87073    1.000000    
    283 O2    s    0.334512 *  0.241247 *  0.435772 *  -2.87073    1.000000    
    284 O2    s    0.905703 *  0.667452 *  0.102526 *  -2.87073    1.000000    
    285 O2    s    0.759895 *  0.085278 *  0.768755 *  -2.87073    1.000000    
    286 O3    s    0.663013 *  0.760108 *  0.939118 *  -3.33043    1.000000    
    287 O2    s    0.092278 *  0.331734 *  0.601959 *  -2.87073    1.000000    
    288 O2    s    0.248505 *  0.906333 *  0.268883 *  -2.87073    1.000000    
    289 O2    s    0.576930 *  0.554890 *  0.984866 *  -2.87073    1.000000    
    290 O2    s    0.448521 *  0.019875 *  0.319083 *  -2.87073    1.000000    
    291 O2    s    0.977147 *  0.416798 *  0.654634 *  -2.87073    1.000000    
    292 O2    s    0.419572 *  0.440262 *  0.489002 *  -2.87073    1.000000    
    293 O2    s    0.560321 *  0.977590 *  0.822223 *  -2.87073    1.000000    
    294 O2    s    0.016225 *  0.580485 *  0.156194 *  -2.87073    1.000000    
    295 O2    s    0.561550 *  0.582386 *  0.347100 *  -2.87073    1.000000    
    296 O2    s    0.020602 *  0.434344 *  0.015414 *  -2.87073    1.000000    
    297 O2    s    0.415717 *  0.972932 *  0.680986 *  -2.87073    1.000000    
    298 O3    s    0.459321 *  0.417223 *  0.841723 *  -3.33043    1.000000    
    299 O2    s    0.977083 *  0.557134 *  0.512878 *  -2.87073    1.000000    
    300 O3    s    0.584309 *  0.039843 *  0.175830 *  -3.33043    1.000000    
    301 O2    s    0.581489 *  0.153303 *  0.250050 *  -2.87073    1.000000    
    302 O2    s    0.846700 *  0.421768 *  0.583497 *  -2.87073    1.000000    
    303 O2    s    0.574095 *  0.417784 *  0.916378 *  -2.87073    1.000000    
    304 O2    s    0.422311 *  0.846227 *  0.752101 *  -2.87073    1.000000    
    305 O2    s    0.147760 *  0.572616 *  0.086028 *  -2.87073    1.000000    
    306 O2    s    0.423646 *  0.574882 *  0.418281 *  -2.87073    1.000000    
    307 F     s    0.490929 *  0.905095 *  0.237315 *  -1.56000    1.000000    
    308 F     s    0.096286 *  0.546918 *  0.582821 *  -1.56000    1.000000    
    309 F     s    0.424187 *  0.519361 *  0.902809 *  -1.56000    1.000000    
    310 F     s    0.552055 *  0.094618 *  0.750112 *  -1.56000    1.000000    
    311 F     s    0.899133 *  0.452000 *  0.084449 *  -1.56000    1.000000    
    312 F     s    0.548002 *  0.449425 *  0.416256 *  -1.56000    1.000000    
--------------------------------------------------------------------------------



********************************************************************************
*  General input information                                                   *
********************************************************************************

  Species output for all configurations : 

--------------------------------------------------------------------------------
  Species    Type    Atomic    Atomic    Charge       Radii (Angs)     Library
                     Number     Mass       (e)     Cova   Ionic  VDW   Symbol
--------------------------------------------------------------------------------
    Si       Core       14      28.09   4.000000   1.200  0.000  2.100          
    O1       Core        8      16.00   1.733957   0.730  0.000  1.360          
    O1       Shell       8       0.00  -3.733957   0.730  0.000  1.360          
    O2       Core        8      16.00   0.870733   0.730  0.000  1.360          
    O2       Shell       8       0.00  -2.870733   0.730  0.000  1.360          
    O3       Core        8      16.00   1.330431   0.730  0.000  1.360          
    O3       Shell       8       0.00  -3.330431   0.730  0.000  1.360          
    F        Core        9      19.00   0.560000   0.710  0.000  1.300          
    F        Shell       9       0.00  -1.560000   0.710  0.000  1.300          
    Ge       Core       32      72.61   4.000000   1.170  0.000  1.750          
--------------------------------------------------------------------------------


  Lattice summation method               =    Ewald          (3-D)
                                         =    Parry          (2-D)
                                         =    Saunders et al (1-D)
  Accuracy factor for lattice sums       =   12.000


  Time limit = Infinity

  Maximum range for interatomic potentials =        16.000000 Angstroms

  Taper potentials to zero over   1.0000 Angstroms using polynomial

  General interatomic potentials :

--------------------------------------------------------------------------------
Atom  Types   Potential         A         B         C         D     Cutoffs(Ang)
  1     2                                                            Min    Max 
--------------------------------------------------------------------------------
Si   c O1   s Buckingham    0.132E+04 0.318      10.1      0.00     0.000 16.000
Si   c O2   s Buckingham    0.132E+04 0.318      10.1      0.00     0.000 16.000
Si   c O3   s Buckingham    0.132E+04 0.318      10.1      0.00     0.000 16.000
Ge   c O1   s Buckingham    0.150E+04 0.326      16.8      0.00     0.000 16.000
Ge   c O2   s Buckingham    0.150E+04 0.326      16.8      0.00     0.000 16.000
Ge   c O3   s Buckingham    0.150E+04 0.326      16.8      0.00     0.000 16.000
O1   s O1   s Buckingham    0.228E+05 0.149      10.9      0.00     0.000 16.000
O1   s O2   s Buckingham    0.228E+05 0.149      10.9      0.00     0.000 16.000
O1   s O3   s Buckingham    0.228E+05 0.149      10.9      0.00     0.000 16.000
O2   s O2   s Buckingham    0.228E+05 0.149      10.9      0.00     0.000 16.000
O2   s O3   s Buckingham    0.228E+05 0.149      10.9      0.00     0.000 16.000
O3   s O3   s Buckingham    0.228E+05 0.149      10.9      0.00     0.000 16.000
Si   c F    s Buckingham     977.     0.282      0.00      0.00     0.000 16.000
Ge   c F    s Buckingham     681.     0.320      0.00      0.00     0.000 16.000
F    s F    s Buckingham     540.     0.262      0.00      0.00     0.000 16.000
O1   s F    s Buckingham    0.168E+04 0.268      0.00      0.00     0.000 16.000
O2   s F    s Buckingham    0.168E+04 0.268      0.00      0.00     0.000 16.000
O3   s F    s Buckingham    0.168E+04 0.268      0.00      0.00     0.000 16.000
O2   c O2   s Spring (c-s)   76.0      0.00      0.00      0.00     0.000  0.800
O3   c O3   s Spring (c-s)   128.      0.00      0.00      0.00     0.000  0.800
O1   c O1   s Spring (c-s)   180.      0.00      0.00      0.00     0.000  0.800
F    c F    s Spring (c-s)   33.5      0.00      0.00      0.00     0.000  0.800
--------------------------------------------------------------------------------

  General Three-body potentials :

  Harmonic form:

--------------------------------------------------------------------------------
Atom    Atom    Atom           Force Constants            Theta     Cutoffs  
  1       2       3     (eVrad**-2/eVrad**-3/eVrad**-4)   (deg)  1-2  1-3  2-3
--------------------------------------------------------------------------------
Si    c O1    s O1    s  1.261        0.0000    0.0000   109.470 0.00 0.00 0.00
                                                                 1.90 1.90 3.50
Si    c O1    s O2    s  1.261        0.0000    0.0000   109.470 0.00 0.00 0.00
                                                                 1.90 1.90 3.50
Si    c O2    s O2    s  1.261        0.0000    0.0000   109.470 0.00 0.00 0.00
                                                                 1.90 1.90 3.50
--------------------------------------------------------------------------------

********************************************************************************
*  Output for configuration   1                                                *
********************************************************************************


  Components of energy : 

--------------------------------------------------------------------------------
  Interatomic potentials     =        2064.09724133 eV
  Three-body potentials      =           0.49512466 eV
  Monopole - monopole (real) =       -6611.51833260 eV
  Monopole - monopole (recip)=       -3173.02940937 eV
  Monopole - monopole (total)=       -9784.54774197 eV
  Neutralising energy        =          -6.46347098 eV
--------------------------------------------------------------------------------
  Total lattice energy       =       -7726.41884696 eV
--------------------------------------------------------------------------------
  Total lattice energy       =         -745481.3096 kJ/(mole unit cells)
--------------------------------------------------------------------------------


  Number of variables =      939

  Maximum number of calculations  =          1000
  Maximum Hessian update interval =            10
  Maximum step size               =   1.000000000
  Maximum parameter tolerance     =   0.000010000
  Maximum function  tolerance     =   0.000010000
  Maximum gradient  tolerance     =   0.001000000
  Maximum gradient  component     =   0.010000000

  Symmetry not applied to optimisation

  Cell parameters to be optimised using strains

  Newton-Raphson optimiser to be used

  BFGS hessian update to be used

  Dumpfile to be written after every cycle

  Start of bulk optimisation :

  Cycle:      0 Energy:     -7726.418847  Gnorm:      0.000789  CPU:    1.020
  ** Hessian calculated **
  Cycle:      1 Energy:     -7726.453256  Gnorm:      0.002803  CPU:    2.916
  Cycle:      2 Energy:     -7726.453516  Gnorm:      0.000172  CPU:    4.290
  Cycle:      3 Energy:     -7726.453527  Gnorm:      0.000054  CPU:    5.663


  **** Optimisation achieved ****


  Final energy =   -7726.45352705 eV
  Final Gnorm  =       0.00000567

  Components of energy : 

--------------------------------------------------------------------------------
  Interatomic potentials     =        2064.43311630 eV
  Three-body potentials      =           0.50728995 eV
  Monopole - monopole (real) =       -6610.39015538 eV
  Monopole - monopole (recip)=       -3174.53723431 eV
  Monopole - monopole (total)=       -9784.92738969 eV
  Neutralising energy        =          -6.46654361 eV
--------------------------------------------------------------------------------
  Total lattice energy       =       -7726.45352705 eV
--------------------------------------------------------------------------------
  Total lattice energy       =         -745484.6557 kJ/(mole unit cells)
--------------------------------------------------------------------------------

  Final fractional coordinates of atoms :

--------------------------------------------------------------------------------
   No.  Atomic        x           y          z          Radius
        Label       (Frac)      (Frac)     (Frac)       (Angs) 
--------------------------------------------------------------------------------
     1  Si    c     0.699600    0.375700    0.033890    0.000000
     2  Si    c     0.630704    0.321782    0.367036    0.000000
     3  Si    c     0.688111    0.293086    0.699797    0.000000
     4  Si    c     0.309264    0.618340    0.536504    0.000000
     5  Si    c     0.370065    0.679310    0.867469    0.000000
     6  Si    c     0.318772    0.683697    0.200658    0.000000
     7  Si    c     0.389114    0.696984    0.303075    0.000000
     8  Si    c     0.316658    0.612399    0.970200    0.000000
     9  Si    c     0.305025    0.672361    0.637619    0.000000
    10  Si    c     0.639233    0.299741    0.800754    0.000000
    11  Si    c     0.688595    0.375608    0.468142    0.000000
    12  Si    c     0.693968    0.323641    0.134890    0.000000
    13  Si    c     0.527563    0.408383    0.966669    0.000000
    14  Si    c     0.595634    0.113181    0.300342    0.000000
    15  Si    c     0.896705    0.466699    0.634798    0.000000
    16  Si    c     0.482161    0.579820    0.471465    0.000000
    17  Si    c     0.425367    0.896184    0.804846    0.000000
    18  Si    c     0.098131    0.515306    0.138489    0.000000
    19  Si    c     0.428358    0.527937    0.369195    0.000000
    20  Si    c     0.106554    0.571407    0.036820    0.000000
    21  Si    c     0.476302    0.884413    0.703137    0.000000
    22  Si    c     0.592948    0.466461    0.863432    0.000000
    23  Si    c     0.900410    0.414807    0.532705    0.000000
    24  Si    c     0.531588    0.111587    0.197155    0.000000
    25  Ge    c     0.319464    0.413103    0.858283    0.000000
    26  Ge    c     0.587982    0.895099    0.192389    0.000000
    27  Si    c     0.108726    0.694376    0.520218    0.000000
    28  Si    c     0.708417    0.599318    0.353828    0.000000
    29  Si    c     0.408177    0.094698    0.687260    0.000000
    30  Si    c     0.896925    0.291883    0.021441    0.000000
    31  Si    c     0.410520    0.299230    0.484694    0.000000
    32  Si    c     0.896823    0.598248    0.151437    0.000000
    33  Si    c     0.709990    0.096899    0.817452    0.000000
    34  Si    c     0.600506    0.694162    0.985147    0.000000
    35  Si    c     0.104540    0.393525    0.650885    0.000000
    36  Si    c     0.311367    0.900948    0.317173    0.000000
    37  Si    c     0.242804    0.325476    0.954405    0.000000
    38  Si    c     0.676477    0.910064    0.288152    0.000000
    39  Si    c     0.096742    0.745415    0.621227    0.000000
    40  Si    c     0.761142    0.656807    0.455082    0.000000
    41  Si    c     0.353335    0.100467    0.788286    0.000000
    42  Si    c     0.895086    0.237874    0.122856    0.000000
    43  Si    c     0.350885    0.250325    0.383478    0.000000
    44  Si    c     0.908662    0.654437    0.050271    0.000000
    45  Si    c     0.756848    0.083306    0.716297    0.000000
    46  Ge    c     0.661491    0.749282    0.881559    0.000000
    47  Si    c     0.101342    0.337884    0.549356    0.000000
    48  Si    c     0.251641    0.902280    0.215247    0.000000
    49  Si    c     0.966696    0.111830    0.971596    0.000000
    50  Si    c     0.888999    0.847350    0.304942    0.000000
    51  Si    c     0.159480    0.025461    0.636643    0.000000
    52  Si    c     0.041536    0.874757    0.470541    0.000000
    53  Si    c     0.135910    0.164935    0.804249    0.000000
    54  Si    c     0.838017    0.959177    0.139200    0.000000
    55  Si    c     0.134246    0.970743    0.369596    0.000000
    56  Si    c     0.846536    0.870963    0.037567    0.000000
    57  Si    c     0.037103    0.146933    0.702495    0.000000
    58  Si    c     0.890170    0.030113    0.868023    0.000000
    59  Si    c     0.162889    0.119648    0.535440    0.000000
    60  Si    c     0.971689    0.847680    0.202152    0.000000
    61  O2    c     0.921346    0.989925    0.003827    0.000000
    62  O2    c     0.012440    0.925419    0.337024    0.000000
    63  O2    c     0.080573    0.067347    0.669852    0.000000
    64  O2    c     0.082718    0.996275    0.503296    0.000000
    65  O2    c     0.015703    0.078589    0.837406    0.000000
    66  O2    c     0.932244    0.930441    0.170688    0.000000
    67  O2    c     0.351784    0.577778    0.336991    0.000000
    68  O2    c     0.425730    0.756494    0.671452    0.000000
    69  O2    c     0.233139    0.647799    0.004708    0.000000
    70  O2    c     0.680716    0.423314    0.833852    0.000000
    71  O2    c     0.569619    0.239984    0.167550    0.000000
    72  O2    c     0.775323    0.337607    0.499725    0.000000
    73  O2    c     0.578735    0.336447    0.999855    0.000000
    74  O2    c     0.769532    0.414586    0.666454    0.000000
    75  O2    c     0.668882    0.238342    0.333083    0.000000
    76  O2    c     0.434376    0.656725    0.504431    0.000000
    77  O2    c     0.218757    0.555976    0.172771    0.000000
    78  O2    c     0.341594    0.778107    0.839184    0.000000
    79  O2    c     0.120499    0.204839    0.979076    0.000000
    80  O2    c     0.797347    0.908959    0.313418    0.000000
    81  O2    c     0.095053    0.871204    0.640997    0.000000
    82  O2    c     0.887247    0.782833    0.475455    0.000000
    83  O2    c     0.231874    0.105719    0.809476    0.000000
    84  O2    c     0.892311    0.113484    0.144352    0.000000
    85  O2    c     0.223219    0.124175    0.363743    0.000000
    86  O2    c     0.911350    0.781458    0.030348    0.000000
    87  O2    c     0.882476    0.081532    0.696031    0.000000
    88  O3    c     0.799510    0.879015    0.860032    0.000000
    89  O2    c     0.101553    0.211706    0.528956    0.000000
    90  O2    c     0.125255    0.902097    0.195903    0.000000
    91  O2    c     0.941424    0.864279    0.254026    0.000000
    92  O2    c     0.147676    0.068069    0.586214    0.000000
    93  O2    c     0.931469    0.058791    0.920673    0.000000
    94  O2    c     0.076322    0.136720    0.753282    0.000000
    95  O2    c     0.862814    0.926040    0.087941    0.000000
    96  O2    c     0.082383    0.929729    0.420138    0.000000
    97  O2    c     0.895790    0.193537    0.982898    0.000000
    98  O2    c     0.807342    0.695369    0.315590    0.000000
    99  O2    c     0.311134    0.093080    0.648232    0.000000
   100  O2    c     0.111666    0.793147    0.481824    0.000000
   101  O3    c     0.209507    0.311572    0.814889    0.000000
   102  O3    c     0.691377    0.883717    0.150384    0.000000
   103  O2    c     0.219177    0.903817    0.356890    0.000000
   104  O2    c     0.693609    0.783642    0.026138    0.000000
   105  O2    c     0.104643    0.297439    0.689268    0.000000
   106  O2    c     0.805522    0.098042    0.856702    0.000000
   107  O2    c     0.314854    0.200716    0.523100    0.000000
   108  O2    c     0.896696    0.695898    0.190035    0.000000
   109  O2    c     0.330581    0.640703    0.252845    0.000000
   110  O2    c     0.365016    0.674628    0.587263    0.000000
   111  O2    c     0.320307    0.672469    0.920397    0.000000
   112  O2    c     0.693129    0.354733    0.749962    0.000000
   113  O2    c     0.638063    0.320721    0.083987    0.000000
   114  O2    c     0.688722    0.320197    0.417106    0.000000
   115  O2    c     0.371916    0.323356    0.970877    0.000000
   116  O2    c     0.681952    0.043817    0.303719    0.000000
   117  O2    c     0.963653    0.622359    0.638511    0.000000
   118  O2    c     0.638599    0.666687    0.473708    0.000000
   119  O2    c     0.341251    0.967785    0.806355    0.000000
   120  O2    c     0.028661    0.360349    0.140542    0.000000
   121  O2    c     0.340759    0.372172    0.365081    0.000000
   122  O2    c     0.039781    0.660265    0.032227    0.000000
   123  O2    c     0.632419    0.951078    0.698664    0.000000
   124  O3    c     0.678399    0.620674    0.864781    0.000000
   125  O2    c     0.969726    0.327820    0.529806    0.000000
   126  O2    c     0.373974    0.034147    0.197805    0.000000
   127  O2    c     0.767269    0.299097    0.012119    0.000000
   128  O2    c     0.705281    0.464392    0.344839    0.000000
   129  O2    c     0.544043    0.224422    0.677786    0.000000
   130  O2    c     0.243062    0.694041    0.513137    0.000000
   131  O3    c     0.294096    0.542561    0.843561    0.000000
   132  O3    c     0.454088    0.743699    0.175859    0.000000
   133  O2    c     0.316151    0.770122    0.323307    0.000000
   134  O2    c     0.461459    0.684283    0.991172    0.000000
   135  O2    c     0.237056    0.528654    0.658863    0.000000
   136  O2    c     0.714537    0.232938    0.823488    0.000000
   137  O2    c     0.545506    0.299923    0.490746    0.000000
   138  O2    c     0.760535    0.466509    0.157622    0.000000
   139  O2    c     0.780940    0.531421    0.029752    0.000000
   140  O2    c     0.474117    0.245909    0.362816    0.000000
   141  O2    c     0.760909    0.209725    0.695603    0.000000
   142  O2    c     0.228956    0.462738    0.530506    0.000000
   143  O3    c     0.525835    0.745427    0.861432    0.000000
   144  O2    c     0.255344    0.777094    0.197724    0.000000
   145  O2    c     0.544128    0.785857    0.306107    0.000000
   146  O2    c     0.249309    0.457810    0.971571    0.000000
   147  O2    c     0.221591    0.745114    0.641673    0.000000
   148  O2    c     0.483766    0.222695    0.806965    0.000000
   149  O2    c     0.761281    0.530971    0.473778    0.000000
   150  O2    c     0.773282    0.247723    0.141426    0.000000
   151  O3    c     0.219696    0.303083    0.901286    0.000000
   152  O3    c     0.699840    0.904581    0.235369    0.000000
   153  O2    c     0.101187    0.764342    0.566593    0.000000
   154  O2    c     0.779762    0.673223    0.400507    0.000000
   155  O2    c     0.336697    0.099462    0.733468    0.000000
   156  O2    c     0.893667    0.219449    0.068107    0.000000
   157  O2    c     0.334410    0.230858    0.437963    0.000000
   158  O2    c     0.906418    0.673660    0.104815    0.000000
   159  O2    c     0.777236    0.086044    0.770864    0.000000
   160  O3    c     0.671774    0.769174    0.940133    0.000000
   161  O2    c     0.101720    0.320498    0.603846    0.000000
   162  O2    c     0.242580    0.901859    0.270217    0.000000
   163  O2    c     0.581716    0.552127    0.986541    0.000000
   164  O2    c     0.453804    0.022476    0.321643    0.000000
   165  O2    c     0.979885    0.409719    0.658398    0.000000
   166  O2    c     0.426760    0.439068    0.494091    0.000000
   167  O2    c     0.568417    0.975793    0.827450    0.000000
   168  O2    c     0.018221    0.578012    0.161404    0.000000
   169  O2    c     0.569294    0.587333    0.345429    0.000000
   170  O2    c     0.025494    0.429547    0.013852    0.000000
   171  O2    c     0.417612    0.966280    0.679734    0.000000
   172  O3    c     0.458546    0.413483    0.837386    0.000000
   173  O2    c     0.983991    0.555654    0.509717    0.000000
   174  O3    c     0.589383    0.034277    0.171506    0.000000
   175  O2    c     0.589201    0.158305    0.248997    0.000000
   176  O2    c     0.845351    0.414593    0.583406    0.000000
   177  O2    c     0.576938    0.408533    0.915310    0.000000
   178  O2    c     0.424964    0.836192    0.754644    0.000000
   179  O2    c     0.157320    0.572073    0.088288    0.000000
   180  O2    c     0.427635    0.579426    0.420530    0.000000
   181  F     c     0.485618    0.899322    0.240910    0.000000
   182  F     c     0.106376    0.545367    0.584030    0.000000
   183  F     c     0.429087    0.521561    0.906498    0.000000
   184  F     c     0.561270    0.097082    0.751750    0.000000
   185  F     c     0.896360    0.447593    0.085677    0.000000
   186  F     c     0.558140    0.448535    0.417668    0.000000
   187  O2    s     0.918061    0.990324    0.003975    0.000000
   188  O2    s     0.012500    0.921798    0.337142    0.000000
   189  O2    s     0.084704    0.071392    0.669689    0.000000
   190  O2    s     0.087018    0.996341    0.503186    0.000000
   191  O2    s     0.013995    0.082159    0.837403    0.000000
   192  O2    s     0.927014    0.924046    0.171004    0.000000
   193  O2    s     0.363457    0.585183    0.336708    0.000000
   194  O2    s     0.418360    0.760830    0.671170    0.000000
   195  O2    s     0.228980    0.636247    0.004357    0.000000
   196  O2    s     0.667690    0.415037    0.833438    0.000000
   197  O2    s     0.578239    0.235510    0.167245    0.000000
   198  O2    s     0.779089    0.349426    0.499802    0.000000
   199  O2    s     0.585864    0.348096    0.999891    0.000000
   200  O2    s     0.774454    0.407531    0.666584    0.000000
   201  O2    s     0.657285    0.233733    0.333122    0.000000
   202  O2    s     0.426641    0.644820    0.504266    0.000000
   203  O2    s     0.216877    0.565312    0.172197    0.000000
   204  O2    s     0.353104    0.780042    0.838585    0.000000
   205  O2    s     0.116889    0.207370    0.975859    0.000000
   206  O2    s     0.794827    0.902600    0.310049    0.000000
   207  O2    s     0.101993    0.874369    0.638510    0.000000
   208  O2    s     0.890516    0.779501    0.472847    0.000000
   209  O2    s     0.235384    0.111074    0.806679    0.000000
   210  O2    s     0.887228    0.111494    0.141558    0.000000
   211  O2    s     0.226833    0.120745    0.366367    0.000000
   212  O2    s     0.904320    0.777623    0.033130    0.000000
   213  O2    s     0.885685    0.088544    0.698765    0.000000
   214  O3    s     0.797514    0.883753    0.862528    0.000000
   215  O2    s     0.108055    0.214901    0.531711    0.000000
   216  O2    s     0.122804    0.896457    0.198586    0.000000
   217  O2    s     0.938869    0.860476    0.253993    0.000000
   218  O2    s     0.150736    0.069175    0.586061    0.000000
   219  O2    s     0.930956    0.061699    0.920710    0.000000
   220  O2    s     0.078052    0.140872    0.752755    0.000000
   221  O2    s     0.858313    0.923143    0.087489    0.000000
   222  O2    s     0.083760    0.928259    0.419985    0.000000
   223  O2    s     0.903358    0.195074    0.985680    0.000000
   224  O2    s     0.805827    0.701571    0.318384    0.000000
   225  O2    s     0.304785    0.085981    0.650975    0.000000
   226  O2    s     0.103888    0.791884    0.484489    0.000000
   227  O3    s     0.208455    0.301680    0.816539    0.000000
   228  O3    s     0.701110    0.892994    0.151881    0.000000
   229  O2    s     0.220143    0.910503    0.353985    0.000000
   230  O2    s     0.699587    0.783286    0.023084    0.000000
   231  O2    s     0.097577    0.291760    0.686626    0.000000
   232  O2    s     0.804349    0.090920    0.853799    0.000000
   233  O2    s     0.308725    0.202308    0.520459    0.000000
   234  O2    s     0.904601    0.701847    0.187345    0.000000
   235  O2    s     0.335562    0.650727    0.253040    0.000000
   236  O2    s     0.353232    0.668632    0.587145    0.000000
   237  O2    s     0.324724    0.666908    0.920456    0.000000
   238  O2    s     0.687086    0.342754    0.750020    0.000000
   239  O2    s     0.650078    0.326648    0.084084    0.000000
   240  O2    s     0.682751    0.325978    0.417147    0.000000
   241  O2    s     0.375083    0.332443    0.968764    0.000000
   242  O2    s     0.672399    0.037676    0.301795    0.000000
   243  O2    s     0.970669    0.619245    0.636316    0.000000
   244  O2    s     0.635346    0.656699    0.471509    0.000000
   245  O2    s     0.351473    0.974210    0.804262    0.000000
   246  O2    s     0.022055    0.363991    0.138453    0.000000
   247  O2    s     0.350799    0.375426    0.367429    0.000000
   248  O2    s     0.032880    0.650491    0.034603    0.000000
   249  O2    s     0.629430    0.958049    0.700969    0.000000
   250  O3    s     0.668655    0.616221    0.866038    0.000000
   251  O2    s     0.976330    0.337826    0.532149    0.000000
   252  O2    s     0.376746    0.027834    0.199617    0.000000
   253  O2    s     0.773963    0.306296    0.015393    0.000000
   254  O2    s     0.697885    0.463833    0.348113    0.000000
   255  O2    s     0.544530    0.217778    0.681079    0.000000
   256  O2    s     0.235709    0.686342    0.516299    0.000000
   257  O3    s     0.303807    0.547809    0.847136    0.000000
   258  O3    s     0.449194    0.747913    0.179639    0.000000
   259  O2    s     0.323138    0.776640    0.320552    0.000000
   260  O2    s     0.461138    0.677862    0.988347    0.000000
   261  O2    s     0.230187    0.529325    0.655797    0.000000
   262  O2    s     0.706205    0.225338    0.820426    0.000000
   263  O2    s     0.546016    0.307629    0.487749    0.000000
   264  O2    s     0.768058    0.465699    0.154588    0.000000
   265  O2    s     0.786204    0.528391    0.032352    0.000000
   266  O2    s     0.477107    0.254281    0.365437    0.000000
   267  O2    s     0.752773    0.204804    0.698230    0.000000
   268  O2    s     0.223426    0.465389    0.533123    0.000000
   269  O3    s     0.523263    0.739521    0.863697    0.000000
   270  O2    s     0.261336    0.781759    0.199925    0.000000
   271  O2    s     0.541029    0.789135    0.303943    0.000000
   272  O2    s     0.255978    0.460776    0.969642    0.000000
   273  O2    s     0.216620    0.737443    0.639046    0.000000
   274  O2    s     0.485937    0.217380    0.804319    0.000000
   275  O2    s     0.753582    0.528441    0.471186    0.000000
   276  O2    s     0.778286    0.254760    0.138772    0.000000
   277  O3    s     0.228945    0.312893    0.903971    0.000000
   278  O3    s     0.690028    0.904581    0.238131    0.000000
   279  O2    s     0.101498    0.754985    0.567485    0.000000
   280  O2    s     0.770298    0.663726    0.401403    0.000000
   281  O2    s     0.346006    0.099066    0.734311    0.000000
   282  O2    s     0.894152    0.229020    0.068951    0.000000
   283  O2    s     0.344138    0.240102    0.437042    0.000000
   284  O2    s     0.905655    0.663678    0.103955    0.000000
   285  O2    s     0.768044    0.086864    0.769972    0.000000
   286  O3    s     0.663659    0.759920    0.940035    0.000000
   287  O2    s     0.101982    0.330009    0.602943    0.000000
   288  O2    s     0.250912    0.901806    0.269478    0.000000
   289  O2    s     0.577889    0.552391    0.984263    0.000000
   290  O2    s     0.452986    0.018460    0.318891    0.000000
   291  O2    s     0.984832    0.414128    0.655098    0.000000
   292  O2    s     0.430974    0.438669    0.490705    0.000000
   293  O2    s     0.568727    0.980575    0.824047    0.000000
   294  O2    s     0.013377    0.573535    0.157946    0.000000
   295  O2    s     0.569457    0.582275    0.348797    0.000000
   296  O2    s     0.020152    0.429741    0.017070    0.000000
   297  O2    s     0.422909    0.971639    0.682998    0.000000
   298  O3    s     0.461984    0.419086    0.841540    0.000000
   299  O2    s     0.988842    0.555886    0.513224    0.000000
   300  O3    s     0.583134    0.032031    0.175632    0.000000
   301  O2    s     0.584285    0.148944    0.249367    0.000000
   302  O2    s     0.856448    0.420035    0.583425    0.000000
   303  O2    s     0.573128    0.414049    0.915779    0.000000
   304  O2    s     0.430336    0.847247    0.754426    0.000000
   305  O2    s     0.146049    0.566257    0.088082    0.000000
   306  O2    s     0.433283    0.574075    0.420382    0.000000
   307  F     s     0.492397    0.898952    0.237789    0.000000
   308  F     s     0.106788    0.545649    0.583868    0.000000
   309  F     s     0.422953    0.515705    0.903551    0.000000
   310  F     s     0.561719    0.097551    0.751718    0.000000
   311  F     s     0.895960    0.447692    0.085632    0.000000
   312  F     s     0.558227    0.448229    0.417505    0.000000
--------------------------------------------------------------------------------

  Final Cartesian lattice vectors (Angstroms) :

       11.954461    0.002787   -0.001614
       -5.989600   10.400101   -0.003372
        0.085022   -0.215188   29.320035


  Final cell parameters and derivatives :

--------------------------------------------------------------------------------
       a           11.954461 Angstrom     dE/de1(xx)     0.001255 eV/strain
       b           12.001559 Angstrom     dE/de2(yy)     0.001360 eV/strain
       c           29.320948 Angstrom     dE/de3(zz)     0.001436 eV/strain
       alpha       90.463405 Degrees      dE/de4(yz)     0.000041 eV/strain
       beta        89.841692 Degrees      dE/de5(xz)     0.000123 eV/strain
       gamma      119.925034 Degrees      dE/de6(xy)    -0.000008 eV/strain
--------------------------------------------------------------------------------

  Primitive cell volume =          3645.769460 Angs**3

  Density of cell =      1.754936 g/cm**3

  Non-primitive cell volume =          3645.769460 Angs**3


  Final internal derivatives :

--------------------------------------------------------------------------------
   No.  Atomic          a             b             c           Radius
        Label          (eV)          (eV)          (eV)        (eV/Angs)
--------------------------------------------------------------------------------
      1 Si    c       0.000000      0.000000      0.000000      0.000000
      2 Si    c      -0.000078      0.000069      0.000126      0.000000
      3 Si    c       0.000056     -0.000072     -0.000123      0.000000
      4 Si    c      -0.000017     -0.000021      0.000102      0.000000
      5 Si    c      -0.000129      0.000073     -0.000071      0.000000
      6 Si    c       0.000182      0.000284      0.000327      0.000000
      7 Si    c       0.000033      0.000082     -0.000157      0.000000
      8 Si    c       0.000037     -0.000077     -0.000020      0.000000
      9 Si    c       0.000004     -0.000005      0.000035      0.000000
     10 Si    c       0.000164     -0.000120     -0.000302      0.000000
     11 Si    c      -0.000020      0.000018     -0.000088      0.000000
     12 Si    c      -0.000088      0.000262     -0.000409      0.000000
     13 Si    c       0.000224     -0.000173     -0.000022      0.000000
     14 Si    c      -0.000082      0.000080      0.000467      0.000000
     15 Si    c      -0.000007      0.000006      0.000092      0.000000
     16 Si    c      -0.000008      0.000015      0.000150      0.000000
     17 Si    c       0.000089     -0.000202      0.000249      0.000000
     18 Si    c      -0.000068      0.000071     -0.000195      0.000000
     19 Si    c       0.000007     -0.000016     -0.000305      0.000000
     20 Si    c      -0.000187     -0.000048     -0.000289      0.000000
     21 Si    c       0.000013      0.000078     -0.000240      0.000000
     22 Si    c      -0.000012     -0.000120      0.000323      0.000000
     23 Si    c      -0.000027      0.000025     -0.000072      0.000000
     24 Si    c       0.000021     -0.000007      0.000174      0.000000
     25 Ge    c      -0.000285     -0.000104     -0.000175      0.000000
     26 Ge    c      -0.000387     -0.000011      0.000962      0.000000
     27 Si    c      -0.000077      0.000074     -0.000160      0.000000
     28 Si    c       0.000004      0.000031     -0.000115      0.000000
     29 Si    c      -0.000056     -0.000025     -0.000092      0.000000
     30 Si    c       0.000054      0.000055     -0.000250      0.000000
     31 Si    c      -0.000058      0.000001      0.000168      0.000000
     32 Si    c      -0.000025      0.000096      0.000157      0.000000
     33 Si    c       0.000081     -0.000054     -0.000129      0.000000
     34 Si    c      -0.000022      0.000035      0.000273      0.000000
     35 Si    c       0.000046     -0.000065      0.000123      0.000000
     36 Si    c      -0.000088      0.000079      0.000216      0.000000
     37 Si    c      -0.000048     -0.000023     -0.000045      0.000000
     38 Si    c       0.000156     -0.000107      0.000523      0.000000
     39 Si    c      -0.000061      0.000082      0.000049      0.000000
     40 Si    c       0.000024      0.000049      0.000134      0.000000
     41 Si    c      -0.000200      0.000112     -0.000042      0.000000
     42 Si    c       0.000113     -0.000136     -0.000059      0.000000
     43 Si    c      -0.000044     -0.000009     -0.000145      0.000000
     44 Si    c       0.000179     -0.000177     -0.000080      0.000000
     45 Si    c       0.000068     -0.000069     -0.000045      0.000000
     46 Ge    c       0.000025      0.000002      0.000295      0.000000
     47 Si    c       0.000056     -0.000076     -0.000053      0.000000
     48 Si    c      -0.000031      0.000009      0.000071      0.000000
     49 Si    c      -0.000154      0.000020     -0.000742      0.000000
     50 Si    c      -0.000031     -0.000072      0.000010      0.000000
     51 Si    c       0.000054     -0.000045      0.000187      0.000000
     52 Si    c       0.000026     -0.000031      0.000141      0.000000
     53 Si    c      -0.000092      0.000008      0.000051      0.000000
     54 Si    c       0.000203      0.000079      0.000133      0.000000
     55 Si    c       0.000147     -0.000029     -0.000210      0.000000
     56 Si    c      -0.000061     -0.000002     -0.000300      0.000000
     57 Si    c       0.000008      0.000021      0.000223      0.000000
     58 Si    c       0.000019      0.000378      0.000154      0.000000
     59 Si    c       0.000007     -0.000011     -0.000121      0.000000
     60 Si    c      -0.000198      0.000061     -0.000485      0.000000
     61 O2    c      -0.000026     -0.000032      0.000148      0.000000
     62 O2    c      -0.000140      0.000090     -0.000109      0.000000
     63 O2    c      -0.000022      0.000017      0.000013      0.000000
     64 O2    c      -0.000000     -0.000002     -0.000004      0.000000
     65 O2    c      -0.000188      0.000038      0.000252      0.000000
     66 O2    c       0.000220     -0.000074      0.000319      0.000000
     67 O2    c       0.000015     -0.000096      0.000351      0.000000
     68 O2    c       0.000049     -0.000024      0.000036      0.000000
     69 O2    c      -0.000065      0.000067      0.000150      0.000000
     70 O2    c      -0.000050      0.000375      0.000419      0.000000
     71 O2    c      -0.000376      0.000054      0.000183      0.000000
     72 O2    c       0.000115     -0.000108      0.000128      0.000000
     73 O2    c       0.000070     -0.000045      0.000015      0.000000
     74 O2    c      -0.000019      0.000057     -0.000114      0.000000
     75 O2    c       0.000085     -0.000131     -0.000455      0.000000
     76 O2    c       0.000139     -0.000045     -0.000229      0.000000
     77 O2    c      -0.000019     -0.000417     -0.000203      0.000000
     78 O2    c      -0.000067      0.000264     -0.000299      0.000000
     79 O2    c       0.000059      0.000061     -0.000080      0.000000
     80 O2    c       0.000008     -0.000001     -0.000023      0.000000
     81 O2    c       0.000006     -0.000005     -0.000008      0.000000
     82 O2    c      -0.000009      0.000001      0.000011      0.000000
     83 O2    c       0.000324     -0.000219      0.000042      0.000000
     84 O2    c      -0.000105      0.000186      0.000131      0.000000
     85 O2    c      -0.000003     -0.000014     -0.000007      0.000000
     86 O2    c       0.000029     -0.000003     -0.000005      0.000000
     87 O2    c       0.000009     -0.000008      0.000036      0.000000
     88 O3    c       0.000091     -0.000525      0.000019      0.000000
     89 O2    c      -0.000026      0.000030     -0.000013      0.000000
     90 O2    c       0.000331     -0.000105     -0.000161      0.000000
     91 O2    c       0.000034      0.000125      0.000938      0.000000
     92 O2    c      -0.000040      0.000041     -0.000164      0.000000
     93 O2    c       0.000112      0.000049      0.001008      0.000000
     94 O2    c      -0.000060      0.000014     -0.000527      0.000000
     95 O2    c       0.000047     -0.000025     -0.000321      0.000000
     96 O2    c      -0.000099      0.000030      0.000228      0.000000
     97 O2    c       0.000022     -0.000035     -0.000024      0.000000
     98 O2    c       0.000008      0.000037     -0.000003      0.000000
     99 O2    c       0.000005      0.000000     -0.000009      0.000000
    100 O2    c       0.000033     -0.000026      0.000001      0.000000
    101 O3    c      -0.000030      0.000190      0.000103      0.000000
    102 O3    c      -0.000360     -0.000197      0.000081      0.000000
    103 O2    c       0.000036     -0.000031     -0.000092      0.000000
    104 O2    c       0.000063      0.000026      0.000143      0.000000
    105 O2    c       0.000011     -0.000041      0.000027      0.000000
    106 O2    c       0.000185     -0.000184      0.000098      0.000000
    107 O2    c       0.000026     -0.000005     -0.000028      0.000000
    108 O2    c      -0.000039     -0.000199     -0.000076      0.000000
    109 O2    c      -0.000002     -0.000083      0.000051      0.000000
    110 O2    c       0.000053     -0.000000     -0.000030      0.000000
    111 O2    c      -0.000034      0.000035     -0.000039      0.000000
    112 O2    c       0.000002      0.000085      0.000165      0.000000
    113 O2    c      -0.000145      0.000049      0.000400      0.000000
    114 O2    c       0.000073     -0.000066      0.000120      0.000000
    115 O2    c      -0.000122      0.000011     -0.000028      0.000000
    116 O2    c      -0.000028      0.000101      0.000111      0.000000
    117 O2    c      -0.000026     -0.000023      0.000031      0.000000
    118 O2    c      -0.000028      0.000023      0.000031      0.000000
    119 O2    c      -0.000022     -0.000022     -0.000001      0.000000
    120 O2    c       0.000025     -0.000121      0.000019      0.000000
    121 O2    c      -0.000014      0.000040     -0.000024      0.000000
    122 O2    c       0.000025     -0.000056     -0.000041      0.000000
    123 O2    c      -0.000063     -0.000026     -0.000060      0.000000
    124 O3    c       0.000034      0.000228     -0.000225      0.000000
    125 O2    c      -0.000021     -0.000017     -0.000056      0.000000
    126 O2    c      -0.000078      0.000005      0.000089      0.000000
    127 O2    c      -0.000206      0.000244     -0.000243      0.000000
    128 O2    c       0.000033     -0.000049     -0.000048      0.000000
    129 O2    c       0.000035      0.000055     -0.000110      0.000000
    130 O2    c       0.000081     -0.000013     -0.000067      0.000000
    131 O3    c      -0.000140      0.000116     -0.000048      0.000000
    132 O3    c      -0.000013     -0.000072      0.000093      0.000000
    133 O2    c       0.000085     -0.000190      0.000043      0.000000
    134 O2    c      -0.000230      0.000126     -0.000087      0.000000
    135 O2    c       0.000031      0.000023      0.000034      0.000000
    136 O2    c       0.000081     -0.000036      0.000072      0.000000
    137 O2    c       0.000079     -0.000065      0.000035      0.000000
    138 O2    c      -0.000078     -0.000025      0.000097      0.000000
    139 O2    c      -0.000013     -0.000152     -0.000265      0.000000
    140 O2    c       0.000072     -0.000060     -0.000082      0.000000
    141 O2    c      -0.000085      0.000157     -0.000149      0.000000
    142 O2    c       0.000043      0.000013     -0.000071      0.000000
    143 O3    c       0.000122      0.000063     -0.000164      0.000000
    144 O2    c       0.000020     -0.000083     -0.000126      0.000000
    145 O2    c      -0.000014     -0.000017      0.000080      0.000000
    146 O2    c      -0.000006     -0.000048      0.000064      0.000000
    147 O2    c       0.000049     -0.000000      0.000125      0.000000
    148 O2    c      -0.000025      0.000074      0.000177      0.000000
    149 O2    c       0.000057     -0.000065      0.000093      0.000000
    150 O2    c      -0.000047     -0.000044      0.000255      0.000000
    151 O3    c       0.000220     -0.000074     -0.000116      0.000000
    152 O3    c       0.000273     -0.000004     -0.000258      0.000000
    153 O2    c      -0.000025      0.000053     -0.000005      0.000000
    154 O2    c       0.000025      0.000028     -0.000139      0.000000
    155 O2    c      -0.000043      0.000033     -0.000102      0.000000
    156 O2    c       0.000049     -0.000133      0.000470      0.000000
    157 O2    c      -0.000032     -0.000035     -0.000064      0.000000
    158 O2    c      -0.000037      0.000055      0.000065      0.000000
    159 O2    c       0.000007      0.000001      0.000259      0.000000
    160 O3    c       0.000204      0.000073     -0.001545      0.000000
    161 O2    c       0.000026     -0.000051      0.000027      0.000000
    162 O2    c      -0.000099      0.000036     -0.000408      0.000000
    163 O2    c       0.000032     -0.000226      0.000186      0.000000
    164 O2    c       0.000100      0.000056      0.000034      0.000000
    165 O2    c      -0.000067      0.000030      0.000076      0.000000
    166 O2    c      -0.000022      0.000029      0.000052      0.000000
    167 O2    c       0.000031     -0.000011      0.000075      0.000000
    168 O2    c       0.000114     -0.000043      0.000209      0.000000
    169 O2    c      -0.000045      0.000017     -0.000025      0.000000
    170 O2    c       0.000076      0.000177      0.000144      0.000000
    171 O2    c       0.000063     -0.000082      0.000005      0.000000
    172 O3    c       0.000167     -0.000278     -0.000374      0.000000
    173 O2    c      -0.000022     -0.000008     -0.000075      0.000000
    174 O3    c       0.000008      0.000237     -0.001111      0.000000
    175 O2    c      -0.000034      0.000102     -0.000248      0.000000
    176 O2    c      -0.000036     -0.000007     -0.000031      0.000000
    177 O2    c       0.000091     -0.000004      0.000030      0.000000
    178 O2    c      -0.000034     -0.000016      0.000293      0.000000
    179 O2    c       0.000086     -0.000026      0.000161      0.000000
    180 O2    c      -0.000052      0.000064      0.000133      0.000000
    181 F     c       0.000077     -0.000118     -0.000337      0.000000
    182 F     c      -0.000006      0.000001      0.000003      0.000000
    183 F     c      -0.000020      0.000003      0.000259      0.000000
    184 F     c      -0.000030      0.000010     -0.000098      0.000000
    185 F     c       0.000053      0.000015     -0.000138      0.000000
    186 F     c      -0.000009      0.000000      0.000002      0.000000
    187 O2    s       0.000007      0.000055     -0.000136      0.000000
    188 O2    s      -0.000029      0.000055     -0.000046      0.000000
    189 O2    s      -0.000022     -0.000005      0.000076      0.000000
    190 O2    s      -0.000004      0.000001      0.000030      0.000000
    191 O2    s      -0.000039     -0.000017     -0.000018      0.000000
    192 O2    s      -0.000052      0.000056     -0.000222      0.000000
    193 O2    s      -0.000031     -0.000032      0.000029      0.000000
    194 O2    s       0.000036     -0.000056      0.000054      0.000000
    195 O2    s       0.000025      0.000087     -0.000040      0.000000
    196 O2    s      -0.000027     -0.000182     -0.000181      0.000000
    197 O2    s       0.000214     -0.000016     -0.000186      0.000000
    198 O2    s      -0.000023      0.000007      0.000009      0.000000
    199 O2    s      -0.000181      0.000080      0.000008      0.000000
    200 O2    s      -0.000030      0.000058      0.000028      0.000000
    201 O2    s       0.000049      0.000017      0.000011      0.000000
    202 O2    s      -0.000009      0.000020      0.000003      0.000000
    203 O2    s       0.000017      0.000042      0.000130      0.000000
    204 O2    s      -0.000040     -0.000136      0.000001      0.000000
    205 O2    s      -0.000065     -0.000017      0.000023      0.000000
    206 O2    s       0.000017      0.000015      0.000284      0.000000
    207 O2    s      -0.000048      0.000015      0.000094      0.000000
    208 O2    s      -0.000017      0.000009      0.000157      0.000000
    209 O2    s      -0.000015     -0.000063      0.000191      0.000000
    210 O2    s       0.000022      0.000134      0.000072      0.000000
    211 O2    s      -0.000041      0.000065     -0.000071      0.000000
    212 O2    s       0.000033      0.000072     -0.000265      0.000000
    213 O2    s       0.000083     -0.000030     -0.000180      0.000000
    214 O3    s       0.000085      0.000154     -0.000148      0.000000
    215 O2    s      -0.000007     -0.000011     -0.000107      0.000000
    216 O2    s       0.000062      0.000071     -0.000257      0.000000
    217 O2    s      -0.000071      0.000054     -0.000074      0.000000
    218 O2    s      -0.000000     -0.000024      0.000026      0.000000
    219 O2    s       0.000001     -0.000004     -0.000327      0.000000
    220 O2    s      -0.000029     -0.000030     -0.000094      0.000000
    221 O2    s       0.000088     -0.000062     -0.000115      0.000000
    222 O2    s       0.000053     -0.000001      0.000084      0.000000
    223 O2    s       0.000089     -0.000098     -0.000328      0.000000
    224 O2    s       0.000014     -0.000036     -0.000101      0.000000
    225 O2    s      -0.000001      0.000020     -0.000073      0.000000
    226 O2    s       0.000008      0.000019     -0.000054      0.000000
    227 O3    s      -0.000098      0.000111      0.000035      0.000000
    228 O3    s       0.000044     -0.000138      0.000036      0.000000
    229 O2    s       0.000013     -0.000045      0.000244      0.000000
    230 O2    s      -0.000043      0.000049      0.000376      0.000000
    231 O2    s       0.000006     -0.000018      0.000126      0.000000
    232 O2    s      -0.000146      0.000107     -0.000065      0.000000
    233 O2    s       0.000017     -0.000020      0.000106      0.000000
    234 O2    s      -0.000107     -0.000028     -0.000109      0.000000
    235 O2    s       0.000004     -0.000091      0.000115      0.000000
    236 O2    s       0.000022      0.000000      0.000030      0.000000
    237 O2    s      -0.000014      0.000046     -0.000181      0.000000
    238 O2    s      -0.000044     -0.000028     -0.000088      0.000000
    239 O2    s       0.000199     -0.000070     -0.000102      0.000000
    240 O2    s       0.000046     -0.000039      0.000024      0.000000
    241 O2    s       0.000030     -0.000073      0.000101      0.000000
    242 O2    s       0.000007      0.000007     -0.000098      0.000000
    243 O2    s      -0.000032      0.000032      0.000048      0.000000
    244 O2    s      -0.000035      0.000027      0.000065      0.000000
    245 O2    s       0.000049     -0.000033      0.000115      0.000000
    246 O2    s      -0.000071      0.000070     -0.000008      0.000000
    247 O2    s      -0.000042      0.000011     -0.000026      0.000000
    248 O2    s       0.000096      0.000133     -0.000094      0.000000
    249 O2    s       0.000091     -0.000118     -0.000113      0.000000
    250 O3    s      -0.000060     -0.000065     -0.000132      0.000000
    251 O2    s      -0.000010      0.000000     -0.000039      0.000000
    252 O2    s       0.000026     -0.000001     -0.000207      0.000000
    253 O2    s       0.000016     -0.000261     -0.000053      0.000000
    254 O2    s       0.000006      0.000039     -0.000181      0.000000
    255 O2    s      -0.000058      0.000038     -0.000056      0.000000
    256 O2    s      -0.000028      0.000019     -0.000097      0.000000
    257 O3    s       0.000100     -0.000096     -0.000237      0.000000
    258 O3    s       0.000185     -0.000033     -0.000662      0.000000
    259 O2    s      -0.000052      0.000024      0.000301      0.000000
    260 O2    s      -0.000132      0.000179      0.000339      0.000000
    261 O2    s       0.000022     -0.000025      0.000135      0.000000
    262 O2    s      -0.000026      0.000029      0.000275      0.000000
    263 O2    s      -0.000024      0.000013      0.000135      0.000000
    264 O2    s      -0.000017     -0.000003      0.000259      0.000000
    265 O2    s      -0.000294      0.000305     -0.000081      0.000000
    266 O2    s      -0.000083      0.000039     -0.000048      0.000000
    267 O2    s       0.000072      0.000006     -0.000098      0.000000
    268 O2    s      -0.000019     -0.000021     -0.000033      0.000000
    269 O3    s      -0.000071     -0.000073      0.000278      0.000000
    270 O2    s      -0.000087      0.000109      0.000183      0.000000
    271 O2    s       0.000076     -0.000008     -0.000074      0.000000
    272 O2    s       0.000059     -0.000057     -0.000079      0.000000
    273 O2    s      -0.000036      0.000024     -0.000010      0.000000
    274 O2    s       0.000075     -0.000051     -0.000038      0.000000
    275 O2    s      -0.000025      0.000016      0.000022      0.000000
    276 O2    s      -0.000092      0.000170     -0.000186      0.000000
    277 O3    s      -0.000349      0.000121      0.000222      0.000000
    278 O3    s      -0.000266     -0.000042     -0.000167      0.000000
    279 O2    s      -0.000007     -0.000006      0.000006      0.000000
    280 O2    s      -0.000013      0.000007      0.000048      0.000000
    281 O2    s      -0.000003     -0.000004      0.000037      0.000000
    282 O2    s       0.000000     -0.000016      0.000174      0.000000
    283 O2    s      -0.000014      0.000018      0.000098      0.000000
    284 O2    s      -0.000017      0.000059      0.000137      0.000000
    285 O2    s       0.000042     -0.000061      0.000072      0.000000
    286 O3    s       0.000047      0.000002      0.000166      0.000000
    287 O2    s      -0.000012      0.000014     -0.000022      0.000000
    288 O2    s      -0.000071      0.000049     -0.000061      0.000000
    289 O2    s       0.000178     -0.000111      0.000471      0.000000
    290 O2    s       0.000017      0.000066      0.000073      0.000000
    291 O2    s      -0.000002     -0.000005      0.000026      0.000000
    292 O2    s      -0.000006      0.000036      0.000037      0.000000
    293 O2    s      -0.000088      0.000040     -0.000006      0.000000
    294 O2    s      -0.000004     -0.000061     -0.000082      0.000000
    295 O2    s      -0.000008      0.000022     -0.000048      0.000000
    296 O2    s       0.000224     -0.000143     -0.000492      0.000000
    297 O2    s      -0.000092      0.000016     -0.000135      0.000000
    298 O3    s       0.000035      0.000172      0.000226      0.000000
    299 O2    s      -0.000014     -0.000010     -0.000027      0.000000
    300 O3    s       0.000010     -0.000223      0.000840      0.000000
    301 O2    s       0.000076     -0.000063      0.000036      0.000000
    302 O2    s      -0.000025      0.000013     -0.000028      0.000000
    303 O2    s      -0.000015      0.000002     -0.000079      0.000000
    304 O2    s       0.000003     -0.000058      0.000101      0.000000
    305 O2    s      -0.000015      0.000037      0.000006      0.000000
    306 O2    s       0.000016     -0.000019      0.000045      0.000000
    307 F     s       0.000189      0.000027     -0.000244      0.000000
    308 F     s       0.000007     -0.000001     -0.000005      0.000000
    309 F     s       0.000095      0.000088     -0.000081      0.000000
    310 F     s       0.000023      0.000008      0.000226      0.000000
    311 F     s      -0.000096     -0.000057      0.000396      0.000000
    312 F     s       0.000010      0.000011      0.000028      0.000000
--------------------------------------------------------------------------------
  Maximum abs         0.000387      0.000525      0.001545      0.000000
--------------------------------------------------------------------------------


  Time to end of optimisation =       7.0375 seconds


  Peak dynamic memory used =      19.13 MB 


  Timing analysis for GULP :

--------------------------------------------------------------------------------
  Task / Subroutine                                          Time (Seconds)
--------------------------------------------------------------------------------
  Calculation of reciprocal space energy and derivatives          0.2799
  Calculation of real space energy and derivatives                5.8754
  Calculation of three-body energy and derivatives                0.6566
  Calculation of matrix inversion                                 0.1922
--------------------------------------------------------------------------------
  Total CPU time                                                  7.0376
--------------------------------------------------------------------------------


  Dump file written as out.res                                                 
  CIF file written as out.cif                                                 


  Job Finished at 08:45.22 27th November   2016                               

