********************************************************************************
*                       GENERAL UTILITY LATTICE PROGRAM                        *
*                                 Julian Gale                                  *
*                      Nanochemistry Research Institute                        *
*                           Department of Chemistry                            *
*                    Curtin University, Western Australia                      *
********************************************************************************
* Version = 4.2.0 * Last modified =  20th January 2014                         *
********************************************************************************
*  optimise     - perform optimisation run                                     *
*  conp         - constant pressure calculation                                *
*  qok          - running with non charge neutral cell is OK                   *
********************************************************************************

  Job Started  at 19:06.06 26th November   2016                               

  Number of CPUs =     1


  Total number of configurations input =   1

********************************************************************************
*  Input for Configuration =   1                                               *
********************************************************************************

  Formula = Si57Ge3O120F6                                               

  Number of irreducible atoms/shells =     312


  Total number atoms/shells =     312

  Dimensionality = 3               :  Bulk   


  Charge on solid   =  -6.000000 =>neutralising background added


  Cartesian lattice vectors (Angstroms) :

       11.901070    0.000000    0.000000
       -5.988469   10.405455    0.000000
       -0.156944   -0.094795   29.502032

  Cell parameters (Angstroms/Degrees):

  a =      11.9011    alpha =  90.0075
  b =      12.0056    beta  =  90.3048
  c =      29.5026    gamma = 119.9210

  Initial cell volume =        3653.415008 Angs**3

  Temperature of configuration =  0.000     K 

  Pressure of configuration =         0.000 GPa 

  Fractional coordinates of asymmetric unit :

--------------------------------------------------------------------------------
   No.  Atomic       x           y          z         Charge      Occupancy
        Label      (Frac)      (Frac)     (Frac)        (e)         (Frac)  
--------------------------------------------------------------------------------
      1 Si    c    0.699600    0.375700    0.033890     4.00000    1.000000    
      2 Si    c    0.620023 *  0.325524 *  0.367055 *   4.00000    1.000000    
      3 Si    c    0.678095 *  0.300882 *  0.699273 *   4.00000    1.000000    
      4 Si    c    0.296382 *  0.621805 *  0.533223 *   4.00000    1.000000    
      5 Si    c    0.376760 *  0.674991 *  0.864639 *   4.00000    1.000000    
      6 Si    c    0.320032 *  0.695894 *  0.198126 *   4.00000    1.000000    
      7 Si    c    0.374224 *  0.700236 *  0.300912 *   4.00000    1.000000    
      8 Si    c    0.319484 *  0.616331 *  0.966336 *   4.00000    1.000000    
      9 Si    c    0.296051 *  0.675772 *  0.633619 *   4.00000    1.000000    
     10 Si    c    0.633161 *  0.306161 *  0.801766 *   4.00000    1.000000    
     11 Si    c    0.674696 *  0.379702 *  0.467538 *   4.00000    1.000000    
     12 Si    c    0.710250 *  0.327887 *  0.133924 *   4.00000    1.000000    
     13 Si    c    0.529598 *  0.412215 *  0.966776 *   4.00000    1.000000    
     14 Si    c    0.582397 *  0.115774 *  0.302230 *   4.00000    1.000000    
     15 Si    c    0.888409 *  0.471421 *  0.633877 *   4.00000    1.000000    
     16 Si    c    0.466858 *  0.582478 *  0.467938 *   4.00000    1.000000    
     17 Si    c    0.414077 *  0.887609 *  0.801607 *   4.00000    1.000000    
     18 Si    c    0.116535 *  0.525038 *  0.133051 *   4.00000    1.000000    
     19 Si    c    0.415930 *  0.529928 *  0.366352 *   4.00000    1.000000    
     20 Si    c    0.111389 *  0.577976 *  0.031979 *   4.00000    1.000000    
     21 Si    c    0.466853 *  0.886353 *  0.698848 *   4.00000    1.000000    
     22 Si    c    0.595875 *  0.472019 *  0.864822 *   4.00000    1.000000    
     23 Si    c    0.886192 *  0.419228 *  0.532568 *   4.00000    1.000000    
     24 Si    c    0.532445 *  0.121519 *  0.198660 *   4.00000    1.000000    
     25 Ge    c    0.317610 *  0.406081 *  0.856493 *   4.00000    1.000000    
     26 Si    c    0.602167 *  0.906925 *  0.184245 *   4.00000    1.000000    
     27 Si    c    0.094436 *  0.699158 *  0.518280 *   4.00000    1.000000    
     28 Si    c    0.698176 *  0.602930 *  0.352317 *   4.00000    1.000000    
     29 Si    c    0.395897 *  0.099244 *  0.682515 *   4.00000    1.000000    
     30 Si    c    0.901399 *  0.298292 *  0.018184 *   4.00000    1.000000    
     31 Si    c    0.395004 *  0.302233 *  0.482357 *   4.00000    1.000000    
     32 Si    c    0.912314 *  0.604723 *  0.149230 *   4.00000    1.000000    
     33 Si    c    0.701859 *  0.095496 *  0.816175 *   4.00000    1.000000    
     34 Si    c    0.602434 *  0.696350 *  0.982286 *   4.00000    1.000000    
     35 Si    c    0.096991 *  0.397128 *  0.648542 *   4.00000    1.000000    
     36 Si    c    0.296276 *  0.903003 *  0.318654 *   4.00000    1.000000    
     37 Si    c    0.244982 *  0.330217 *  0.952825 *   4.00000    1.000000    
     38 Si    c    0.661712 *  0.914200 *  0.286275 *   4.00000    1.000000    
     39 Si    c    0.087441 *  0.750313 *  0.618902 *   4.00000    1.000000    
     40 Si    c    0.746998 *  0.659797 *  0.453022 *   4.00000    1.000000    
     41 Ge    c    0.358815 *  0.097537 *  0.782288 *   4.00000    1.000000    
     42 Si    c    0.913563 *  0.247743 *  0.118403 *   4.00000    1.000000    
     43 Si    c    0.337509 *  0.252046 *  0.381500 *   4.00000    1.000000    
     44 Si    c    0.910949 *  0.656777 *  0.048402 *   4.00000    1.000000    
     45 Si    c    0.750305 *  0.087114 *  0.714310 *   4.00000    1.000000    
     46 Si    c    0.665342 *  0.750664 *  0.881091 *   4.00000    1.000000    
     47 Si    c    0.088164 *  0.341525 *  0.547651 *   4.00000    1.000000    
     48 Ge    c    0.267719 *  0.910122 *  0.218812 *   4.00000    1.000000    
     49 Si    c    0.968613 *  0.117643 *  0.969013 *   4.00000    1.000000    
     50 Si    c    0.879252 *  0.848042 *  0.300753 *   4.00000    1.000000    
     51 Si    c    0.148798 *  0.029566 *  0.633004 *   4.00000    1.000000    
     52 Si    c    0.025873 *  0.879224 *  0.468259 *   4.00000    1.000000    
     53 Si    c    0.131926 *  0.156353 *  0.801972 *   4.00000    1.000000    
     54 Si    c    0.851839 *  0.969194 *  0.135003 *   4.00000    1.000000    
     55 Si    c    0.120018 *  0.972200 *  0.368202 *   4.00000    1.000000    
     56 Si    c    0.849353 *  0.874805 *  0.034036 *   4.00000    1.000000    
     57 Si    c    0.033170 *  0.152187 *  0.700678 *   4.00000    1.000000    
     58 Si    c    0.885932 *  0.030381 *  0.866641 *   4.00000    1.000000    
     59 Si    c    0.146977 *  0.122741 *  0.532843 *   4.00000    1.000000    
     60 Si    c    0.981093 *  0.852609 *  0.200624 *   4.00000    1.000000    
     61 O2    c    0.924389 *  0.994975 *  0.001095 *   0.87073    1.000000    
     62 O2    c    0.000404 *  0.927959 *  0.333892 *   0.87073    1.000000    
     63 O2    c    0.073823 *  0.072551 *  0.667393 *   0.87073    1.000000    
     64 O2    c    0.067630 *  0.000713 *  0.500529 *   0.87073    1.000000    
     65 O2    c    0.005149 *  0.072060 *  0.833906 *   0.87073    1.000000    
     66 O2    c    0.928346 *  0.925985 *  0.168268 *   0.87073    1.000000    
     67 O2    c    0.339732 *  0.579134 *  0.333353 *   0.87073    1.000000    
     68 O2    c    0.419414 *  0.761344 *  0.666591 *   0.87073    1.000000    
     69 O2    c    0.236021 *  0.655254 *  0.999179 *   0.87073    1.000000    
     70 O2    c    0.685586 *  0.431616 *  0.835051 *   0.87073    1.000000    
     71 O2    c    0.590817 *  0.249445 *  0.168164 *   0.87073    1.000000    
     72 O2    c    0.759796 *  0.341339 *  0.500193 *   0.87073    1.000000    
     73 O2    c    0.576954 *  0.337752 *  0.000785 *   0.87073    1.000000    
     74 O2    c    0.763426 *  0.421876 *  0.666608 *   0.87073    1.000000    
     75 O2    c    0.659010 *  0.240599 *  0.334651 *   0.87073    1.000000    
     76 O2    c    0.419226 *  0.659764 *  0.500324 *   0.87073    1.000000    
     77 O2    c    0.243816 *  0.570603 *  0.165225 *   0.87073    1.000000    
     78 O2    c    0.342062 *  0.764740 *  0.834285 *   0.87073    1.000000    
     79 O2    c    0.122131 *  0.210140 *  0.977756 *   0.87073    1.000000    
     80 O2    c    0.786240 *  0.910729 *  0.306194 *   0.87073    1.000000    
     81 O2    c    0.085121 *  0.875317 *  0.638451 *   0.87073    1.000000    
     82 O2    c    0.871570 *  0.786093 *  0.473973 *   0.87073    1.000000    
     83 O3    c    0.219305 *  0.092247 *  0.805438 *   1.33043    1.000000    
     84 O2    c    0.915162 *  0.123230 *  0.138982 *   0.87073    1.000000    
     85 O2    c    0.210010 *  0.125984 *  0.361791 *   0.87073    1.000000    
     86 O2    c    0.911897 *  0.783403 *  0.028249 *   0.87073    1.000000    
     87 O2    c    0.877011 *  0.089864 *  0.693994 *   0.87073    1.000000    
     88 O2    c    0.791288 *  0.876128 *  0.861773 *   0.87073    1.000000    
     89 O2    c    0.086048 *  0.215589 *  0.526588 *   0.87073    1.000000    
     90 O3    c    0.130804 *  0.917736 *  0.196527 *   1.33043    1.000000    
     91 O2    c    0.928392 *  0.858793 *  0.250311 *   0.87073    1.000000    
     92 O2    c    0.128421 *  0.068944 *  0.583181 *   0.87073    1.000000    
     93 O2    c    0.934128 *  0.066657 *  0.918077 *   0.87073    1.000000    
     94 O2    c    0.070035 *  0.140870 *  0.751229 *   0.87073    1.000000    
     95 O2    c    0.862166 *  0.926496 *  0.084592 *   0.87073    1.000000    
     96 O2    c    0.061834 *  0.934038 *  0.417984 *   0.87073    1.000000    
     97 O2    c    0.896669 *  0.198719 *  0.979836 *   0.87073    1.000000    
     98 O2    c    0.795939 *  0.697864 *  0.313882 *   0.87073    1.000000    
     99 O2    c    0.303323 *  0.096369 *  0.640801 *   0.87073    1.000000    
    100 O2    c    0.096816 *  0.797761 *  0.479938 *   0.87073    1.000000    
    101 O3    c    0.208142 *  0.303605 *  0.814150 *   1.33043    1.000000    
    102 O2    c    0.699013 *  0.904126 *  0.146688 *   0.87073    1.000000    
    103 O2    c    0.207308 *  0.905315 *  0.360226 *   0.87073    1.000000    
    104 O2    c    0.696254 *  0.790499 *  0.021814 *   0.87073    1.000000    
    105 O2    c    0.100384 *  0.302487 *  0.686884 *   0.87073    1.000000    
    106 O2    c    0.799721 *  0.096723 *  0.854496 *   0.87073    1.000000    
    107 O2    c    0.299530 *  0.204398 *  0.520783 *   0.87073    1.000000    
    108 O2    c    0.913218 *  0.700211 *  0.187905 *   0.87073    1.000000    
    109 O2    c    0.320827 *  0.647036 *  0.250119 *   0.87073    1.000000    
    110 O2    c    0.354746 *  0.677851 *  0.583527 *   0.87073    1.000000    
    111 O2    c    0.322004 *  0.671325 *  0.916042 *   0.87073    1.000000    
    112 O2    c    0.680886 *  0.355608 *  0.749839 *   0.87073    1.000000    
    113 O2    c    0.645013 *  0.320788 *  0.084267 *   0.87073    1.000000    
    114 O2    c    0.676970 *  0.324308 *  0.417249 *   0.87073    1.000000    
    115 O2    c    0.373496 *  0.325482 *  0.969482 *   0.87073    1.000000    
    116 O2    c    0.667822 *  0.044213 *  0.304417 *   0.87073    1.000000    
    117 O2    c    0.955935 *  0.626821 *  0.637274 *   0.87073    1.000000    
    118 O2    c    0.623671 *  0.669799 *  0.470579 *   0.87073    1.000000    
    119 O3    c    0.323754 *  0.948662 *  0.806060 *   1.33043    1.000000    
    120 O2    c    0.048105 *  0.369659 *  0.135698 *   0.87073    1.000000    
    121 O2    c    0.328331 *  0.374381 *  0.362601 *   0.87073    1.000000    
    122 O2    c    0.041810 *  0.664698 *  0.028891 *   0.87073    1.000000    
    123 O2    c    0.624089 *  0.957384 *  0.696666 *   0.87073    1.000000    
    124 O2    c    0.677461 *  0.628636 *  0.865010 *   0.87073    1.000000    
    125 O2    c    0.954875 *  0.331774 *  0.529503 *   0.87073    1.000000    
    126 O3    c    0.379915 *  0.059231 *  0.194092 *   1.33043    1.000000    
    127 O2    c    0.767940 *  0.301238 *  0.011012 *   0.87073    1.000000    
    128 O2    c    0.695291 *  0.467835 *  0.344497 *   0.87073    1.000000    
    129 O2    c    0.534084 *  0.231816 *  0.677006 *   0.87073    1.000000    
    130 O2    c    0.228296 *  0.697421 *  0.510923 *   0.87073    1.000000    
    131 O3    c    0.301375 *  0.539502 *  0.840404 *   1.33043    1.000000    
    132 O2    c    0.467787 *  0.772758 *  0.178873 *   0.87073    1.000000    
    133 O2    c    0.300496 *  0.769681 *  0.323093 *   0.87073    1.000000    
    134 O2    c    0.465281 *  0.691023 *  0.987344 *   0.87073    1.000000    
    135 O2    c    0.229603 *  0.533189 *  0.655788 *   0.87073    1.000000    
    136 O2    c    0.704713 *  0.230486 *  0.821126 *   0.87073    1.000000    
    137 O2    c    0.530732 *  0.303910 *  0.489419 *   0.87073    1.000000    
    138 O2    c    0.777678 *  0.470784 *  0.155759 *   0.87073    1.000000    
    139 O2    c    0.781012 *  0.532156 *  0.029933 *   0.87073    1.000000    
    140 O2    c    0.463021 *  0.250092 *  0.361894 *   0.87073    1.000000    
    141 O2    c    0.742401 *  0.210112 *  0.697179 *   0.87073    1.000000    
    142 O2    c    0.214761 *  0.466371 *  0.528160 *   0.87073    1.000000    
    143 O2    c    0.535138 *  0.744064 *  0.862459 *   0.87073    1.000000    
    144 O3    c    0.238698 *  0.767438 *  0.191180 *   1.33043    1.000000    
    145 O2    c    0.529920 *  0.791487 *  0.303062 *   0.87073    1.000000    
    146 O2    c    0.251922 *  0.461976 *  0.970483 *   0.87073    1.000000    
    147 O2    c    0.214532 *  0.750697 *  0.638444 *   0.87073    1.000000    
    148 O3    c    0.480404 *  0.236351 *  0.809433 *   1.33043    1.000000    
    149 O2    c    0.747947 *  0.535017 *  0.472672 *   0.87073    1.000000    
    150 O2    c    0.788731 *  0.249614 *  0.138625 *   0.87073    1.000000    
    151 O3    c    0.216534 *  0.302205 *  0.900428 *   1.33043    1.000000    
    152 O2    c    0.672377 *  0.915463 *  0.232087 *   0.87073    1.000000    
    153 O2    c    0.089222 *  0.768565 *  0.564578 *   0.87073    1.000000    
    154 O2    c    0.768807 *  0.676781 *  0.398835 *   0.87073    1.000000    
    155 O3    c    0.314092 *  0.099578 *  0.724945 *   1.33043    1.000000    
    156 O2    c    0.907372 *  0.227425 *  0.064167 *   0.87073    1.000000    
    157 O2    c    0.320348 *  0.233469 *  0.435726 *   0.87073    1.000000    
    158 O2    c    0.915666 *  0.677563 *  0.102538 *   0.87073    1.000000    
    159 O2    c    0.762624 *  0.086461 *  0.768493 *   0.87073    1.000000    
    160 O2    c    0.673475 *  0.763328 *  0.935677 *   0.87073    1.000000    
    161 O2    c    0.092545 *  0.324143 *  0.601798 *   0.87073    1.000000    
    162 O3    c    0.216552 *  0.905825 *  0.275676 *   1.33043    1.000000    
    163 O2    c    0.582047 *  0.554572 *  0.987499 *   0.87073    1.000000    
    164 O2    c    0.440861 *  0.026532 *  0.324161 *   0.87073    1.000000    
    165 O2    c    0.970310 *  0.410881 *  0.656724 *   0.87073    1.000000    
    166 O2    c    0.410231 *  0.441821 *  0.490810 *   0.87073    1.000000    
    167 O2    c    0.559197 *  0.974879 *  0.823365 *   0.87073    1.000000    
    168 O2    c    0.034281 *  0.583040 *  0.156803 *   0.87073    1.000000    
    169 O2    c    0.558356 *  0.590969 *  0.343531 *   0.87073    1.000000    
    170 O2    c    0.027988 *  0.436738 *  0.009010 *   0.87073    1.000000    
    171 O2    c    0.413576 *  0.974359 *  0.676496 *   0.87073    1.000000    
    172 O3    c    0.461249 *  0.411773 *  0.838362 *   1.33043    1.000000    
    173 O2    c    0.968893 *  0.559794 *  0.509287 *   0.87073    1.000000    
    174 O2    c    0.583007 *  0.028918 *  0.176788 *   0.87073    1.000000    
    175 O2    c    0.581843 *  0.164635 *  0.251142 *   0.87073    1.000000    
    176 O2    c    0.832625 *  0.418830 *  0.583206 *   0.87073    1.000000    
    177 O2    c    0.585411 *  0.416165 *  0.916494 *   0.87073    1.000000    
    178 O2    c    0.417146 *  0.838057 *  0.749917 *   0.87073    1.000000    
    179 O2    c    0.168264 *  0.579415 *  0.082351 *   0.87073    1.000000    
    180 O2    c    0.413208 *  0.582047 *  0.416978 *   0.87073    1.000000    
    181 F     c    0.415962 *  0.907516 *  0.245462 *   0.56000    1.000000    
    182 F     c    0.094526 *  0.548448 *  0.583208 *   0.56000    1.000000    
    183 F     c    0.426550 *  0.516159 *  0.906465 *   0.56000    1.000000    
    184 F     c    0.512363 *  0.095846 *  0.754415 *   0.56000    1.000000    
    185 F     c    0.904773 *  0.448113 *  0.082765 *   0.56000    1.000000    
    186 F     c    0.546115 *  0.452920 *  0.416126 *   0.56000    1.000000    
    187 O2    s    0.920724 *  0.994864 *  0.001287 *  -2.87073    1.000000    
    188 O2    s    0.000158 *  0.923934 *  0.334018 *  -2.87073    1.000000    
    189 O2    s    0.077719 *  0.076496 *  0.667190 *  -2.87073    1.000000    
    190 O2    s    0.071836 *  0.000714 *  0.500516 *  -2.87073    1.000000    
    191 O2    s    0.003595 *  0.075478 *  0.834604 *  -2.87073    1.000000    
    192 O2    s    0.924951 *  0.923298 *  0.167792 *  -2.87073    1.000000    
    193 O2    s    0.351119 *  0.586917 *  0.333272 *  -2.87073    1.000000    
    194 O2    s    0.411697 *  0.765544 *  0.666535 *  -2.87073    1.000000    
    195 O2    s    0.231994 *  0.643247 *  0.999081 *  -2.87073    1.000000    
    196 O2    s    0.671824 *  0.423416 *  0.834722 *  -2.87073    1.000000    
    197 O2    s    0.597209 *  0.244038 *  0.167815 *  -2.87073    1.000000    
    198 O2    s    0.763969 *  0.353377 *  0.500119 *  -2.87073    1.000000    
    199 O2    s    0.584914 *  0.349502 *  0.000725 *  -2.87073    1.000000    
    200 O2    s    0.767312 *  0.414229 *  0.666690 *  -2.87073    1.000000    
    201 O2    s    0.647049 *  0.236190 *  0.334570 *  -2.87073    1.000000    
    202 O2    s    0.411563 *  0.647854 *  0.500352 *  -2.87073    1.000000    
    203 O2    s    0.238760 *  0.578577 *  0.165314 *  -2.87073    1.000000    
    204 O2    s    0.353662 *  0.768163 *  0.834105 *  -2.87073    1.000000    
    205 O2    s    0.118213 *  0.212378 *  0.974398 *  -2.87073    1.000000    
    206 O2    s    0.782297 *  0.904714 *  0.303522 *  -2.87073    1.000000    
    207 O2    s    0.091955 *  0.878292 *  0.635875 *  -2.87073    1.000000    
    208 O2    s    0.875001 *  0.782832 *  0.471212 *  -2.87073    1.000000    
    209 O3    s    0.219945 *  0.099539 *  0.803452 *  -3.33043    1.000000    
    210 O2    s    0.908274 *  0.119812 *  0.136458 *  -2.87073    1.000000    
    211 O2    s    0.213810 *  0.122969 *  0.364480 *  -2.87073    1.000000    
    212 O2    s    0.905108 *  0.780209 *  0.030896 *  -2.87073    1.000000    
    213 O2    s    0.879079 *  0.095841 *  0.696821 *  -2.87073    1.000000    
    214 O2    s    0.787513 *  0.878583 *  0.864330 *  -2.87073    1.000000    
    215 O2    s    0.092739 *  0.218750 *  0.529397 *  -2.87073    1.000000    
    216 O3    s    0.122736 *  0.909779 *  0.198451 *  -3.33043    1.000000    
    217 O2    s    0.928208 *  0.856872 *  0.250944 *  -2.87073    1.000000    
    218 O2    s    0.132810 *  0.070663 *  0.583005 *  -2.87073    1.000000    
    219 O2    s    0.932629 *  0.068338 *  0.918142 *  -2.87073    1.000000    
    220 O2    s    0.071756 *  0.143741 *  0.750243 *  -2.87073    1.000000    
    221 O2    s    0.859530 *  0.925370 *  0.084467 *  -2.87073    1.000000    
    222 O2    s    0.064363 *  0.932159 *  0.418031 *  -2.87073    1.000000    
    223 O2    s    0.904632 *  0.200324 *  0.982610 *  -2.87073    1.000000    
    224 O2    s    0.794645 *  0.703968 *  0.316476 *  -2.87073    1.000000    
    225 O2    s    0.296167 *  0.089598 *  0.644053 *  -2.87073    1.000000    
    226 O2    s    0.089080 *  0.796370 *  0.482589 *  -2.87073    1.000000    
    227 O3    s    0.207619 *  0.294972 *  0.815769 *  -3.33043    1.000000    
    228 O2    s    0.704641 *  0.911189 *  0.149435 *  -2.87073    1.000000    
    229 O2    s    0.207086 *  0.912074 *  0.356961 *  -2.87073    1.000000    
    230 O2    s    0.702207 *  0.789286 *  0.018914 *  -2.87073    1.000000    
    231 O2    s    0.093047 *  0.296777 *  0.684288 *  -2.87073    1.000000    
    232 O2    s    0.798265 *  0.089700 *  0.851698 *  -2.87073    1.000000    
    233 O2    s    0.293287 *  0.205850 *  0.518114 *  -2.87073    1.000000    
    234 O2    s    0.919879 *  0.705310 *  0.185085 *  -2.87073    1.000000    
    235 O2    s    0.326247 *  0.657328 *  0.250288 *  -2.87073    1.000000    
    236 O2    s    0.342826 *  0.671909 *  0.583471 *  -2.87073    1.000000    
    237 O2    s    0.327029 *  0.665819 *  0.916378 *  -2.87073    1.000000    
    238 O2    s    0.675867 *  0.345044 *  0.749684 *  -2.87073    1.000000    
    239 O2    s    0.657190 *  0.327156 *  0.084037 *  -2.87073    1.000000    
    240 O2    s    0.670878 *  0.330094 *  0.417211 *  -2.87073    1.000000    
    241 O2    s    0.376992 *  0.335123 *  0.967483 *  -2.87073    1.000000    
    242 O2    s    0.658487 *  0.037801 *  0.302282 *  -2.87073    1.000000    
    243 O2    s    0.962642 *  0.623607 *  0.635000 *  -2.87073    1.000000    
    244 O2    s    0.620371 *  0.659650 *  0.468433 *  -2.87073    1.000000    
    245 O3    s    0.335960 *  0.953153 *  0.803806 *  -3.33043    1.000000    
    246 O2    s    0.040986 *  0.372905 *  0.133579 *  -2.87073    1.000000    
    247 O2    s    0.338314 *  0.377736 *  0.364954 *  -2.87073    1.000000    
    248 O2    s    0.035261 *  0.654835 *  0.031263 *  -2.87073    1.000000    
    249 O2    s    0.621374 *  0.963853 *  0.698746 *  -2.87073    1.000000    
    250 O2    s    0.667892 *  0.625805 *  0.866733 *  -2.87073    1.000000    
    251 O2    s    0.961808 *  0.341906 *  0.531745 *  -2.87073    1.000000    
    252 O3    s    0.387729 *  0.054985 *  0.196373 *  -3.33043    1.000000    
    253 O2    s    0.775019 *  0.308560 *  0.014152 *  -2.87073    1.000000    
    254 O2    s    0.687816 *  0.467323 *  0.347672 *  -2.87073    1.000000    
    255 O2    s    0.535028 *  0.225526 *  0.679929 *  -2.87073    1.000000    
    256 O2    s    0.221195 *  0.689811 *  0.514029 *  -2.87073    1.000000    
    257 O3    s    0.310518 *  0.544136 *  0.844177 *  -3.33043    1.000000    
    258 O2    s    0.467180 *  0.779329 *  0.181426 *  -2.87073    1.000000    
    259 O2    s    0.307718 *  0.775946 *  0.320305 *  -2.87073    1.000000    
    260 O2    s    0.465074 *  0.683886 *  0.984626 *  -2.87073    1.000000    
    261 O2    s    0.222589 *  0.533696 *  0.652693 *  -2.87073    1.000000    
    262 O2    s    0.697069 *  0.223680 *  0.818567 *  -2.87073    1.000000    
    263 O2    s    0.531252 *  0.311583 *  0.486366 *  -2.87073    1.000000    
    264 O2    s    0.784804 *  0.469914 *  0.152736 *  -2.87073    1.000000    
    265 O2    s    0.786738 *  0.529656 *  0.032294 *  -2.87073    1.000000    
    266 O2    s    0.465850 *  0.258211 *  0.364496 *  -2.87073    1.000000    
    267 O2    s    0.736343 *  0.206260 *  0.699263 *  -2.87073    1.000000    
    268 O2    s    0.209508 *  0.469111 *  0.530767 *  -2.87073    1.000000    
    269 O2    s    0.533766 *  0.737813 *  0.864710 *  -2.87073    1.000000    
    270 O3    s    0.249280 *  0.770849 *  0.193911 *  -3.33043    1.000000    
    271 O2    s    0.527833 *  0.795333 *  0.301002 *  -2.87073    1.000000    
    272 O2    s    0.258509 *  0.464878 *  0.968223 *  -2.87073    1.000000    
    273 O2    s    0.209184 *  0.742788 *  0.635865 *  -2.87073    1.000000    
    274 O3    s    0.486870 *  0.232793 *  0.806631 *  -3.33043    1.000000    
    275 O2    s    0.740074 *  0.532342 *  0.470026 *  -2.87073    1.000000    
    276 O2    s    0.794172 *  0.257561 *  0.135984 *  -2.87073    1.000000    
    277 O3    s    0.226452 *  0.312234 *  0.902979 *  -3.33043    1.000000    
    278 O2    s    0.663768 *  0.914441 *  0.232947 *  -2.87073    1.000000    
    279 O2    s    0.089558 *  0.759311 *  0.565438 *  -2.87073    1.000000    
    280 O2    s    0.759084 *  0.667217 *  0.399663 *  -2.87073    1.000000    
    281 O3    s    0.325664 *  0.099433 *  0.724688 *  -3.33043    1.000000    
    282 O2    s    0.907388 *  0.236925 *  0.065157 *  -2.87073    1.000000    
    283 O2    s    0.330012 *  0.242681 *  0.434874 *  -2.87073    1.000000    
    284 O2    s    0.914828 *  0.667782 *  0.101600 *  -2.87073    1.000000    
    285 O2    s    0.754821 *  0.087462 *  0.767637 *  -2.87073    1.000000    
    286 O2    s    0.664987 *  0.754795 *  0.934960 *  -2.87073    1.000000    
    287 O2    s    0.092577 *  0.333648 *  0.600926 *  -2.87073    1.000000    
    288 O3    s    0.228284 *  0.905814 *  0.276083 *  -3.33043    1.000000    
    289 O2    s    0.578638 *  0.555219 *  0.984732 *  -2.87073    1.000000    
    290 O2    s    0.440839 *  0.023007 *  0.321241 *  -2.87073    1.000000    
    291 O2    s    0.975402 *  0.415863 *  0.653463 *  -2.87073    1.000000    
    292 O2    s    0.414675 *  0.441480 *  0.487501 *  -2.87073    1.000000    
    293 O2    s    0.560418 *  0.979605 *  0.820395 *  -2.87073    1.000000    
    294 O2    s    0.029569 *  0.578997 *  0.153466 *  -2.87073    1.000000    
    295 O2    s    0.558399 *  0.585768 *  0.346843 *  -2.87073    1.000000    
    296 O2    s    0.023024 *  0.436700 *  0.012383 *  -2.87073    1.000000    
    297 O2    s    0.417525 *  0.978153 *  0.679510 *  -2.87073    1.000000    
    298 O3    s    0.464442 *  0.417879 *  0.842449 *  -3.33043    1.000000    
    299 O2    s    0.973965 *  0.560179 *  0.512666 *  -2.87073    1.000000    
    300 O2    s    0.579915 *  0.024519 *  0.179773 *  -2.87073    1.000000    
    301 O2    s    0.577002 *  0.155173 *  0.251392 *  -2.87073    1.000000    
    302 O2    s    0.843975 *  0.424355 *  0.583216 *  -2.87073    1.000000    
    303 O2    s    0.580505 *  0.421167 *  0.916767 *  -2.87073    1.000000    
    304 O2    s    0.422106 *  0.848027 *  0.749585 *  -2.87073    1.000000    
    305 O2    s    0.157036 *  0.573653 *  0.082345 *  -2.87073    1.000000    
    306 O2    s    0.418962 *  0.576656 *  0.416944 *  -2.87073    1.000000    
    307 F     s    0.407440 *  0.907410 *  0.244037 *  -1.56000    1.000000    
    308 F     s    0.094862 *  0.548632 *  0.583189 *  -1.56000    1.000000    
    309 F     s    0.420713 *  0.510422 *  0.903950 *  -1.56000    1.000000    
    310 F     s    0.505477 *  0.096041 *  0.755550 *  -1.56000    1.000000    
    311 F     s    0.904193 *  0.447644 *  0.082723 *  -1.56000    1.000000    
    312 F     s    0.546307 *  0.452748 *  0.416007 *  -1.56000    1.000000    
--------------------------------------------------------------------------------



********************************************************************************
*  General input information                                                   *
********************************************************************************

  Species output for all configurations : 

--------------------------------------------------------------------------------
  Species    Type    Atomic    Atomic    Charge       Radii (Angs)     Library
                     Number     Mass       (e)     Cova   Ionic  VDW   Symbol
--------------------------------------------------------------------------------
    Si       Core       14      28.09   4.000000   1.200  0.000  2.100          
    O1       Core        8      16.00   1.733957   0.730  0.000  1.360          
    O1       Shell       8       0.00  -3.733957   0.730  0.000  1.360          
    O2       Core        8      16.00   0.870733   0.730  0.000  1.360          
    O2       Shell       8       0.00  -2.870733   0.730  0.000  1.360          
    O3       Core        8      16.00   1.330431   0.730  0.000  1.360          
    O3       Shell       8       0.00  -3.330431   0.730  0.000  1.360          
    F        Core        9      19.00   0.560000   0.710  0.000  1.300          
    F        Shell       9       0.00  -1.560000   0.710  0.000  1.300          
    Ge       Core       32      72.61   4.000000   1.170  0.000  1.750          
--------------------------------------------------------------------------------


  Lattice summation method               =    Ewald          (3-D)
                                         =    Parry          (2-D)
                                         =    Saunders et al (1-D)
  Accuracy factor for lattice sums       =   12.000


  Time limit = Infinity

  Maximum range for interatomic potentials =        16.000000 Angstroms

  Taper potentials to zero over   1.0000 Angstroms using polynomial

  General interatomic potentials :

--------------------------------------------------------------------------------
Atom  Types   Potential         A         B         C         D     Cutoffs(Ang)
  1     2                                                            Min    Max 
--------------------------------------------------------------------------------
Si   c O1   s Buckingham    0.132E+04 0.318      10.1      0.00     0.000 16.000
Si   c O2   s Buckingham    0.132E+04 0.318      10.1      0.00     0.000 16.000
Si   c O3   s Buckingham    0.132E+04 0.318      10.1      0.00     0.000 16.000
Ge   c O1   s Buckingham    0.150E+04 0.326      16.8      0.00     0.000 16.000
Ge   c O2   s Buckingham    0.150E+04 0.326      16.8      0.00     0.000 16.000
Ge   c O3   s Buckingham    0.150E+04 0.326      16.8      0.00     0.000 16.000
O1   s O1   s Buckingham    0.228E+05 0.149      10.9      0.00     0.000 16.000
O1   s O2   s Buckingham    0.228E+05 0.149      10.9      0.00     0.000 16.000
O1   s O3   s Buckingham    0.228E+05 0.149      10.9      0.00     0.000 16.000
O2   s O2   s Buckingham    0.228E+05 0.149      10.9      0.00     0.000 16.000
O2   s O3   s Buckingham    0.228E+05 0.149      10.9      0.00     0.000 16.000
O3   s O3   s Buckingham    0.228E+05 0.149      10.9      0.00     0.000 16.000
Si   c F    s Buckingham     977.     0.282      0.00      0.00     0.000 16.000
Ge   c F    s Buckingham     681.     0.320      0.00      0.00     0.000 16.000
F    s F    s Buckingham     540.     0.262      0.00      0.00     0.000 16.000
O1   s F    s Buckingham    0.168E+04 0.268      0.00      0.00     0.000 16.000
O2   s F    s Buckingham    0.168E+04 0.268      0.00      0.00     0.000 16.000
O3   s F    s Buckingham    0.168E+04 0.268      0.00      0.00     0.000 16.000
O2   c O2   s Spring (c-s)   76.0      0.00      0.00      0.00     0.000  0.800
O3   c O3   s Spring (c-s)   128.      0.00      0.00      0.00     0.000  0.800
O1   c O1   s Spring (c-s)   180.      0.00      0.00      0.00     0.000  0.800
F    c F    s Spring (c-s)   33.5      0.00      0.00      0.00     0.000  0.800
--------------------------------------------------------------------------------

  General Three-body potentials :

  Harmonic form:

--------------------------------------------------------------------------------
Atom    Atom    Atom           Force Constants            Theta     Cutoffs  
  1       2       3     (eVrad**-2/eVrad**-3/eVrad**-4)   (deg)  1-2  1-3  2-3
--------------------------------------------------------------------------------
Si    c O1    s O1    s  1.261        0.0000    0.0000   109.470 0.00 0.00 0.00
                                                                 1.90 1.90 3.50
Si    c O1    s O2    s  1.261        0.0000    0.0000   109.470 0.00 0.00 0.00
                                                                 1.90 1.90 3.50
Si    c O2    s O2    s  1.261        0.0000    0.0000   109.470 0.00 0.00 0.00
                                                                 1.90 1.90 3.50
--------------------------------------------------------------------------------

********************************************************************************
*  Output for configuration   1                                                *
********************************************************************************


  Components of energy : 

--------------------------------------------------------------------------------
  Interatomic potentials     =        2065.14293476 eV
  Three-body potentials      =           0.50344702 eV
  Monopole - monopole (real) =       -6613.42973458 eV
  Monopole - monopole (recip)=       -3172.32432666 eV
  Monopole - monopole (total)=       -9785.75406124 eV
  Neutralising energy        =          -6.46202959 eV
--------------------------------------------------------------------------------
  Total lattice energy       =       -7726.56970904 eV
--------------------------------------------------------------------------------
  Total lattice energy       =         -745495.8655 kJ/(mole unit cells)
--------------------------------------------------------------------------------


  Number of variables =      939

  Maximum number of calculations  =          1000
  Maximum Hessian update interval =            10
  Maximum step size               =   1.000000000
  Maximum parameter tolerance     =   0.000010000
  Maximum function  tolerance     =   0.000010000
  Maximum gradient  tolerance     =   0.001000000
  Maximum gradient  component     =   0.010000000

  Symmetry not applied to optimisation

  Cell parameters to be optimised using strains

  Newton-Raphson optimiser to be used

  BFGS hessian update to be used

  Dumpfile to be written after every cycle

  Start of bulk optimisation :

  Cycle:      0 Energy:     -7726.569709  Gnorm:      0.005816  CPU:    1.068
  ** Hessian calculated **
  Cycle:      1 Energy:     -7726.612451  Gnorm:      0.001883  CPU:    2.968
  Cycle:      2 Energy:     -7726.612585  Gnorm:      0.000132  CPU:    4.344


  **** Optimisation achieved ****


  Final energy =   -7726.61258814 eV
  Final Gnorm  =       0.00002844

  Components of energy : 

--------------------------------------------------------------------------------
  Interatomic potentials     =        2065.10851516 eV
  Three-body potentials      =           0.51787356 eV
  Monopole - monopole (real) =       -6614.01548316 eV
  Monopole - monopole (recip)=       -3171.76260768 eV
  Monopole - monopole (total)=       -9785.77809085 eV
  Neutralising energy        =          -6.46088602 eV
--------------------------------------------------------------------------------
  Total lattice energy       =       -7726.61258814 eV
--------------------------------------------------------------------------------
  Total lattice energy       =         -745500.0027 kJ/(mole unit cells)
--------------------------------------------------------------------------------

  Final fractional coordinates of atoms :

--------------------------------------------------------------------------------
   No.  Atomic        x           y          z          Radius
        Label       (Frac)      (Frac)     (Frac)       (Angs) 
--------------------------------------------------------------------------------
     1  Si    c     0.699600    0.375700    0.033890    0.000000
     2  Si    c     0.606772    0.323087    0.367498    0.000000
     3  Si    c     0.671823    0.300917    0.699567    0.000000
     4  Si    c     0.284694    0.621659    0.533433    0.000000
     5  Si    c     0.371432    0.672612    0.864483    0.000000
     6  Si    c     0.310825    0.695251    0.198134    0.000000
     7  Si    c     0.363056    0.699712    0.301270    0.000000
     8  Si    c     0.312773    0.609813    0.966078    0.000000
     9  Si    c     0.288113    0.676990    0.633904    0.000000
    10  Si    c     0.630629    0.306017    0.802322    0.000000
    11  Si    c     0.662263    0.378883    0.468061    0.000000
    12  Si    c     0.705375    0.326083    0.134130    0.000000
    13  Si    c     0.525623    0.408358    0.966837    0.000000
    14  Si    c     0.571480    0.114331    0.302605    0.000000
    15  Si    c     0.880949    0.473097    0.634485    0.000000
    16  Si    c     0.453367    0.580489    0.468037    0.000000
    17  Si    c     0.410302    0.887796    0.802112    0.000000
    18  Si    c     0.110386    0.520236    0.133258    0.000000
    19  Si    c     0.402202    0.527320    0.366475    0.000000
    20  Si    c     0.106091    0.572850    0.032141    0.000000
    21  Si    c     0.461102    0.887360    0.698937    0.000000
    22  Si    c     0.592545    0.470905    0.864875    0.000000
    23  Si    c     0.875321    0.420006    0.533102    0.000000
    24  Si    c     0.523838    0.121024    0.198639    0.000000
    25  Ge    c     0.314320    0.404798    0.856654    0.000000
    26  Si    c     0.592947    0.906064    0.184427    0.000000
    27  Si    c     0.082993    0.699524    0.518835    0.000000
    28  Si    c     0.684255    0.600032    0.352508    0.000000
    29  Si    c     0.389471    0.100095    0.682705    0.000000
    30  Si    c     0.897000    0.293569    0.018305    0.000000
    31  Si    c     0.382313    0.300986    0.482471    0.000000
    32  Si    c     0.908022    0.602122    0.149869    0.000000
    33  Si    c     0.698359    0.094823    0.816363    0.000000
    34  Si    c     0.596412    0.691613    0.982239    0.000000
    35  Si    c     0.089645    0.398670    0.649190    0.000000
    36  Si    c     0.285109    0.902377    0.319024    0.000000
    37  Si    c     0.240121    0.324342    0.952619    0.000000
    38  Si    c     0.650713    0.912776    0.286729    0.000000
    39  Si    c     0.078974    0.751301    0.619553    0.000000
    40  Si    c     0.733852    0.658493    0.453196    0.000000
    41  Ge    c     0.356477    0.098674    0.782772    0.000000
    42  Si    c     0.907490    0.243846    0.118880    0.000000
    43  Si    c     0.324153    0.250038    0.381622    0.000000
    44  Si    c     0.908568    0.655381    0.048858    0.000000
    45  Si    c     0.744467    0.087350    0.714197    0.000000
    46  Si    c     0.660590    0.748624    0.881219    0.000000
    47  Si    c     0.077386    0.341810    0.548181    0.000000
    48  Ge    c     0.259657    0.909937    0.218936    0.000000
    49  Si    c     0.963560    0.112540    0.969189    0.000000
    50  Si    c     0.866871    0.844195    0.300925    0.000000
    51  Si    c     0.141617    0.030438    0.633308    0.000000
    52  Si    c     0.012679    0.878631    0.468658    0.000000
    53  Si    c     0.128211    0.156319    0.802274    0.000000
    54  Si    c     0.842061    0.964753    0.135315    0.000000
    55  Si    c     0.107848    0.970378    0.368521    0.000000
    56  Si    c     0.842688    0.870469    0.034478    0.000000
    57  Si    c     0.027879    0.154104    0.701172    0.000000
    58  Si    c     0.881785    0.027632    0.866590    0.000000
    59  Si    c     0.134670    0.121857    0.533126    0.000000
    60  Si    c     0.972057    0.848820    0.201272    0.000000
    61  O2    c     0.918303    0.990359    0.001543    0.000000
    62  O2    c     0.988049    0.923725    0.334098    0.000000
    63  O2    c     0.068867    0.075308    0.667792    0.000000
    64  O2    c     0.053300    0.000052    0.500854    0.000000
    65  O2    c     0.001643    0.069926    0.834134    0.000000
    66  O2    c     0.916064    0.918592    0.168571    0.000000
    67  O2    c     0.326953    0.577805    0.333465    0.000000
    68  O2    c     0.412304    0.762479    0.666595    0.000000
    69  O2    c     0.229909    0.648845    0.999093    0.000000
    70  O2    c     0.683617    0.431618    0.835442    0.000000
    71  O2    c     0.584929    0.248862    0.168086    0.000000
    72  O2    c     0.748313    0.341852    0.500939    0.000000
    73  O2    c     0.576097    0.336517    0.000725    0.000000
    74  O2    c     0.756152    0.422674    0.667223    0.000000
    75  O2    c     0.646696    0.238687    0.335263    0.000000
    76  O2    c     0.406507    0.658592    0.500212    0.000000
    77  O2    c     0.237694    0.568812    0.165722    0.000000
    78  O2    c     0.338285    0.764425    0.834562    0.000000
    79  O2    c     0.117352    0.204198    0.977594    0.000000
    80  O2    c     0.775144    0.908321    0.306366    0.000000
    81  O2    c     0.077564    0.876490    0.639209    0.000000
    82  O2    c     0.858340    0.785082    0.473972    0.000000
    83  O3    c     0.217127    0.093915    0.805774    0.000000
    84  O2    c     0.907869    0.118835    0.139531    0.000000
    85  O2    c     0.196626    0.124036    0.361925    0.000000
    86  O2    c     0.908336    0.781675    0.029169    0.000000
    87  O2    c     0.871791    0.091237    0.694058    0.000000
    88  O2    c     0.786012    0.873822    0.861596    0.000000
    89  O2    c     0.074134    0.215234    0.527368    0.000000
    90  O3    c     0.121948    0.917507    0.197198    0.000000
    91  O2    c     0.916297    0.853154    0.250589    0.000000
    92  O2    c     0.118703    0.067998    0.583436    0.000000
    93  O2    c     0.928549    0.061457    0.918295    0.000000
    94  O2    c     0.065085    0.141924    0.751677    0.000000
    95  O2    c     0.852051    0.921678    0.084935    0.000000
    96  O2    c     0.049568    0.933059    0.418328    0.000000
    97  O2    c     0.891921    0.193786    0.980125    0.000000
    98  O2    c     0.782122    0.694381    0.314044    0.000000
    99  O2    c     0.296280    0.096692    0.640947    0.000000
   100  O2    c     0.084323    0.798022    0.480634    0.000000
   101  O3    c     0.203710    0.303331    0.814411    0.000000
   102  O2    c     0.689588    0.902755    0.146927    0.000000
   103  O2    c     0.196603    0.904999    0.360685    0.000000
   104  O2    c     0.690036    0.784952    0.021951    0.000000
   105  O2    c     0.094109    0.304380    0.687536    0.000000
   106  O2    c     0.796745    0.095290    0.854409    0.000000
   107  O2    c     0.286813    0.202771    0.520739    0.000000
   108  O2    c     0.909024    0.696947    0.188705    0.000000
   109  O2    c     0.310504    0.647434    0.250383    0.000000
   110  O2    c     0.344899    0.678028    0.583569    0.000000
   111  O2    c     0.315158    0.665842    0.915899    0.000000
   112  O2    c     0.675739    0.355202    0.750239    0.000000
   113  O2    c     0.642711    0.320052    0.084085    0.000000
   114  O2    c     0.664189    0.323038    0.417830    0.000000
   115  O2    c     0.369419    0.321034    0.969643    0.000000
   116  O2    c     0.656899    0.042632    0.305003    0.000000
   117  O2    c     0.947996    0.628170    0.638232    0.000000
   118  O2    c     0.610159    0.667984    0.470553    0.000000
   119  O3    c     0.320561    0.949391    0.806556    0.000000
   120  O2    c     0.042795    0.365118    0.136032    0.000000
   121  O2    c     0.314631    0.372009    0.362477    0.000000
   122  O2    c     0.038107    0.661210    0.029076    0.000000
   123  O2    c     0.618298    0.958318    0.696169    0.000000
   124  O2    c     0.673865    0.627226    0.865508    0.000000
   125  O2    c     0.943886    0.332414    0.530255    0.000000
   126  O3    c     0.371395    0.059130    0.193906    0.000000
   127  O2    c     0.765023    0.299065    0.010781    0.000000
   128  O2    c     0.681261    0.465029    0.344826    0.000000
   129  O2    c     0.527864    0.232148    0.677183    0.000000
   130  O2    c     0.216794    0.697787    0.511232    0.000000
   131  O3    c     0.297110    0.537795    0.840106    0.000000
   132  O2    c     0.458712    0.772346    0.179135    0.000000
   133  O2    c     0.289578    0.769263    0.323454    0.000000
   134  O2    c     0.458470    0.684559    0.987228    0.000000
   135  O2    c     0.222090    0.534720    0.656187    0.000000
   136  O2    c     0.703089    0.230614    0.821245    0.000000
   137  O2    c     0.518245    0.302929    0.489804    0.000000
   138  O2    c     0.772910    0.468814    0.155871    0.000000
   139  O2    c     0.779038    0.531450    0.029922    0.000000
   140  O2    c     0.449765    0.247720    0.362299    0.000000
   141  O2    c     0.736422    0.210421    0.697291    0.000000
   142  O2    c     0.203057    0.466428    0.528321    0.000000
   143  O2    c     0.529829    0.741139    0.862623    0.000000
   144  O3    c     0.230258    0.767492    0.190839    0.000000
   145  O2    c     0.518814    0.790595    0.303568    0.000000
   146  O2    c     0.245429    0.455591    0.969969    0.000000
   147  O2    c     0.206644    0.751903    0.638783    0.000000
   148  O3    c     0.478156    0.236056    0.810590    0.000000
   149  O2    c     0.734888    0.533948    0.473010    0.000000
   150  O2    c     0.783897    0.247828    0.139214    0.000000
   151  O3    c     0.213085    0.297451    0.900153    0.000000
   152  O2    c     0.662211    0.914711    0.232552    0.000000
   153  O2    c     0.078511    0.768921    0.565195    0.000000
   154  O2    c     0.754998    0.674292    0.398965    0.000000
   155  O3    c     0.309872    0.101480    0.725519    0.000000
   156  O2    c     0.900969    0.222754    0.064649    0.000000
   157  O2    c     0.307174    0.232044    0.435890    0.000000
   158  O2    c     0.913290    0.675429    0.103039    0.000000
   159  O2    c     0.756772    0.084752    0.768367    0.000000
   160  O2    c     0.667765    0.760433    0.935864    0.000000
   161  O2    c     0.084108    0.325759    0.602352    0.000000
   162  O3    c     0.206488    0.905194    0.275707    0.000000
   163  O2    c     0.577022    0.550498    0.987312    0.000000
   164  O2    c     0.429859    0.025480    0.324359    0.000000
   165  O2    c     0.963162    0.412690    0.657360    0.000000
   166  O2    c     0.397073    0.440173    0.491105    0.000000
   167  O2    c     0.555442    0.975241    0.823920    0.000000
   168  O2    c     0.028258    0.577738    0.157328    0.000000
   169  O2    c     0.544489    0.588209    0.343623    0.000000
   170  O2    c     0.023541    0.431640    0.009273    0.000000
   171  O2    c     0.407000    0.975146    0.676934    0.000000
   172  O3    c     0.458643    0.412352    0.837965    0.000000
   173  O2    c     0.957605    0.560321    0.509730    0.000000
   174  O2    c     0.573807    0.027955    0.176875    0.000000
   175  O2    c     0.571821    0.163238    0.251383    0.000000
   176  O2    c     0.823638    0.420800    0.583905    0.000000
   177  O2    c     0.580518    0.413232    0.916339    0.000000
   178  O2    c     0.413580    0.839476    0.750224    0.000000
   179  O2    c     0.162798    0.574198    0.082605    0.000000
   180  O2    c     0.398777    0.579008    0.417073    0.000000
   181  F     c     0.406188    0.907292    0.245647    0.000000
   182  F     c     0.085084    0.550049    0.583633    0.000000
   183  F     c     0.420581    0.512165    0.906497    0.000000
   184  F     c     0.508220    0.096795    0.754741    0.000000
   185  F     c     0.900811    0.445010    0.082579    0.000000
   186  F     c     0.531869    0.450643    0.416376    0.000000
   187  O2    s     0.914700    0.990262    0.001702    0.000000
   188  O2    s     0.987856    0.920023    0.334237    0.000000
   189  O2    s     0.072523    0.078965    0.667581    0.000000
   190  O2    s     0.057825    0.000022    0.500841    0.000000
   191  O2    s     0.999898    0.073411    0.834825    0.000000
   192  O2    s     0.913277    0.916621    0.168127    0.000000
   193  O2    s     0.338435    0.585533    0.333418    0.000000
   194  O2    s     0.404644    0.766658    0.666582    0.000000
   195  O2    s     0.225848    0.636927    0.999030    0.000000
   196  O2    s     0.669659    0.423259    0.835082    0.000000
   197  O2    s     0.591064    0.243279    0.167783    0.000000
   198  O2    s     0.752438    0.353750    0.500820    0.000000
   199  O2    s     0.583555    0.348159    0.000589    0.000000
   200  O2    s     0.760147    0.415011    0.667268    0.000000
   201  O2    s     0.634817    0.234283    0.335143    0.000000
   202  O2    s     0.398872    0.646685    0.500287    0.000000
   203  O2    s     0.232277    0.576591    0.165729    0.000000
   204  O2    s     0.349678    0.767643    0.834361    0.000000
   205  O2    s     0.113342    0.206473    0.974287    0.000000
   206  O2    s     0.771079    0.902279    0.303723    0.000000
   207  O2    s     0.084349    0.879422    0.636572    0.000000
   208  O2    s     0.861783    0.781843    0.471274    0.000000
   209  O3    s     0.217555    0.100977    0.803790    0.000000
   210  O2    s     0.900867    0.115522    0.136968    0.000000
   211  O2    s     0.200537    0.121014    0.364624    0.000000
   212  O2    s     0.901372    0.778154    0.031731    0.000000
   213  O2    s     0.873751    0.097141    0.696915    0.000000
   214  O2    s     0.782433    0.876283    0.864194    0.000000
   215  O2    s     0.080898    0.218399    0.530097    0.000000
   216  O3    s     0.113898    0.909152    0.199068    0.000000
   217  O2    s     0.916435    0.851665    0.251246    0.000000
   218  O2    s     0.123092    0.069939    0.583268    0.000000
   219  O2    s     0.927302    0.063469    0.918337    0.000000
   220  O2    s     0.066855    0.144764    0.750666    0.000000
   221  O2    s     0.849865    0.920668    0.084817    0.000000
   222  O2    s     0.052004    0.931128    0.418377    0.000000
   223  O2    s     0.899921    0.195476    0.982886    0.000000
   224  O2    s     0.780975    0.700524    0.316643    0.000000
   225  O2    s     0.289196    0.090058    0.644201    0.000000
   226  O2    s     0.076598    0.796551    0.483244    0.000000
   227  O3    s     0.203344    0.294641    0.816037    0.000000
   228  O2    s     0.695232    0.909565    0.149667    0.000000
   229  O2    s     0.196171    0.911550    0.357404    0.000000
   230  O2    s     0.696036    0.783995    0.019064    0.000000
   231  O2    s     0.086781    0.298672    0.684926    0.000000
   232  O2    s     0.795094    0.088207    0.851636    0.000000
   233  O2    s     0.280584    0.204331    0.518114    0.000000
   234  O2    s     0.915166    0.701986    0.185841    0.000000
   235  O2    s     0.315985    0.657590    0.250563    0.000000
   236  O2    s     0.332995    0.672172    0.583567    0.000000
   237  O2    s     0.320344    0.660569    0.916225    0.000000
   238  O2    s     0.670818    0.344641    0.750096    0.000000
   239  O2    s     0.654890    0.326345    0.084007    0.000000
   240  O2    s     0.658097    0.328731    0.417770    0.000000
   241  O2    s     0.372799    0.330522    0.967620    0.000000
   242  O2    s     0.647604    0.036287    0.302847    0.000000
   243  O2    s     0.954710    0.624964    0.635889    0.000000
   244  O2    s     0.606962    0.657887    0.468438    0.000000
   245  O3    s     0.332761    0.953730    0.804312    0.000000
   246  O2    s     0.035589    0.368458    0.133927    0.000000
   247  O2    s     0.324635    0.375370    0.364877    0.000000
   248  O2    s     0.031481    0.651485    0.031480    0.000000
   249  O2    s     0.615598    0.964703    0.698351    0.000000
   250  O2    s     0.664178    0.624368    0.867147    0.000000
   251  O2    s     0.950842    0.342504    0.532451    0.000000
   252  O3    s     0.379344    0.054998    0.196190    0.000000
   253  O2    s     0.772310    0.306405    0.014001    0.000000
   254  O2    s     0.673872    0.464536    0.348004    0.000000
   255  O2    s     0.528787    0.225884    0.680109    0.000000
   256  O2    s     0.209678    0.690136    0.514351    0.000000
   257  O3    s     0.306243    0.542660    0.843924    0.000000
   258  O2    s     0.458157    0.778928    0.181659    0.000000
   259  O2    s     0.296762    0.775481    0.320668    0.000000
   260  O2    s     0.458431    0.677637    0.984499    0.000000
   261  O2    s     0.215048    0.535193    0.653112    0.000000
   262  O2    s     0.695139    0.223709    0.818744    0.000000
   263  O2    s     0.518788    0.310587    0.486742    0.000000
   264  O2    s     0.780087    0.467908    0.152913    0.000000
   265  O2    s     0.784816    0.528702    0.032346    0.000000
   266  O2    s     0.452607    0.255867    0.364872    0.000000
   267  O2    s     0.730355    0.206517    0.699366    0.000000
   268  O2    s     0.197862    0.469103    0.530973    0.000000
   269  O2    s     0.528579    0.735081    0.864841    0.000000
   270  O3    s     0.240747    0.770659    0.193598    0.000000
   271  O2    s     0.516772    0.794437    0.301493    0.000000
   272  O2    s     0.252182    0.458619    0.967776    0.000000
   273  O2    s     0.201250    0.743964    0.636230    0.000000
   274  O3    s     0.484597    0.232662    0.807696    0.000000
   275  O2    s     0.727080    0.531276    0.470364    0.000000
   276  O2    s     0.789196    0.255516    0.136526    0.000000
   277  O3    s     0.222742    0.307455    0.902831    0.000000
   278  O2    s     0.653597    0.913603    0.233371    0.000000
   279  O2    s     0.079020    0.759734    0.566051    0.000000
   280  O2    s     0.745341    0.664817    0.399820    0.000000
   281  O3    s     0.321376    0.101171    0.725139    0.000000
   282  O2    s     0.901242    0.232354    0.065599    0.000000
   283  O2    s     0.316875    0.241212    0.435017    0.000000
   284  O2    s     0.912255    0.665671    0.102106    0.000000
   285  O2    s     0.749194    0.086084    0.767564    0.000000
   286  O2    s     0.659384    0.751837    0.935100    0.000000
   287  O2    s     0.083992    0.335103    0.601482    0.000000
   288  O3    s     0.218263    0.905200    0.276256    0.000000
   289  O2    s     0.573634    0.551190    0.984575    0.000000
   290  O2    s     0.429880    0.021992    0.321471    0.000000
   291  O2    s     0.968232    0.417607    0.654099    0.000000
   292  O2    s     0.401531    0.439835    0.487763    0.000000
   293  O2    s     0.556685    0.979815    0.820912    0.000000
   294  O2    s     0.023673    0.574064    0.153972    0.000000
   295  O2    s     0.544594    0.583025    0.346947    0.000000
   296  O2    s     0.018461    0.431610    0.012633    0.000000
   297  O2    s     0.411059    0.978932    0.679891    0.000000
   298  O3    s     0.461802    0.418129    0.842116    0.000000
   299  O2    s     0.962669    0.560676    0.513129    0.000000
   300  O2    s     0.570788    0.023605    0.179858    0.000000
   301  O2    s     0.567055    0.153896    0.251632    0.000000
   302  O2    s     0.834968    0.426157    0.583860    0.000000
   303  O2    s     0.575847    0.418323    0.916639    0.000000
   304  O2    s     0.418279    0.849252    0.749881    0.000000
   305  O2    s     0.151500    0.568487    0.082598    0.000000
   306  O2    s     0.404730    0.573770    0.417052    0.000000
   307  F     s     0.397280    0.907243    0.244119    0.000000
   308  F     s     0.085414    0.550291    0.583603    0.000000
   309  F     s     0.414473    0.506175    0.903801    0.000000
   310  F     s     0.501127    0.097051    0.755955    0.000000
   311  F     s     0.900256    0.444582    0.082474    0.000000
   312  F     s     0.531975    0.450457    0.416260    0.000000
--------------------------------------------------------------------------------

  Final Cartesian lattice vectors (Angstroms) :

       11.896492    0.002166   -0.013154
       -5.984271   10.420665    0.010402
       -0.189508   -0.084247   29.483055


  Final cell parameters and derivatives :

--------------------------------------------------------------------------------
       a           11.896499 Angstrom     dE/de1(xx)    -0.003640 eV/strain
       b           12.016733 Angstrom     dE/de2(yy)    -0.002691 eV/strain
       c           29.483785 Angstrom     dE/de3(zz)    -0.007425 eV/strain
       alpha       89.908982 Degrees      dE/de4(yz)     0.000315 eV/strain
       beta        90.431652 Degrees      dE/de5(xz)     0.000302 eV/strain
       gamma      119.857041 Degrees      dE/de6(xy)     0.000008 eV/strain
--------------------------------------------------------------------------------

  Primitive cell volume =          3655.355298 Angs**3

  Density of cell =      1.750334 g/cm**3

  Non-primitive cell volume =          3655.355298 Angs**3


  Final internal derivatives :

--------------------------------------------------------------------------------
   No.  Atomic          a             b             c           Radius
        Label          (eV)          (eV)          (eV)        (eV/Angs)
--------------------------------------------------------------------------------
      1 Si    c       0.000000      0.000000      0.000000      0.000000
      2 Si    c       0.000354     -0.000174      0.000456      0.000000
      3 Si    c      -0.000103      0.000810      0.000072      0.000000
      4 Si    c       0.000370      0.000290      0.001747      0.000000
      5 Si    c      -0.000540      0.000485      0.001679      0.000000
      6 Si    c       0.000787     -0.000444      0.002332      0.000000
      7 Si    c       0.000301     -0.000960      0.000761      0.000000
      8 Si    c       0.000335      0.000122     -0.001766      0.000000
      9 Si    c       0.000575     -0.000177     -0.001919      0.000000
     10 Si    c       0.000342      0.000093     -0.000959      0.000000
     11 Si    c       0.000356     -0.000272      0.000158      0.000000
     12 Si    c      -0.000596      0.000719     -0.006216      0.000000
     13 Si    c       0.001840     -0.000874      0.001326      0.000000
     14 Si    c      -0.000084      0.000466     -0.000098      0.000000
     15 Si    c      -0.000539      0.000168     -0.001266      0.000000
     16 Si    c      -0.000411      0.000485      0.000185      0.000000
     17 Si    c      -0.000301     -0.000151     -0.000524      0.000000
     18 Si    c      -0.000340      0.000218     -0.001562      0.000000
     19 Si    c      -0.000436      0.000405     -0.000574      0.000000
     20 Si    c       0.000010      0.000413      0.000503      0.000000
     21 Si    c      -0.000008     -0.000617     -0.000034      0.000000
     22 Si    c      -0.000068     -0.000204      0.000891      0.000000
     23 Si    c      -0.000458      0.000045      0.001680      0.000000
     24 Si    c       0.000440      0.000162      0.000227      0.000000
     25 Ge    c       0.000961      0.000033      0.005477      0.000000
     26 Si    c       0.000555     -0.000155      0.001391      0.000000
     27 Si    c      -0.000055      0.000357      0.000370      0.000000
     28 Si    c       0.000214      0.000227      0.000158      0.000000
     29 Si    c      -0.000849      0.000665      0.006587      0.000000
     30 Si    c      -0.001555     -0.000020      0.003219      0.000000
     31 Si    c       0.000052     -0.000073     -0.000516      0.000000
     32 Si    c      -0.000771      0.000454     -0.003231      0.000000
     33 Si    c       0.000778     -0.000415     -0.000802      0.000000
     34 Si    c      -0.000251      0.000144     -0.001580      0.000000
     35 Si    c       0.000384     -0.000478     -0.001058      0.000000
     36 Si    c      -0.000339      0.000169     -0.003049      0.000000
     37 Si    c       0.000152      0.000577     -0.002095      0.000000
     38 Si    c       0.000712     -0.000357     -0.000681      0.000000
     39 Si    c      -0.000213      0.000378     -0.001594      0.000000
     40 Si    c      -0.000133      0.000119     -0.000963      0.000000
     41 Ge    c      -0.002079      0.000892     -0.002750      0.000000
     42 Si    c       0.000046     -0.000685     -0.002066      0.000000
     43 Si    c      -0.000045     -0.000070      0.000335      0.000000
     44 Si    c      -0.000353      0.000374      0.001547      0.000000
     45 Si    c       0.000627     -0.000455      0.000770      0.000000
     46 Si    c      -0.000036     -0.000116      0.000655      0.000000
     47 Si    c       0.000209     -0.000426      0.001840      0.000000
     48 Ge    c      -0.000087      0.000050      0.003030      0.000000
     49 Si    c       0.000398     -0.000629      0.001120      0.000000
     50 Si    c       0.000063     -0.000334     -0.002571      0.000000
     51 Si    c      -0.000897      0.000677     -0.002247      0.000000
     52 Si    c      -0.000096      0.000200     -0.001140      0.000000
     53 Si    c       0.000155     -0.000321     -0.001847      0.000000
     54 Si    c      -0.001037      0.000791     -0.003775      0.000000
     55 Si    c      -0.000573     -0.000071     -0.000324      0.000000
     56 Si    c       0.000374     -0.000806     -0.000161      0.000000
     57 Si    c      -0.000080      0.000041      0.001366      0.000000
     58 Si    c      -0.000039      0.000265      0.000942      0.000000
     59 Si    c      -0.000222     -0.000687      0.002949      0.000000
     60 Si    c      -0.000467     -0.000281      0.005752      0.000000
     61 O2    c      -0.000239      0.000986     -0.001585      0.000000
     62 O2    c       0.000862     -0.000107      0.001937      0.000000
     63 O2    c       0.000664     -0.000479     -0.001324      0.000000
     64 O2    c       0.000591      0.000262      0.000975      0.000000
     65 O2    c      -0.000212      0.000306      0.000244      0.000000
     66 O2    c       0.000093      0.001029     -0.000739      0.000000
     67 O2    c       0.000174      0.000520     -0.000714      0.000000
     68 O2    c      -0.000199      0.000387      0.000244      0.000000
     69 O2    c       0.000063     -0.000404     -0.000127      0.000000
     70 O2    c      -0.000301      0.000059      0.000362      0.000000
     71 O2    c       0.000221     -0.000461      0.000607      0.000000
     72 O2    c      -0.000266      0.000317     -0.000584      0.000000
     73 O2    c      -0.000466      0.001835     -0.002913      0.000000
     74 O2    c      -0.000037     -0.000493      0.000868      0.000000
     75 O2    c      -0.000089     -0.000345     -0.000696      0.000000
     76 O2    c       0.000077     -0.000315     -0.000082      0.000000
     77 O2    c      -0.000169     -0.000226     -0.000596      0.000000
     78 O2    c       0.000663     -0.000564      0.000103      0.000000
     79 O2    c      -0.000621     -0.000089     -0.000259      0.000000
     80 O2    c      -0.000120      0.000009     -0.000841      0.000000
     81 O2    c       0.000046      0.000040     -0.000160      0.000000
     82 O2    c       0.000239      0.000021     -0.000081      0.000000
     83 O3    c      -0.000723      0.000865     -0.000768      0.000000
     84 O2    c      -0.000125      0.000375     -0.000097      0.000000
     85 O2    c      -0.000025     -0.000102      0.000141      0.000000
     86 O2    c      -0.001065      0.000770      0.000737      0.000000
     87 O2    c      -0.000023      0.000085      0.000509      0.000000
     88 O2    c      -0.000017      0.000170      0.000504      0.000000
     89 O2    c       0.000235     -0.000123      0.000332      0.000000
     90 O3    c       0.003345     -0.000336     -0.000403      0.000000
     91 O2    c      -0.000321      0.000071      0.000986      0.000000
     92 O2    c       0.000291      0.000227     -0.000865      0.000000
     93 O2    c      -0.000288     -0.000123     -0.002690      0.000000
     94 O2    c       0.000512     -0.000160      0.001967      0.000000
     95 O2    c       0.000179      0.000099      0.001522      0.000000
     96 O2    c       0.000058     -0.000259      0.001112      0.000000
     97 O2    c       0.000016     -0.000105      0.000129      0.000000
     98 O2    c       0.000059      0.000506     -0.000046      0.000000
     99 O2    c       0.000047      0.000071      0.000242      0.000000
    100 O2    c      -0.000028     -0.000032      0.000537      0.000000
    101 O3    c      -0.000047      0.000374      0.000099      0.000000
    102 O2    c      -0.000223      0.000012      0.000667      0.000000
    103 O2    c      -0.000288      0.000210      0.000323      0.000000
    104 O2    c       0.000386     -0.000010      0.000205      0.000000
    105 O2    c       0.000009     -0.000107     -0.000279      0.000000
    106 O2    c      -0.000053     -0.000111     -0.000962      0.000000
    107 O2    c       0.000054     -0.000069     -0.000353      0.000000
    108 O2    c      -0.000599     -0.002062     -0.001319      0.000000
    109 O2    c       0.000044      0.000282     -0.001017      0.000000
    110 O2    c      -0.000579      0.000012      0.000081      0.000000
    111 O2    c       0.000964     -0.000521     -0.002735      0.000000
    112 O2    c      -0.000043     -0.000409      0.000735      0.000000
    113 O2    c       0.002266     -0.000154      0.000806      0.000000
    114 O2    c      -0.000205      0.000069     -0.000790      0.000000
    115 O2    c      -0.000540      0.000354     -0.000695      0.000000
    116 O2    c       0.000012      0.000053     -0.000093      0.000000
    117 O2    c      -0.000003     -0.000184     -0.000092      0.000000
    118 O2    c       0.000024     -0.000044     -0.000024      0.000000
    119 O3    c       0.000645     -0.000196     -0.000635      0.000000
    120 O2    c       0.000191      0.000170     -0.000011      0.000000
    121 O2    c      -0.000001      0.000094      0.000046      0.000000
    122 O2    c      -0.000281     -0.000500      0.000648      0.000000
    123 O2    c      -0.000126     -0.000049      0.000095      0.000000
    124 O2    c      -0.000112      0.000226      0.000408      0.000000
    125 O2    c       0.000085     -0.000035     -0.000076      0.000000
    126 O3    c      -0.000013      0.000185      0.000337      0.000000
    127 O2    c      -0.000861      0.001242      0.002762      0.000000
    128 O2    c      -0.000026      0.000012      0.000041      0.000000
    129 O2    c      -0.000251      0.000088      0.000311      0.000000
    130 O2    c      -0.000102      0.000024      0.000244      0.000000
    131 O3    c      -0.000217      0.000597     -0.000437      0.000000
    132 O2    c       0.000008     -0.000022     -0.000044      0.000000
    133 O2    c      -0.000166      0.000135      0.000117      0.000000
    134 O2    c       0.000834     -0.000555     -0.000272      0.000000
    135 O2    c      -0.000031     -0.000115     -0.000120      0.000000
    136 O2    c      -0.000072     -0.000129      0.000054      0.000000
    137 O2    c      -0.000053      0.000001     -0.000296      0.000000
    138 O2    c       0.000054      0.000117     -0.000331      0.000000
    139 O2    c      -0.000351      0.000273      0.000517      0.000000
    140 O2    c      -0.000190      0.000138      0.000094      0.000000
    141 O2    c      -0.000143      0.000188     -0.000001      0.000000
    142 O2    c      -0.000136     -0.000117      0.000096      0.000000
    143 O2    c       0.000164     -0.000103      0.000021      0.000000
    144 O3    c       0.000317     -0.000211      0.000377      0.000000
    145 O2    c       0.000005      0.000054     -0.000209      0.000000
    146 O2    c       0.000611     -0.000554     -0.000552      0.000000
    147 O2    c      -0.000226      0.000127     -0.000122      0.000000
    148 O3    c       0.000238     -0.000493     -0.001973      0.000000
    149 O2    c      -0.000004     -0.000080     -0.000024      0.000000
    150 O2    c      -0.000101      0.000128     -0.000120      0.000000
    151 O3    c       0.000338      0.001786     -0.000697      0.000000
    152 O2    c      -0.000323      0.000120     -0.000873      0.000000
    153 O2    c       0.000079     -0.000173      0.001978      0.000000
    154 O2    c      -0.000121     -0.000109      0.000562      0.000000
    155 O3    c       0.003849     -0.001808      0.001286      0.000000
    156 O2    c      -0.000478      0.000859     -0.001481      0.000000
    157 O2    c       0.000066      0.000042      0.000009      0.000000
    158 O2    c       0.000226     -0.000632      0.001951      0.000000
    159 O2    c      -0.000567      0.000277      0.000983      0.000000
    160 O2    c      -0.000121     -0.000441      0.001160      0.000000
    161 O2    c      -0.000219      0.000329     -0.001772      0.000000
    162 O3    c       0.001859     -0.001144     -0.000984      0.000000
    163 O2    c       0.000187     -0.000043      0.000034      0.000000
    164 O2    c       0.000008      0.000046     -0.000117      0.000000
    165 O2    c       0.000027     -0.000021     -0.000062      0.000000
    166 O2    c       0.000102     -0.000171     -0.000218      0.000000
    167 O2    c      -0.000076      0.000008     -0.000122      0.000000
    168 O2    c       0.000228     -0.000050      0.000463      0.000000
    169 O2    c       0.000002     -0.000013      0.000073      0.000000
    170 O2    c       0.000025      0.000175      0.000106      0.000000
    171 O2    c       0.000025     -0.000062      0.000182      0.000000
    172 O3    c      -0.000497      0.000428      0.001176      0.000000
    173 O2    c      -0.000024      0.000052     -0.000033      0.000000
    174 O2    c      -0.000077      0.000156      0.000003      0.000000
    175 O2    c       0.000059     -0.000243      0.000068      0.000000
    176 O2    c       0.000546     -0.000051     -0.000224      0.000000
    177 O2    c      -0.000229      0.000238     -0.000332      0.000000
    178 O2    c       0.000114      0.000212     -0.000197      0.000000
    179 O2    c      -0.000228     -0.000168      0.001375      0.000000
    180 O2    c       0.000162     -0.000127      0.000293      0.000000
    181 F     c      -0.000245      0.000198      0.000304      0.000000
    182 F     c       0.000033      0.000101      0.000006      0.000000
    183 F     c      -0.000353     -0.000399     -0.001864      0.000000
    184 F     c       0.000702     -0.000319     -0.001433      0.000000
    185 F     c      -0.000133     -0.000143      0.000876      0.000000
    186 F     c       0.000014      0.000016     -0.000104      0.000000
    187 O2    s       0.000053     -0.000396      0.000228      0.000000
    188 O2    s      -0.000211      0.000072     -0.000376      0.000000
    189 O2    s      -0.000050      0.000163     -0.000296      0.000000
    190 O2    s       0.000247     -0.000191      0.000428      0.000000
    191 O2    s       0.000086     -0.000376     -0.000438      0.000000
    192 O2    s      -0.000631      0.001089      0.000410      0.000000
    193 O2    s      -0.000151     -0.000112      0.000051      0.000000
    194 O2    s      -0.000094     -0.000006      0.000494      0.000000
    195 O2    s      -0.000274      0.000516      0.000412      0.000000
    196 O2    s       0.000098     -0.000027     -0.000734      0.000000
    197 O2    s      -0.000024      0.000185     -0.000820      0.000000
    198 O2    s       0.000120     -0.000058      0.000345      0.000000
    199 O2    s      -0.000780     -0.001080      0.001065      0.000000
    200 O2    s       0.000138     -0.000002     -0.000095      0.000000
    201 O2    s      -0.000001      0.000250      0.000052      0.000000
    202 O2    s      -0.000204      0.000174     -0.000171      0.000000
    203 O2    s      -0.000160      0.000665      0.000024      0.000000
    204 O2    s      -0.000455      0.000422      0.000859      0.000000
    205 O2    s       0.000225      0.000146      0.000561      0.000000
    206 O2    s       0.000054     -0.000301      0.001281      0.000000
    207 O2    s       0.000145      0.000012     -0.000376      0.000000
    208 O2    s       0.000056     -0.000093      0.000025      0.000000
    209 O3    s       0.000224     -0.000382      0.001687      0.000000
    210 O2    s      -0.000259      0.000448     -0.000177      0.000000
    211 O2    s       0.000046     -0.000186     -0.000302      0.000000
    212 O2    s       0.000385     -0.000377     -0.000750      0.000000
    213 O2    s      -0.000146      0.000212     -0.000462      0.000000
    214 O2    s      -0.000076      0.000203     -0.000912      0.000000
    215 O2    s       0.000265     -0.000149      0.000156      0.000000
    216 O3    s       0.000469      0.000156     -0.000017      0.000000
    217 O2    s      -0.000381      0.000342      0.003057      0.000000
    218 O2    s      -0.000469     -0.000053     -0.000474      0.000000
    219 O2    s      -0.000010      0.000007      0.000896      0.000000
    220 O2    s      -0.000333      0.000259     -0.000855      0.000000
    221 O2    s      -0.000065     -0.000212     -0.001816      0.000000
    222 O2    s      -0.000196      0.000342     -0.000409      0.000000
    223 O2    s       0.000071      0.000070     -0.000145      0.000000
    224 O2    s      -0.000059     -0.000019     -0.000459      0.000000
    225 O2    s      -0.000013     -0.000221      0.000124      0.000000
    226 O2    s      -0.000253      0.000142     -0.000005      0.000000
    227 O3    s       0.000136     -0.000218      0.000991      0.000000
    228 O2    s      -0.000461     -0.000062     -0.000897      0.000000
    229 O2    s       0.000017      0.000122     -0.000585      0.000000
    230 O2    s      -0.000302      0.000191     -0.000113      0.000000
    231 O2    s      -0.000108     -0.000004      0.000135      0.000000
    232 O2    s      -0.000141     -0.000009      0.000238      0.000000
    233 O2    s      -0.000531      0.000308      0.000252      0.000000
    234 O2    s       0.000223     -0.001001     -0.000021      0.000000
    235 O2    s      -0.000166      0.000097      0.000263      0.000000
    236 O2    s       0.000200      0.000029      0.000084      0.000000
    237 O2    s      -0.000736      0.000456      0.000465      0.000000
    238 O2    s       0.000109     -0.000246      0.000136      0.000000
    239 O2    s      -0.002394      0.000099      0.001368      0.000000
    240 O2    s       0.000070      0.000030      0.000464      0.000000
    241 O2    s       0.000490     -0.000378      0.000488      0.000000
    242 O2    s      -0.000230      0.000038      0.000024      0.000000
    243 O2    s       0.000316     -0.000075     -0.000089      0.000000
    244 O2    s      -0.000057     -0.000074     -0.000170      0.000000
    245 O3    s       0.000057     -0.000504      0.000946      0.000000
    246 O2    s      -0.000242      0.000141      0.000287      0.000000
    247 O2    s       0.000059     -0.000025      0.000173      0.000000
    248 O2    s       0.000593      0.000040     -0.000026      0.000000
    249 O2    s      -0.000365      0.000310      0.000411      0.000000
    250 O2    s       0.000191     -0.000376     -0.000254      0.000000
    251 O2    s       0.000101      0.000011      0.000268      0.000000
    252 O3    s       0.000140     -0.000378     -0.000580      0.000000
    253 O2    s       0.001224     -0.000651     -0.002024      0.000000
    254 O2    s      -0.000077     -0.000032     -0.000059      0.000000
    255 O2    s       0.000879     -0.000326     -0.000993      0.000000
    256 O2    s       0.000047     -0.000098     -0.000512      0.000000
    257 O3    s       0.000395     -0.000397      0.000543      0.000000
    258 O2    s      -0.000035     -0.000139     -0.000098      0.000000
    259 O2    s       0.000348     -0.000251     -0.000236      0.000000
    260 O2    s      -0.000208      0.000400      0.000212      0.000000
    261 O2    s      -0.000044      0.000157      0.000476      0.000000
    262 O2    s      -0.000110     -0.000119     -0.001117      0.000000
    263 O2    s       0.000062      0.000129      0.000456      0.000000
    264 O2    s      -0.000181     -0.000155      0.001526      0.000000
    265 O2    s       0.000957      0.000402     -0.001429      0.000000
    266 O2    s       0.000086     -0.000071      0.000176      0.000000
    267 O2    s      -0.000159      0.000085      0.000231      0.000000
    268 O2    s      -0.000137      0.000063      0.000407      0.000000
    269 O2    s      -0.000210      0.000100      0.000300      0.000000
    270 O3    s      -0.000133     -0.000150     -0.000368      0.000000
    271 O2    s      -0.000113     -0.000055      0.000165      0.000000
    272 O2    s      -0.000550      0.000034      0.000319      0.000000
    273 O2    s       0.000019     -0.000144     -0.000151      0.000000
    274 O3    s       0.000754      0.000257      0.001387      0.000000
    275 O2    s       0.000024     -0.000031      0.000216      0.000000
    276 O2    s      -0.000117     -0.000032      0.000624      0.000000
    277 O3    s       0.000252     -0.001172      0.000439      0.000000
    278 O2    s      -0.000179      0.000141     -0.000058      0.000000
    279 O2    s       0.000041      0.000072     -0.000434      0.000000
    280 O2    s       0.000082      0.000101     -0.000236      0.000000
    281 O3    s      -0.003619      0.001415     -0.003242      0.000000
    282 O2    s       0.000413     -0.000458      0.000079      0.000000
    283 O2    s      -0.000115     -0.000042     -0.000381      0.000000
    284 O2    s      -0.000017      0.000326     -0.000570      0.000000
    285 O2    s      -0.000135      0.000223      0.000409      0.000000
    286 O2    s      -0.000400      0.000288      0.000421      0.000000
    287 O2    s       0.000112     -0.000126      0.000125      0.000000
    288 O3    s      -0.001898      0.001302      0.001649      0.000000
    289 O2    s      -0.000440      0.000119     -0.000013      0.000000
    290 O2    s       0.000203     -0.000107      0.000179      0.000000
    291 O2    s      -0.000002      0.000119      0.000147      0.000000
    292 O2    s      -0.000118      0.000141      0.000286      0.000000
    293 O2    s       0.000400      0.000060      0.000222      0.000000
    294 O2    s       0.000133     -0.000112     -0.000666      0.000000
    295 O2    s      -0.000026     -0.000029     -0.000161      0.000000
    296 O2    s      -0.000093     -0.000145      0.000623      0.000000
    297 O2    s       0.000531     -0.000474      0.000013      0.000000
    298 O3    s      -0.000240      0.000259      0.001886      0.000000
    299 O2    s       0.000116     -0.000119     -0.000018      0.000000
    300 O2    s      -0.000038     -0.000087      0.000050      0.000000
    301 O2    s      -0.000062      0.000222      0.000264      0.000000
    302 O2    s      -0.000233      0.000062     -0.000205      0.000000
    303 O2    s      -0.000358      0.000132     -0.000423      0.000000
    304 O2    s      -0.000126      0.000161     -0.001009      0.000000
    305 O2    s       0.000494      0.000081     -0.000915      0.000000
    306 O2    s      -0.000135      0.000064      0.000422      0.000000
    307 F     s       0.000045     -0.000190     -0.000859      0.000000
    308 F     s      -0.000087     -0.000198      0.000044      0.000000
    309 F     s      -0.000244     -0.001064     -0.003536      0.000000
    310 F     s       0.000510     -0.000321      0.000019      0.000000
    311 F     s       0.000509      0.000103     -0.002322      0.000000
    312 F     s      -0.000058     -0.000010      0.000063      0.000000
--------------------------------------------------------------------------------
  Maximum abs         0.003849      0.002062      0.006587      0.000000
--------------------------------------------------------------------------------


  Time to end of optimisation =       5.7223 seconds


  Peak dynamic memory used =      19.13 MB 


  Timing analysis for GULP :

--------------------------------------------------------------------------------
  Task / Subroutine                                          Time (Seconds)
--------------------------------------------------------------------------------
  Calculation of reciprocal space energy and derivatives          0.2539
  Calculation of real space energy and derivatives                4.7199
  Calculation of three-body energy and derivatives                0.5202
  Calculation of matrix inversion                                 0.1920
--------------------------------------------------------------------------------
  Total CPU time                                                  5.7223
--------------------------------------------------------------------------------


  Dump file written as out.res                                                 
  CIF file written as out.cif                                                 


  Job Finished at 19:06.12 26th November   2016                               

