********************************************************************************
*                       GENERAL UTILITY LATTICE PROGRAM                        *
*                                 Julian Gale                                  *
*                      Nanochemistry Research Institute                        *
*                           Department of Chemistry                            *
*                    Curtin University, Western Australia                      *
********************************************************************************
* Version = 4.2.0 * Last modified =  20th January 2014                         *
********************************************************************************
*  optimise     - perform optimisation run                                     *
*  conp         - constant pressure calculation                                *
*  qok          - running with non charge neutral cell is OK                   *
********************************************************************************

  Job Started  at 15:35.02 26th November   2016                               

  Number of CPUs =     1


  Total number of configurations input =   1

********************************************************************************
*  Input for Configuration =   1                                               *
********************************************************************************

  Formula = Si57Ge3O120F6                                               

  Number of irreducible atoms/shells =     312


  Total number atoms/shells =     312

  Dimensionality = 3               :  Bulk   


  Charge on solid   =  -6.000000 =>neutralising background added


  Cartesian lattice vectors (Angstroms) :

       11.984387    0.000000    0.000000
       -6.003869   10.352166    0.000000
       -0.171267    0.060948   29.452155

  Cell parameters (Angstroms/Degrees):

  a =      11.9844    alpha =  89.7303
  b =      11.9672    beta  =  90.3332
  c =      29.4527    gamma = 120.1121

  Initial cell volume =        3653.962824 Angs**3

  Temperature of configuration =  0.000     K 

  Pressure of configuration =         0.000 GPa 

  Fractional coordinates of asymmetric unit :

--------------------------------------------------------------------------------
   No.  Atomic       x           y          z         Charge      Occupancy
        Label      (Frac)      (Frac)     (Frac)        (e)         (Frac)  
--------------------------------------------------------------------------------
      1 Si    c    0.699600    0.375700    0.033890     4.00000    1.000000    
      2 Si    c    0.620094 *  0.325996 *  0.368188 *   4.00000    1.000000    
      3 Si    c    0.679992 *  0.293532 *  0.699362 *   4.00000    1.000000    
      4 Si    c    0.298307 *  0.621323 *  0.535103 *   4.00000    1.000000    
      5 Si    c    0.374829 *  0.679625 *  0.866272 *   4.00000    1.000000    
      6 Si    c    0.324310 *  0.705690 *  0.203410 *   4.00000    1.000000    
      7 Si    c    0.378100 *  0.704374 *  0.304066 *   4.00000    1.000000    
      8 Si    c    0.327286 *  0.614054 *  0.968616 *   4.00000    1.000000    
      9 Si    c    0.297034 *  0.674733 *  0.635748 *   4.00000    1.000000    
     10 Si    c    0.631301 *  0.295125 *  0.799889 *   4.00000    1.000000    
     11 Si    c    0.676401 *  0.378808 *  0.468818 *   4.00000    1.000000    
     12 Si    c    0.700373 *  0.325066 *  0.136649 *   4.00000    1.000000    
     13 Si    c    0.527738 *  0.401557 *  0.966434 *   4.00000    1.000000    
     14 Si    c    0.582209 *  0.115793 *  0.303490 *   4.00000    1.000000    
     15 Si    c    0.888205 *  0.468005 *  0.634519 *   4.00000    1.000000    
     16 Si    c    0.470344 *  0.583473 *  0.470467 *   4.00000    1.000000    
     17 Si    c    0.418458 *  0.892096 *  0.802364 *   4.00000    1.000000    
     18 Si    c    0.115219 *  0.533670 *  0.138282 *   4.00000    1.000000    
     19 Si    c    0.416908 *  0.531686 *  0.368763 *   4.00000    1.000000    
     20 Si    c    0.122797 *  0.587706 *  0.034464 *   4.00000    1.000000    
     21 Si    c    0.468702 *  0.884661 *  0.701264 *   4.00000    1.000000    
     22 Si    c    0.591988 *  0.462242 *  0.863595 *   4.00000    1.000000    
     23 Si    c    0.888355 *  0.416446 *  0.533048 *   4.00000    1.000000    
     24 Si    c    0.529101 *  0.112645 *  0.201760 *   4.00000    1.000000    
     25 Ge    c    0.320017 *  0.410805 *  0.857149 *   4.00000    1.000000    
     26 Si    c    0.602157 *  0.905343 *  0.188085 *   4.00000    1.000000    
     27 Si    c    0.097217 *  0.697197 *  0.519726 *   4.00000    1.000000    
     28 Si    c    0.696656 *  0.604102 *  0.353851 *   4.00000    1.000000    
     29 Si    c    0.400021 *  0.095485 *  0.686061 *   4.00000    1.000000    
     30 Si    c    0.908224 *  0.302431 *  0.019999 *   4.00000    1.000000    
     31 Si    c    0.398436 *  0.301529 *  0.484196 *   4.00000    1.000000    
     32 Si    c    0.903064 *  0.606559 *  0.154618 *   4.00000    1.000000    
     33 Si    c    0.703093 *  0.091729 *  0.815977 *   4.00000    1.000000    
     34 Si    c    0.608672 *  0.689949 *  0.984688 *   4.00000    1.000000    
     35 Si    c    0.095965 *  0.394860 *  0.649838 *   4.00000    1.000000    
     36 Si    c    0.300905 *  0.905805 *  0.318073 *   4.00000    1.000000    
     37 Si    c    0.245507 *  0.324736 *  0.953414 *   4.00000    1.000000    
     38 Si    c    0.659539 *  0.914192 *  0.289024 *   4.00000    1.000000    
     39 Si    c    0.088742 *  0.747856 *  0.620179 *   4.00000    1.000000    
     40 Si    c    0.748860 *  0.660874 *  0.454587 *   4.00000    1.000000    
     41 Si    c    0.345046 *  0.095954 *  0.786701 *   4.00000    1.000000    
     42 Si    c    0.913616 *  0.251723 *  0.122360 *   4.00000    1.000000    
     43 Si    c    0.340016 *  0.253095 *  0.383373 *   4.00000    1.000000    
     44 Ge    c    0.913348 *  0.643265 *  0.054469 *   4.00000    1.000000    
     45 Si    c    0.749583 *  0.082935 *  0.715190 *   4.00000    1.000000    
     46 Ge    c    0.664219 *  0.746394 *  0.881480 *   4.00000    1.000000    
     47 Si    c    0.089424 *  0.339562 *  0.548917 *   4.00000    1.000000    
     48 Si    c    0.250407 *  0.912602 *  0.217080 *   4.00000    1.000000    
     49 Si    c    0.967723 *  0.113944 *  0.970997 *   4.00000    1.000000    
     50 Si    c    0.877654 *  0.853542 *  0.304237 *   4.00000    1.000000    
     51 Si    c    0.151155 *  0.027965 *  0.636070 *   4.00000    1.000000    
     52 Si    c    0.029506 *  0.878490 *  0.469927 *   4.00000    1.000000    
     53 Si    c    0.131657 *  0.164376 *  0.803064 *   4.00000    1.000000    
     54 Si    c    0.847856 *  0.969057 *  0.136957 *   4.00000    1.000000    
     55 Si    c    0.121777 *  0.973402 *  0.369100 *   4.00000    1.000000    
     56 Si    c    0.853636 *  0.869098 *  0.037367 *   4.00000    1.000000    
     57 Si    c    0.029828 *  0.147659 *  0.701901 *   4.00000    1.000000    
     58 Si    c    0.887775 *  0.030547 *  0.867774 *   4.00000    1.000000    
     59 Si    c    0.150926 *  0.121728 *  0.535006 *   4.00000    1.000000    
     60 Si    c    0.970888 *  0.851559 *  0.204141 *   4.00000    1.000000    
     61 O2    c    0.919287 *  0.992013 *  0.003564 *   0.87073    1.000000    
     62 O2    c    0.998284 *  0.931330 *  0.337382 *   0.87073    1.000000    
     63 O2    c    0.073419 *  0.068506 *  0.669753 *   0.87073    1.000000    
     64 O2    c    0.070618 *  0.998807 *  0.502950 *   0.87073    1.000000    
     65 O2    c    0.013389 *  0.082717 *  0.837413 *   0.87073    1.000000    
     66 O2    c    0.926588 *  0.927137 *  0.170190 *   0.87073    1.000000    
     67 O2    c    0.339451 *  0.581103 *  0.336658 *   0.87073    1.000000    
     68 O2    c    0.418701 *  0.758291 *  0.669154 *   0.87073    1.000000    
     69 O2    c    0.251338 *  0.654924 *  0.003721 *   0.87073    1.000000    
     70 O2    c    0.676030 *  0.417231 *  0.833604 *   0.87073    1.000000    
     71 O2    c    0.578095 *  0.237838 *  0.168713 *   0.87073    1.000000    
     72 O2    c    0.762093 *  0.339671 *  0.500699 *   0.87073    1.000000    
     73 O2    c    0.574928 *  0.325485 *  0.000147 *   0.87073    1.000000    
     74 O2    c    0.762369 *  0.416831 *  0.666447 *   0.87073    1.000000    
     75 O2    c    0.658801 *  0.241966 *  0.335397 *   0.87073    1.000000    
     76 O2    c    0.422267 *  0.659950 *  0.502885 *   0.87073    1.000000    
     77 O2    c    0.239531 *  0.581294 *  0.170991 *   0.87073    1.000000    
     78 O2    c    0.339348 *  0.772930 *  0.837174 *   0.87073    1.000000    
     79 O2    c    0.122004 *  0.204494 *  0.978043 *   0.87073    1.000000    
     80 O2    c    0.786123 *  0.915947 *  0.309642 *   0.87073    1.000000    
     81 O2    c    0.087388 *  0.873081 *  0.640292 *   0.87073    1.000000    
     82 O2    c    0.875152 *  0.787170 *  0.474698 *   0.87073    1.000000    
     83 O2    c    0.223419 *  0.100079 *  0.807639 *   0.87073    1.000000    
     84 O2    c    0.910479 *  0.124635 *  0.142509 *   0.87073    1.000000    
     85 O2    c    0.213227 *  0.127385 *  0.363029 *   0.87073    1.000000    
     86 O3    c    0.922950 *  0.788982 *  0.033226 *   1.33043    1.000000    
     87 O2    c    0.875267 *  0.082278 *  0.695218 *   0.87073    1.000000    
     88 O3    c    0.802777 *  0.878235 *  0.860630 *   1.33043    1.000000    
     89 O2    c    0.089140 *  0.213574 *  0.528512 *   0.87073    1.000000    
     90 O2    c    0.124799 *  0.914568 *  0.197282 *   0.87073    1.000000    
     91 O2    c    0.934318 *  0.872671 *  0.254080 *   0.87073    1.000000    
     92 O2    c    0.136893 *  0.070640 *  0.585877 *   0.87073    1.000000    
     93 O2    c    0.928523 *  0.064080 *  0.920193 *   0.87073    1.000000    
     94 O2    c    0.068674 *  0.137403 *  0.752786 *   0.87073    1.000000    
     95 O2    c    0.860203 *  0.931016 *  0.086520 *   0.87073    1.000000    
     96 O2    c    0.070826 *  0.934317 *  0.419710 *   0.87073    1.000000    
     97 O2    c    0.903562 *  0.202113 *  0.982648 *   0.87073    1.000000    
     98 O2    c    0.794355 *  0.701111 *  0.315269 *   0.87073    1.000000    
     99 O2    c    0.303134 *  0.096204 *  0.647333 *   0.87073    1.000000    
    100 O2    c    0.098944 *  0.796064 *  0.481268 *   0.87073    1.000000    
    101 O3    c    0.210344 *  0.311369 *  0.813516 *   1.33043    1.000000    
    102 O2    c    0.696921 *  0.902060 *  0.149617 *   0.87073    1.000000    
    103 O2    c    0.202865 *  0.903479 *  0.356286 *   0.87073    1.000000    
    104 O2    c    0.700034 *  0.776011 *  0.026032 *   0.87073    1.000000    
    105 O2    c    0.097695 *  0.298865 *  0.688393 *   0.87073    1.000000    
    106 O2    c    0.797880 *  0.092120 *  0.855396 *   0.87073    1.000000    
    107 O2    c    0.302528 *  0.202914 *  0.522611 *   0.87073    1.000000    
    108 O2    c    0.903377 *  0.697406 *  0.195950 *   0.87073    1.000000    
    109 O2    c    0.322691 *  0.647273 *  0.253576 *   0.87073    1.000000    
    110 O2    c    0.355287 *  0.677584 *  0.585470 *   0.87073    1.000000    
    111 O2    c    0.325240 *  0.671714 *  0.918842 *   0.87073    1.000000    
    112 O2    c    0.684511 *  0.352942 *  0.749413 *   0.87073    1.000000    
    113 O2    c    0.648226 *  0.324825 *  0.085532 *   0.87073    1.000000    
    114 O2    c    0.677015 *  0.323816 *  0.418296 *   0.87073    1.000000    
    115 O2    c    0.371871 *  0.316947 *  0.969225 *   0.87073    1.000000    
    116 O2    c    0.669704 *  0.047266 *  0.306392 *   0.87073    1.000000    
    117 O2    c    0.955936 *  0.624279 *  0.637759 *   0.87073    1.000000    
    118 O2    c    0.626764 *  0.670614 *  0.472958 *   0.87073    1.000000    
    119 O2    c    0.332534 *  0.961642 *  0.804368 *   0.87073    1.000000    
    120 O2    c    0.044045 *  0.376947 *  0.140093 *   0.87073    1.000000    
    121 O2    c    0.329247 *  0.375390 *  0.365072 *   0.87073    1.000000    
    122 O3    c    0.061394 *  0.677706 *  0.029017 *   1.33043    1.000000    
    123 O2    c    0.624765 *  0.951324 *  0.697232 *   0.87073    1.000000    
    124 O3    c    0.677588 *  0.617163 *  0.863203 *   1.33043    1.000000    
    125 O2    c    0.957273 *  0.329278 *  0.529869 *   0.87073    1.000000    
    126 O2    c    0.373140 *  0.044090 *  0.197903 *   0.87073    1.000000    
    127 O2    c    0.775804 *  0.305532 *  0.014472 *   0.87073    1.000000    
    128 O2    c    0.695169 *  0.469557 *  0.345672 *   0.87073    1.000000    
    129 O2    c    0.536262 *  0.226206 *  0.677162 *   0.87073    1.000000    
    130 O2    c    0.230977 *  0.696958 *  0.512136 *   0.87073    1.000000    
    131 O3    c    0.299792 *  0.542928 *  0.842179 *   1.33043    1.000000    
    132 O2    c    0.466483 *  0.772690 *  0.180388 *   0.87073    1.000000    
    133 O2    c    0.302385 *  0.772445 *  0.325493 *   0.87073    1.000000    
    134 O2    c    0.472617 *  0.686678 *  0.988453 *   0.87073    1.000000    
    135 O2    c    0.229127 *  0.530194 *  0.657184 *   0.87073    1.000000    
    136 O2    c    0.706862 *  0.227429 *  0.821981 *   0.87073    1.000000    
    137 O2    c    0.533225 *  0.302767 *  0.491080 *   0.87073    1.000000    
    138 O2    c    0.769210 *  0.468405 *  0.158637 *   0.87073    1.000000    
    139 O3    c    0.769460 *  0.528683 *  0.026919 *   1.33043    1.000000    
    140 O2    c    0.463928 *  0.250899 *  0.363223 *   0.87073    1.000000    
    141 O2    c    0.752972 *  0.210528 *  0.695177 *   0.87073    1.000000    
    142 O2    c    0.216778 *  0.465121 *  0.529801 *   0.87073    1.000000    
    143 O3    c    0.530833 *  0.748649 *  0.861917 *   1.33043    1.000000    
    144 O2    c    0.247618 *  0.785132 *  0.197661 *   0.87073    1.000000    
    145 O2    c    0.533986 *  0.788554 *  0.308824 *   0.87073    1.000000    
    146 O2    c    0.256296 *  0.458309 *  0.971311 *   0.87073    1.000000    
    147 O2    c    0.214281 *  0.747786 *  0.640051 *   0.87073    1.000000    
    148 O2    c    0.475825 *  0.217381 *  0.805782 *   0.87073    1.000000    
    149 O2    c    0.749444 *  0.534874 *  0.473829 *   0.87073    1.000000    
    150 O2    c    0.791400 *  0.261298 *  0.139159 *   0.87073    1.000000    
    151 O3    c    0.219947 *  0.303786 *  0.900594 *   1.33043    1.000000    
    152 O2    c    0.676296 *  0.909747 *  0.234716 *   0.87073    1.000000    
    153 O2    c    0.091980 *  0.767815 *  0.565772 *   0.87073    1.000000    
    154 O2    c    0.767714 *  0.678648 *  0.400189 *   0.87073    1.000000    
    155 O2    c    0.328405 *  0.097528 *  0.732150 *   0.87073    1.000000    
    156 O2    c    0.914058 *  0.240780 *  0.068153 *   0.87073    1.000000    
    157 O2    c    0.323274 *  0.232374 *  0.437650 *   0.87073    1.000000    
    158 O3    c    0.908129 *  0.689060 *  0.111387 *   1.33043    1.000000    
    159 O2    c    0.769763 *  0.082881 *  0.769519 *   0.87073    1.000000    
    160 O3    c    0.682296 *  0.763154 *  0.939666 *   1.33043    1.000000    
    161 O2    c    0.090953 *  0.321239 *  0.603202 *   0.87073    1.000000    
    162 O2    c    0.231755 *  0.910804 *  0.271368 *   0.87073    1.000000    
    163 O2    c    0.580578 *  0.544136 *  0.986909 *   0.87073    1.000000    
    164 O2    c    0.441179 *  0.030657 *  0.326391 *   0.87073    1.000000    
    165 O2    c    0.971670 *  0.410506 *  0.657896 *   0.87073    1.000000    
    166 O2    c    0.413935 *  0.441470 *  0.493046 *   0.87073    1.000000    
    167 O2    c    0.561150 *  0.970315 *  0.825179 *   0.87073    1.000000    
    168 O2    c    0.025977 *  0.585243 *  0.160294 *   0.87073    1.000000    
    169 O2    c    0.557461 *  0.590845 *  0.345049 *   0.87073    1.000000    
    170 O2    c    0.032222 *  0.443581 *  0.012957 *   0.87073    1.000000    
    171 O2    c    0.409782 *  0.967328 *  0.678077 *   0.87073    1.000000    
    172 O3    c    0.456691 *  0.406858 *  0.837908 *   1.33043    1.000000    
    173 O2    c    0.971528 *  0.558179 *  0.509877 *   0.87073    1.000000    
    174 O2    c    0.590571 *  0.032491 *  0.178830 *   0.87073    1.000000    
    175 O2    c    0.581763 *  0.168044 *  0.252354 *   0.87073    1.000000    
    176 O2    c    0.834762 *  0.415273 *  0.583657 *   0.87073    1.000000    
    177 O2    c    0.580120 *  0.405739 *  0.915582 *   0.87073    1.000000    
    178 O2    c    0.416399 *  0.832857 *  0.752353 *   0.87073    1.000000    
    179 O2    c    0.165707 *  0.584637 *  0.087254 *   0.87073    1.000000    
    180 O2    c    0.416831 *  0.583853 *  0.419570 *   0.87073    1.000000    
    181 F     c    0.451429 *  0.906498 *  0.251347 *   0.56000    1.000000    
    182 F     c    0.095576 *  0.547057 *  0.583420 *   0.56000    1.000000    
    183 F     c    0.433778 *  0.520917 *  0.905576 *   0.56000    1.000000    
    184 F     c    0.551580 *  0.093313 *  0.750269 *   0.56000    1.000000    
    185 F     c    0.909249 *  0.491867 *  0.080951 *   0.56000    1.000000    
    186 F     c    0.547154 *  0.452790 *  0.417811 *   0.56000    1.000000    
    187 O2    s    0.917837 *  0.992961 *  0.003414 *  -2.87073    1.000000    
    188 O2    s    0.998528 *  0.927259 *  0.337193 *  -2.87073    1.000000    
    189 O2    s    0.077354 *  0.072657 *  0.669503 *  -2.87073    1.000000    
    190 O2    s    0.074980 *  0.999024 *  0.502816 *  -2.87073    1.000000    
    191 O2    s    0.011456 *  0.085363 *  0.837257 *  -2.87073    1.000000    
    192 O2    s    0.922685 *  0.923439 *  0.170252 *  -2.87073    1.000000    
    193 O2    s    0.351400 *  0.588941 *  0.336521 *  -2.87073    1.000000    
    194 O2    s    0.411176 *  0.762540 *  0.668966 *  -2.87073    1.000000    
    195 O2    s    0.245822 *  0.643421 *  0.003233 *  -2.87073    1.000000    
    196 O2    s    0.662989 *  0.409315 *  0.833185 *  -2.87073    1.000000    
    197 O2    s    0.586132 *  0.234417 *  0.168646 *  -2.87073    1.000000    
    198 O2    s    0.766116 *  0.351595 *  0.500685 *  -2.87073    1.000000    
    199 O2    s    0.582417 *  0.338126 *  0.000066 *  -2.87073    1.000000    
    200 O2    s    0.767005 *  0.409436 *  0.666526 *  -2.87073    1.000000    
    201 O2    s    0.646852 *  0.237361 *  0.335414 *  -2.87073    1.000000    
    202 O2    s    0.414649 *  0.648091 *  0.502808 *  -2.87073    1.000000    
    203 O2    s    0.235039 *  0.588914 *  0.170851 *  -2.87073    1.000000    
    204 O2    s    0.351174 *  0.775588 *  0.836619 *  -2.87073    1.000000    
    205 O2    s    0.118464 *  0.207260 *  0.974868 *  -2.87073    1.000000    
    206 O2    s    0.782635 *  0.909170 *  0.306946 *  -2.87073    1.000000    
    207 O2    s    0.094265 *  0.876429 *  0.637780 *  -2.87073    1.000000    
    208 O2    s    0.878384 *  0.783715 *  0.472123 *  -2.87073    1.000000    
    209 O2    s    0.227339 *  0.106035 *  0.804957 *  -2.87073    1.000000    
    210 O2    s    0.904478 *  0.122484 *  0.139819 *  -2.87073    1.000000    
    211 O2    s    0.216564 *  0.123931 *  0.365749 *  -2.87073    1.000000    
    212 O3    s    0.914504 *  0.788410 *  0.035061 *  -3.33043    1.000000    
    213 O2    s    0.878412 *  0.089136 *  0.697944 *  -2.87073    1.000000    
    214 O3    s    0.800301 *  0.883088 *  0.862975 *  -3.33043    1.000000    
    215 O2    s    0.095747 *  0.216796 *  0.531272 *  -2.87073    1.000000    
    216 O2    s    0.121668 *  0.907754 *  0.200024 *  -2.87073    1.000000    
    217 O2    s    0.932075 *  0.868112 *  0.254060 *  -2.87073    1.000000    
    218 O2    s    0.140086 *  0.071653 *  0.585713 *  -2.87073    1.000000    
    219 O2    s    0.928564 *  0.066115 *  0.920298 *  -2.87073    1.000000    
    220 O2    s    0.070832 *  0.141401 *  0.752221 *  -2.87073    1.000000    
    221 O2    s    0.858066 *  0.928845 *  0.087167 *  -2.87073    1.000000    
    222 O2    s    0.071997 *  0.932491 *  0.419576 *  -2.87073    1.000000    
    223 O2    s    0.910619 *  0.203828 *  0.985443 *  -2.87073    1.000000    
    224 O2    s    0.793311 *  0.707505 *  0.317995 *  -2.87073    1.000000    
    225 O2    s    0.296786 *  0.088844 *  0.650074 *  -2.87073    1.000000    
    226 O2    s    0.091338 *  0.794839 *  0.483960 *  -2.87073    1.000000    
    227 O3    s    0.208681 *  0.301266 *  0.815216 *  -3.33043    1.000000    
    228 O2    s    0.703204 *  0.909531 *  0.152234 *  -2.87073    1.000000    
    229 O2    s    0.204451 *  0.911111 *  0.353685 *  -2.87073    1.000000    
    230 O2    s    0.705372 *  0.776010 *  0.022811 *  -2.87073    1.000000    
    231 O2    s    0.090386 *  0.292989 *  0.685785 *  -2.87073    1.000000    
    232 O2    s    0.797340 *  0.085724 *  0.852578 *  -2.87073    1.000000    
    233 O2    s    0.296421 *  0.204495 *  0.519967 *  -2.87073    1.000000    
    234 O2    s    0.910352 *  0.704361 *  0.192738 *  -2.87073    1.000000    
    235 O2    s    0.328525 *  0.659146 *  0.253543 *  -2.87073    1.000000    
    236 O2    s    0.343559 *  0.671538 *  0.585396 *  -2.87073    1.000000    
    237 O2    s    0.330222 *  0.666437 *  0.918939 *  -2.87073    1.000000    
    238 O2    s    0.678581 *  0.340898 *  0.749444 *  -2.87073    1.000000    
    239 O2    s    0.658710 *  0.329936 *  0.085699 *  -2.87073    1.000000    
    240 O2    s    0.671069 *  0.329650 *  0.418276 *  -2.87073    1.000000    
    241 O2    s    0.375236 *  0.326541 *  0.967311 *  -2.87073    1.000000    
    242 O2    s    0.659599 *  0.040366 *  0.304251 *  -2.87073    1.000000    
    243 O2    s    0.962864 *  0.621120 *  0.635577 *  -2.87073    1.000000    
    244 O2    s    0.623463 *  0.660632 *  0.470765 *  -2.87073    1.000000    
    245 O2    s    0.342945 *  0.968398 *  0.802281 *  -2.87073    1.000000    
    246 O2    s    0.037497 *  0.379692 *  0.138030 *  -2.87073    1.000000    
    247 O2    s    0.339424 *  0.378722 *  0.367372 *  -2.87073    1.000000    
    248 O3    s    0.057201 *  0.665908 *  0.031408 *  -3.33043    1.000000    
    249 O2    s    0.621881 *  0.958269 *  0.699531 *  -2.87073    1.000000    
    250 O3    s    0.668095 *  0.612662 *  0.864763 *  -3.33043    1.000000    
    251 O2    s    0.963980 *  0.339325 *  0.532189 *  -2.87073    1.000000    
    252 O2    s    0.376540 *  0.037518 *  0.200304 *  -2.87073    1.000000    
    253 O2    s    0.782220 *  0.312433 *  0.017088 *  -2.87073    1.000000    
    254 O2    s    0.687604 *  0.468951 *  0.348874 *  -2.87073    1.000000    
    255 O2    s    0.536666 *  0.219307 *  0.680420 *  -2.87073    1.000000    
    256 O2    s    0.223857 *  0.689233 *  0.515315 *  -2.87073    1.000000    
    257 O3    s    0.309085 *  0.547541 *  0.845809 *  -3.33043    1.000000    
    258 O2    s    0.466120 *  0.779779 *  0.183609 *  -2.87073    1.000000    
    259 O2    s    0.310060 *  0.779495 *  0.322458 *  -2.87073    1.000000    
    260 O2    s    0.471582 *  0.679294 *  0.985935 *  -2.87073    1.000000    
    261 O2    s    0.222141 *  0.530909 *  0.654154 *  -2.87073    1.000000    
    262 O2    s    0.698565 *  0.219896 *  0.818974 *  -2.87073    1.000000    
    263 O2    s    0.533768 *  0.310463 *  0.488030 *  -2.87073    1.000000    
    264 O2    s    0.775604 *  0.467482 *  0.155905 *  -2.87073    1.000000    
    265 O3    s    0.773092 *  0.521718 *  0.029618 *  -3.33043    1.000000    
    266 O2    s    0.466839 *  0.259045 *  0.365873 *  -2.87073    1.000000    
    267 O2    s    0.744900 *  0.205375 *  0.697737 *  -2.87073    1.000000    
    268 O2    s    0.211436 *  0.467833 *  0.532383 *  -2.87073    1.000000    
    269 O3    s    0.527810 *  0.741867 *  0.863994 *  -3.33043    1.000000    
    270 O2    s    0.255906 *  0.790686 *  0.200294 *  -2.87073    1.000000    
    271 O2    s    0.531316 *  0.793517 *  0.306196 *  -2.87073    1.000000    
    272 O2    s    0.262794 *  0.461130 *  0.969182 *  -2.87073    1.000000    
    273 O2    s    0.209171 *  0.740040 *  0.637463 *  -2.87073    1.000000    
    274 O2    s    0.477996 *  0.212236 *  0.803125 *  -2.87073    1.000000    
    275 O2    s    0.741639 *  0.532253 *  0.471238 *  -2.87073    1.000000    
    276 O2    s    0.795208 *  0.267101 *  0.137068 *  -2.87073    1.000000    
    277 O3    s    0.229603 *  0.313404 *  0.903166 *  -3.33043    1.000000    
    278 O2    s    0.666725 *  0.909748 *  0.235532 *  -2.87073    1.000000    
    279 O2    s    0.092180 *  0.758314 *  0.566696 *  -2.87073    1.000000    
    280 O2    s    0.758260 *  0.668951 *  0.401049 *  -2.87073    1.000000    
    281 O2    s    0.337715 *  0.097165 *  0.733006 *  -2.87073    1.000000    
    282 O2    s    0.913405 *  0.248545 *  0.068993 *  -2.87073    1.000000    
    283 O2    s    0.332919 *  0.241815 *  0.436743 *  -2.87073    1.000000    
    284 O3    s    0.907961 *  0.677364 *  0.111799 *  -3.33043    1.000000    
    285 O2    s    0.760641 *  0.083789 *  0.768665 *  -2.87073    1.000000    
    286 O3    s    0.673329 *  0.754337 *  0.939557 *  -3.33043    1.000000    
    287 O2    s    0.091320 *  0.330894 *  0.602291 *  -2.87073    1.000000    
    288 O2    s    0.241027 *  0.910482 *  0.270499 *  -2.87073    1.000000    
    289 O2    s    0.577792 *  0.544832 *  0.984451 *  -2.87073    1.000000    
    290 O2    s    0.440801 *  0.025918 *  0.323082 *  -2.87073    1.000000    
    291 O2    s    0.976544 *  0.415027 *  0.654564 *  -2.87073    1.000000    
    292 O2    s    0.418356 *  0.441252 *  0.489717 *  -2.87073    1.000000    
    293 O2    s    0.561704 *  0.975447 *  0.821812 *  -2.87073    1.000000    
    294 O2    s    0.022450 *  0.581856 *  0.157357 *  -2.87073    1.000000    
    295 O2    s    0.557798 *  0.585957 *  0.348454 *  -2.87073    1.000000    
    296 O2    s    0.027601 *  0.442587 *  0.015863 *  -2.87073    1.000000    
    297 O2    s    0.415064 *  0.972609 *  0.681368 *  -2.87073    1.000000    
    298 O3    s    0.460093 *  0.413007 *  0.841933 *  -3.33043    1.000000    
    299 O2    s    0.976525 *  0.558332 *  0.513345 *  -2.87073    1.000000    
    300 O2    s    0.585310 *  0.027200 *  0.182190 *  -2.87073    1.000000    
    301 O2    s    0.576297 *  0.156880 *  0.252319 *  -2.87073    1.000000    
    302 O2    s    0.845933 *  0.420882 *  0.583636 *  -2.87073    1.000000    
    303 O2    s    0.575647 *  0.410680 *  0.915957 *  -2.87073    1.000000    
    304 O2    s    0.422020 *  0.844195 *  0.752192 *  -2.87073    1.000000    
    305 O2    s    0.156115 *  0.579593 *  0.087391 *  -2.87073    1.000000    
    306 O2    s    0.422367 *  0.578373 *  0.419519 *  -2.87073    1.000000    
    307 F     s    0.451201 *  0.906131 *  0.251147 *  -1.56000    1.000000    
    308 F     s    0.095891 *  0.547300 *  0.583282 *  -1.56000    1.000000    
    309 F     s    0.428133 *  0.515648 *  0.902891 *  -1.56000    1.000000    
    310 F     s    0.551849 *  0.093619 *  0.750231 *  -1.56000    1.000000    
    311 F     s    0.909193 *  0.500148 *  0.079505 *  -1.56000    1.000000    
    312 F     s    0.547299 *  0.452548 *  0.417671 *  -1.56000    1.000000    
--------------------------------------------------------------------------------



********************************************************************************
*  General input information                                                   *
********************************************************************************

  Species output for all configurations : 

--------------------------------------------------------------------------------
  Species    Type    Atomic    Atomic    Charge       Radii (Angs)     Library
                     Number     Mass       (e)     Cova   Ionic  VDW   Symbol
--------------------------------------------------------------------------------
    Si       Core       14      28.09   4.000000   1.200  0.000  2.100          
    O1       Core        8      16.00   1.733957   0.730  0.000  1.360          
    O1       Shell       8       0.00  -3.733957   0.730  0.000  1.360          
    O2       Core        8      16.00   0.870733   0.730  0.000  1.360          
    O2       Shell       8       0.00  -2.870733   0.730  0.000  1.360          
    O3       Core        8      16.00   1.330431   0.730  0.000  1.360          
    O3       Shell       8       0.00  -3.330431   0.730  0.000  1.360          
    F        Core        9      19.00   0.560000   0.710  0.000  1.300          
    F        Shell       9       0.00  -1.560000   0.710  0.000  1.300          
    Ge       Core       32      72.61   4.000000   1.170  0.000  1.750          
--------------------------------------------------------------------------------


  Lattice summation method               =    Ewald          (3-D)
                                         =    Parry          (2-D)
                                         =    Saunders et al (1-D)
  Accuracy factor for lattice sums       =   12.000


  Time limit = Infinity

  Maximum range for interatomic potentials =        16.000000 Angstroms

  Taper potentials to zero over   1.0000 Angstroms using polynomial

  General interatomic potentials :

--------------------------------------------------------------------------------
Atom  Types   Potential         A         B         C         D     Cutoffs(Ang)
  1     2                                                            Min    Max 
--------------------------------------------------------------------------------
Si   c O1   s Buckingham    0.132E+04 0.318      10.1      0.00     0.000 16.000
Si   c O2   s Buckingham    0.132E+04 0.318      10.1      0.00     0.000 16.000
Si   c O3   s Buckingham    0.132E+04 0.318      10.1      0.00     0.000 16.000
Ge   c O1   s Buckingham    0.150E+04 0.326      16.8      0.00     0.000 16.000
Ge   c O2   s Buckingham    0.150E+04 0.326      16.8      0.00     0.000 16.000
Ge   c O3   s Buckingham    0.150E+04 0.326      16.8      0.00     0.000 16.000
O1   s O1   s Buckingham    0.228E+05 0.149      10.9      0.00     0.000 16.000
O1   s O2   s Buckingham    0.228E+05 0.149      10.9      0.00     0.000 16.000
O1   s O3   s Buckingham    0.228E+05 0.149      10.9      0.00     0.000 16.000
O2   s O2   s Buckingham    0.228E+05 0.149      10.9      0.00     0.000 16.000
O2   s O3   s Buckingham    0.228E+05 0.149      10.9      0.00     0.000 16.000
O3   s O3   s Buckingham    0.228E+05 0.149      10.9      0.00     0.000 16.000
Si   c F    s Buckingham     977.     0.282      0.00      0.00     0.000 16.000
Ge   c F    s Buckingham     681.     0.320      0.00      0.00     0.000 16.000
F    s F    s Buckingham     540.     0.262      0.00      0.00     0.000 16.000
O1   s F    s Buckingham    0.168E+04 0.268      0.00      0.00     0.000 16.000
O2   s F    s Buckingham    0.168E+04 0.268      0.00      0.00     0.000 16.000
O3   s F    s Buckingham    0.168E+04 0.268      0.00      0.00     0.000 16.000
O2   c O2   s Spring (c-s)   76.0      0.00      0.00      0.00     0.000  0.800
O3   c O3   s Spring (c-s)   128.      0.00      0.00      0.00     0.000  0.800
O1   c O1   s Spring (c-s)   180.      0.00      0.00      0.00     0.000  0.800
F    c F    s Spring (c-s)   33.5      0.00      0.00      0.00     0.000  0.800
--------------------------------------------------------------------------------

  General Three-body potentials :

  Harmonic form:

--------------------------------------------------------------------------------
Atom    Atom    Atom           Force Constants            Theta     Cutoffs  
  1       2       3     (eVrad**-2/eVrad**-3/eVrad**-4)   (deg)  1-2  1-3  2-3
--------------------------------------------------------------------------------
Si    c O1    s O1    s  1.261        0.0000    0.0000   109.470 0.00 0.00 0.00
                                                                 1.90 1.90 3.50
Si    c O1    s O2    s  1.261        0.0000    0.0000   109.470 0.00 0.00 0.00
                                                                 1.90 1.90 3.50
Si    c O2    s O2    s  1.261        0.0000    0.0000   109.470 0.00 0.00 0.00
                                                                 1.90 1.90 3.50
--------------------------------------------------------------------------------

********************************************************************************
*  Output for configuration   1                                                *
********************************************************************************


  Components of energy : 

--------------------------------------------------------------------------------
  Interatomic potentials     =        2063.48336083 eV
  Three-body potentials      =           0.48706615 eV
  Monopole - monopole (real) =       -6611.66735650 eV
  Monopole - monopole (recip)=       -3172.16347898 eV
  Monopole - monopole (total)=       -9783.83083548 eV
  Neutralising energy        =          -6.46170663 eV
--------------------------------------------------------------------------------
  Total lattice energy       =       -7726.32211513 eV
--------------------------------------------------------------------------------
  Total lattice energy       =         -745471.9765 kJ/(mole unit cells)
--------------------------------------------------------------------------------


  Number of variables =      939

  Maximum number of calculations  =          1000
  Maximum Hessian update interval =            10
  Maximum step size               =   1.000000000
  Maximum parameter tolerance     =   0.000010000
  Maximum function  tolerance     =   0.000010000
  Maximum gradient  tolerance     =   0.001000000
  Maximum gradient  component     =   0.010000000

  Symmetry not applied to optimisation

  Cell parameters to be optimised using strains

  Newton-Raphson optimiser to be used

  BFGS hessian update to be used

  Dumpfile to be written after every cycle

  Start of bulk optimisation :

  Cycle:      0 Energy:     -7726.322115  Gnorm:      0.007203  CPU:    1.141
  ** Hessian calculated **
  Cycle:      1 Energy:     -7726.353292  Gnorm:      0.002672  CPU:    3.047
  Cycle:      2 Energy:     -7726.353587  Gnorm:      0.000351  CPU:    4.429
  Cycle:      3 Energy:     -7726.353609  Gnorm:      0.000056  CPU:    5.810


  **** Optimisation achieved ****


  Final energy =   -7726.35360958 eV
  Final Gnorm  =       0.00001197

  Components of energy : 

--------------------------------------------------------------------------------
  Interatomic potentials     =        2063.63633380 eV
  Three-body potentials      =           0.50076768 eV
  Monopole - monopole (real) =       -6611.21640703 eV
  Monopole - monopole (recip)=       -3172.81127798 eV
  Monopole - monopole (total)=       -9784.02768501 eV
  Neutralising energy        =          -6.46302605 eV
--------------------------------------------------------------------------------
  Total lattice energy       =       -7726.35360958 eV
--------------------------------------------------------------------------------
  Total lattice energy       =         -745475.0152 kJ/(mole unit cells)
--------------------------------------------------------------------------------

  Final fractional coordinates of atoms :

--------------------------------------------------------------------------------
   No.  Atomic        x           y          z          Radius
        Label       (Frac)      (Frac)     (Frac)       (Angs) 
--------------------------------------------------------------------------------
     1  Si    c     0.699600    0.375700    0.033890    0.000000
     2  Si    c     0.625288    0.331900    0.369753    0.000000
     3  Si    c     0.687861    0.296758    0.700910    0.000000
     4  Si    c     0.306868    0.625896    0.537831    0.000000
     5  Si    c     0.376916    0.680723    0.868437    0.000000
     6  Si    c     0.325672    0.708155    0.205646    0.000000
     7  Si    c     0.383222    0.710839    0.306412    0.000000
     8  Si    c     0.327475    0.611960    0.970605    0.000000
     9  Si    c     0.303830    0.677139    0.638559    0.000000
    10  Si    c     0.640353    0.300069    0.801315    0.000000
    11  Si    c     0.684313    0.383415    0.470471    0.000000
    12  Si    c     0.701399    0.327350    0.137205    0.000000
    13  Si    c     0.525854    0.398375    0.966771    0.000000
    14  Si    c     0.586593    0.122142    0.304493    0.000000
    15  Si    c     0.895830    0.470629    0.636071    0.000000
    16  Si    c     0.479181    0.589185    0.473373    0.000000
    17  Si    c     0.427487    0.897432    0.805264    0.000000
    18  Si    c     0.115922    0.534672    0.140395    0.000000
    19  Si    c     0.423233    0.538961    0.371586    0.000000
    20  Si    c     0.123862    0.587656    0.036243    0.000000
    21  Si    c     0.475929    0.887545    0.704019    0.000000
    22  Si    c     0.593368    0.462679    0.864311    0.000000
    23  Si    c     0.897116    0.420506    0.534437    0.000000
    24  Si    c     0.530875    0.116126    0.202739    0.000000
    25  Ge    c     0.321442    0.411989    0.859075    0.000000
    26  Si    c     0.603113    0.907951    0.189779    0.000000
    27  Si    c     0.106060    0.701783    0.521634    0.000000
    28  Si    c     0.702302    0.610639    0.356322    0.000000
    29  Si    c     0.407567    0.098941    0.688324    0.000000
    30  Si    c     0.908829    0.302489    0.021231    0.000000
    31  Si    c     0.407210    0.306942    0.486660    0.000000
    32  Si    c     0.904204    0.608654    0.156069    0.000000
    33  Si    c     0.712371    0.097413    0.817859    0.000000
    34  Si    c     0.608642    0.687021    0.986470    0.000000
    35  Si    c     0.103006    0.396950    0.652101    0.000000
    36  Si    c     0.306020    0.912557    0.319694    0.000000
    37  Si    c     0.244008    0.322099    0.954794    0.000000
    38  Si    c     0.664164    0.920390    0.290630    0.000000
    39  Si    c     0.096271    0.750628    0.622244    0.000000
    40  Si    c     0.756887    0.665993    0.457087    0.000000
    41  Si    c     0.353904    0.101476    0.789022    0.000000
    42  Si    c     0.914088    0.252886    0.123841    0.000000
    43  Si    c     0.345989    0.259741    0.385806    0.000000
    44  Ge    c     0.914213    0.642414    0.055734    0.000000
    45  Si    c     0.756993    0.085961    0.717080    0.000000
    46  Ge    c     0.667080    0.747466    0.883538    0.000000
    47  Si    c     0.098145    0.343869    0.550973    0.000000
    48  Si    c     0.252698    0.916255    0.218715    0.000000
    49  Si    c     0.967579    0.112193    0.973115    0.000000
    50  Si    c     0.882582    0.859916    0.306219    0.000000
    51  Si    c     0.158415    0.030650    0.638122    0.000000
    52  Si    c     0.037804    0.883088    0.471943    0.000000
    53  Si    c     0.136530    0.164689    0.805309    0.000000
    54  Si    c     0.847557    0.969524    0.138713    0.000000
    55  Si    c     0.127291    0.980045    0.371032    0.000000
    56  Si    c     0.852810    0.866911    0.039454    0.000000
    57  Si    c     0.036065    0.148838    0.703951    0.000000
    58  Si    c     0.893083    0.031062    0.869513    0.000000
    59  Si    c     0.160168    0.126414    0.537135    0.000000
    60  Si    c     0.972756    0.853877    0.205935    0.000000
    61  O2    c     0.916692    0.990520    0.005901    0.000000
    62  O2    c     0.003808    0.938921    0.339207    0.000000
    63  O2    c     0.080011    0.070375    0.671684    0.000000
    64  O2    c     0.080370    0.003889    0.504844    0.000000
    65  O2    c     0.019172    0.079584    0.839665    0.000000
    66  O2    c     0.926899    0.928826    0.172247    0.000000
    67  O2    c     0.345635    0.588835    0.339650    0.000000
    68  O2    c     0.424896    0.760231    0.672346    0.000000
    69  O2    c     0.252698    0.653676    0.005831    0.000000
    70  O2    c     0.681771    0.422305    0.834771    0.000000
    71  O2    c     0.578985    0.240213    0.169182    0.000000
    72  O2    c     0.771133    0.344098    0.501813    0.000000
    73  O2    c     0.574530    0.322993    0.000383    0.000000
    74  O2    c     0.769584    0.419276    0.667632    0.000000
    75  O2    c     0.663342    0.248797    0.336275    0.000000
    76  O2    c     0.431574    0.665377    0.506079    0.000000
    77  O2    c     0.239930    0.582964    0.173512    0.000000
    78  O2    c     0.346299    0.778594    0.839953    0.000000
    79  O2    c     0.121865    0.202461    0.980171    0.000000
    80  O2    c     0.791528    0.923056    0.311053    0.000000
    81  O2    c     0.094639    0.875749    0.642304    0.000000
    82  O2    c     0.883790    0.791615    0.477318    0.000000
    83  O2    c     0.232419    0.105182    0.810060    0.000000
    84  O2    c     0.910342    0.125297    0.143891    0.000000
    85  O2    c     0.218275    0.134394    0.365637    0.000000
    86  O3    c     0.923770    0.788585    0.034822    0.000000
    87  O2    c     0.881706    0.083988    0.696994    0.000000
    88  O3    c     0.804362    0.878994    0.862076    0.000000
    89  O2    c     0.098477    0.218300    0.530464    0.000000
    90  O2    c     0.126490    0.917091    0.198841    0.000000
    91  O2    c     0.938098    0.875849    0.256040    0.000000
    92  O2    c     0.145005    0.074271    0.587934    0.000000
    93  O2    c     0.930661    0.061067    0.922310    0.000000
    94  O2    c     0.073696    0.136369    0.754888    0.000000
    95  O2    c     0.858700    0.928828    0.088555    0.000000
    96  O2    c     0.076454    0.938389    0.421539    0.000000
    97  O2    c     0.904391    0.201678    0.984052    0.000000
    98  O2    c     0.799314    0.707900    0.317766    0.000000
    99  O2    c     0.310224    0.098867    0.649577    0.000000
   100  O2    c     0.107788    0.800890    0.483142    0.000000
   101  O3    c     0.211503    0.311999    0.815590    0.000000
   102  O2    c     0.696852    0.903209    0.151318    0.000000
   103  O2    c     0.208755    0.910954    0.357932    0.000000
   104  O2    c     0.699400    0.771358    0.028285    0.000000
   105  O2    c     0.104083    0.300363    0.690674    0.000000
   106  O2    c     0.808475    0.098282    0.856924    0.000000
   107  O2    c     0.311900    0.207900    0.525107    0.000000
   108  O2    c     0.905103    0.699640    0.197526    0.000000
   109  O2    c     0.326250    0.651910    0.256111    0.000000
   110  O2    c     0.363046    0.681092    0.588425    0.000000
   111  O2    c     0.325859    0.670506    0.920886    0.000000
   112  O2    c     0.693842    0.357779    0.750846    0.000000
   113  O2    c     0.649683    0.327094    0.085966    0.000000
   114  O2    c     0.683154    0.328746    0.419704    0.000000
   115  O2    c     0.370400    0.313217    0.969972    0.000000
   116  O2    c     0.674450    0.053969    0.307569    0.000000
   117  O2    c     0.963433    0.626917    0.639546    0.000000
   118  O2    c     0.635543    0.676175    0.475830    0.000000
   119  O2    c     0.342509    0.967840    0.806921    0.000000
   120  O2    c     0.044305    0.377739    0.142161    0.000000
   121  O2    c     0.335389    0.382571    0.367862    0.000000
   122  O3    c     0.062970    0.678004    0.030535    0.000000
   123  O2    c     0.631651    0.954005    0.699623    0.000000
   124  O3    c     0.679284    0.617669    0.865402    0.000000
   125  O2    c     0.966246    0.333500    0.531513    0.000000
   126  O2    c     0.374885    0.047339    0.199118    0.000000
   127  O2    c     0.776480    0.305370    0.015247    0.000000
   128  O2    c     0.700130    0.475942    0.347603    0.000000
   129  O2    c     0.543690    0.229246    0.679013    0.000000
   130  O2    c     0.240034    0.701893    0.514601    0.000000
   131  O3    c     0.301437    0.544781    0.843870    0.000000
   132  O2    c     0.467379    0.774996    0.182496    0.000000
   133  O2    c     0.307903    0.779449    0.327606    0.000000
   134  O2    c     0.472874    0.683928    0.990370    0.000000
   135  O2    c     0.235894    0.532354    0.659866    0.000000
   136  O2    c     0.716893    0.233700    0.823894    0.000000
   137  O2    c     0.541778    0.307445    0.493070    0.000000
   138  O2    c     0.770138    0.470436    0.159558    0.000000
   139  O3    c     0.771023    0.528776    0.027128    0.000000
   140  O2    c     0.469132    0.257353    0.365186    0.000000
   141  O2    c     0.760332    0.213260    0.696650    0.000000
   142  O2    c     0.225578    0.469693    0.532143    0.000000
   143  O3    c     0.532672    0.748302    0.864462    0.000000
   144  O2    c     0.249405    0.787960    0.199859    0.000000
   145  O2    c     0.539117    0.795206    0.310865    0.000000
   146  O2    c     0.255993    0.456075    0.973110    0.000000
   147  O2    c     0.221350    0.750487    0.642639    0.000000
   148  O2    c     0.485070    0.223193    0.807679    0.000000
   149  O2    c     0.757636    0.539494    0.475848    0.000000
   150  O2    c     0.792042    0.263113    0.140138    0.000000
   151  O3    c     0.218380    0.302616    0.901952    0.000000
   152  O2    c     0.678889    0.914072    0.236294    0.000000
   153  O2    c     0.100180    0.771465    0.567822    0.000000
   154  O2    c     0.774585    0.684630    0.402659    0.000000
   155  O2    c     0.337016    0.102333    0.734416    0.000000
   156  O2    c     0.915175    0.241913    0.069622    0.000000
   157  O2    c     0.330823    0.238553    0.440118    0.000000
   158  O3    c     0.909295    0.690225    0.112597    0.000000
   159  O2    c     0.778311    0.087463    0.771434    0.000000
   160  O3    c     0.683497    0.762213    0.941870    0.000000
   161  O2    c     0.098936    0.324418    0.605283    0.000000
   162  O2    c     0.235641    0.916413    0.273046    0.000000
   163  O2    c     0.579140    0.540588    0.987707    0.000000
   164  O2    c     0.446177    0.037816    0.327733    0.000000
   165  O2    c     0.978690    0.412629    0.659721    0.000000
   166  O2    c     0.423383    0.447063    0.495887    0.000000
   167  O2    c     0.570736    0.976030    0.827763    0.000000
   168  O2    c     0.026654    0.586577    0.161963    0.000000
   169  O2    c     0.563377    0.598155    0.347791    0.000000
   170  O2    c     0.032731    0.443772    0.014452    0.000000
   171  O2    c     0.417104    0.970444    0.680894    0.000000
   172  O3    c     0.458449    0.409640    0.838676    0.000000
   173  O2    c     0.980896    0.562522    0.511511    0.000000
   174  O2    c     0.591465    0.034937    0.180057    0.000000
   175  O2    c     0.584833    0.173152    0.253191    0.000000
   176  O2    c     0.843251    0.418810    0.585001    0.000000
   177  O2    c     0.577781    0.402340    0.915969    0.000000
   178  O2    c     0.425450    0.837718    0.755354    0.000000
   179  O2    c     0.166073    0.584499    0.089251    0.000000
   180  O2    c     0.424613    0.590522    0.422632    0.000000
   181  F     c     0.454820    0.911731    0.253188    0.000000
   182  F     c     0.104079    0.550681    0.585655    0.000000
   183  F     c     0.432001    0.517703    0.907480    0.000000
   184  F     c     0.561972    0.099774    0.752769    0.000000
   185  F     c     0.910030    0.492788    0.082230    0.000000
   186  F     c     0.554475    0.459045    0.420284    0.000000
   187  O2    s     0.915756    0.991452    0.005682    0.000000
   188  O2    s     0.003979    0.934632    0.339052    0.000000
   189  O2    s     0.083992    0.074571    0.671460    0.000000
   190  O2    s     0.084524    0.003995    0.504749    0.000000
   191  O2    s     0.017081    0.082972    0.839454    0.000000
   192  O2    s     0.923123    0.925042    0.172250    0.000000
   193  O2    s     0.357473    0.596454    0.339437    0.000000
   194  O2    s     0.417563    0.764691    0.672085    0.000000
   195  O2    s     0.246998    0.642200    0.005300    0.000000
   196  O2    s     0.668645    0.413890    0.834329    0.000000
   197  O2    s     0.587059    0.236828    0.169195    0.000000
   198  O2    s     0.775010    0.355972    0.501889    0.000000
   199  O2    s     0.582138    0.335883    0.000354    0.000000
   200  O2    s     0.774331    0.411966    0.667785    0.000000
   201  O2    s     0.651448    0.244062    0.336384    0.000000
   202  O2    s     0.423822    0.653455    0.505926    0.000000
   203  O2    s     0.235612    0.590570    0.173309    0.000000
   204  O2    s     0.357836    0.780701    0.839347    0.000000
   205  O2    s     0.118186    0.205189    0.976926    0.000000
   206  O2    s     0.787922    0.916119    0.308448    0.000000
   207  O2    s     0.101566    0.879137    0.639793    0.000000
   208  O2    s     0.886920    0.788242    0.474666    0.000000
   209  O2    s     0.235919    0.110699    0.807339    0.000000
   210  O2    s     0.904383    0.123179    0.141245    0.000000
   211  O2    s     0.221742    0.130851    0.368265    0.000000
   212  O3    s     0.915137    0.787816    0.036688    0.000000
   213  O2    s     0.884935    0.090930    0.699756    0.000000
   214  O3    s     0.802270    0.883746    0.864518    0.000000
   215  O2    s     0.105018    0.221480    0.533263    0.000000
   216  O2    s     0.123447    0.910378    0.201612    0.000000
   217  O2    s     0.935762    0.871556    0.256013    0.000000
   218  O2    s     0.148238    0.075299    0.587783    0.000000
   219  O2    s     0.930781    0.063637    0.922352    0.000000
   220  O2    s     0.075977    0.140762    0.754334    0.000000
   221  O2    s     0.856793    0.926982    0.089175    0.000000
   222  O2    s     0.077908    0.936911    0.421444    0.000000
   223  O2    s     0.911313    0.203284    0.986883    0.000000
   224  O2    s     0.798333    0.714260    0.320455    0.000000
   225  O2    s     0.303965    0.091583    0.652315    0.000000
   226  O2    s     0.100160    0.799609    0.485844    0.000000
   227  O3    s     0.210306    0.301942    0.817295    0.000000
   228  O2    s     0.703220    0.910760    0.153942    0.000000
   229  O2    s     0.210210    0.918446    0.355350    0.000000
   230  O2    s     0.704742    0.771759    0.024995    0.000000
   231  O2    s     0.096844    0.294530    0.688044    0.000000
   232  O2    s     0.807253    0.091217    0.854159    0.000000
   233  O2    s     0.305732    0.209486    0.522429    0.000000
   234  O2    s     0.912013    0.706588    0.194338    0.000000
   235  O2    s     0.331975    0.663678    0.256016    0.000000
   236  O2    s     0.351277    0.675037    0.588315    0.000000
   237  O2    s     0.330934    0.665370    0.920981    0.000000
   238  O2    s     0.687737    0.345595    0.750909    0.000000
   239  O2    s     0.659928    0.331918    0.086178    0.000000
   240  O2    s     0.677309    0.334639    0.419738    0.000000
   241  O2    s     0.373911    0.323052    0.968086    0.000000
   242  O2    s     0.664313    0.046976    0.305458    0.000000
   243  O2    s     0.970401    0.623781    0.637359    0.000000
   244  O2    s     0.632168    0.666165    0.473603    0.000000
   245  O2    s     0.352743    0.974455    0.804834    0.000000
   246  O2    s     0.037883    0.380569    0.140052    0.000000
   247  O2    s     0.345557    0.385842    0.370131    0.000000
   248  O3    s     0.058796    0.666099    0.032918    0.000000
   249  O2    s     0.628838    0.961021    0.701910    0.000000
   250  O3    s     0.669856    0.613321    0.866808    0.000000
   251  O2    s     0.972877    0.343535    0.533847    0.000000
   252  O2    s     0.378304    0.040807    0.201538    0.000000
   253  O2    s     0.782859    0.312278    0.017824    0.000000
   254  O2    s     0.692649    0.475298    0.350832    0.000000
   255  O2    s     0.544139    0.222399    0.682282    0.000000
   256  O2    s     0.232814    0.694110    0.517744    0.000000
   257  O3    s     0.310742    0.549493    0.847557    0.000000
   258  O2    s     0.467033    0.782103    0.185685    0.000000
   259  O2    s     0.315498    0.786391    0.324543    0.000000
   260  O2    s     0.471816    0.676595    0.987841    0.000000
   261  O2    s     0.228945    0.533093    0.656805    0.000000
   262  O2    s     0.708433    0.226014    0.820845    0.000000
   263  O2    s     0.542290    0.315200    0.490039    0.000000
   264  O2    s     0.776545    0.469547    0.156849    0.000000
   265  O3    s     0.774260    0.521549    0.029849    0.000000
   266  O2    s     0.472129    0.265462    0.367851    0.000000
   267  O2    s     0.752326    0.208178    0.699262    0.000000
   268  O2    s     0.220195    0.472372    0.534734    0.000000
   269  O3    s     0.529791    0.741782    0.866461    0.000000
   270  O2    s     0.257717    0.793526    0.202438    0.000000
   271  O2    s     0.536388    0.800087    0.308222    0.000000
   272  O2    s     0.262442    0.458975    0.970971    0.000000
   273  O2    s     0.216276    0.742722    0.640013    0.000000
   274  O2    s     0.487034    0.217856    0.805025    0.000000
   275  O2    s     0.749788    0.536918    0.473275    0.000000
   276  O2    s     0.795912    0.268866    0.138055    0.000000
   277  O3    s     0.228043    0.312018    0.904674    0.000000
   278  O2    s     0.669365    0.914090    0.237143    0.000000
   279  O2    s     0.100380    0.761964    0.568718    0.000000
   280  O2    s     0.765116    0.674890    0.403527    0.000000
   281  O2    s     0.346234    0.101892    0.735271    0.000000
   282  O2    s     0.914396    0.249565    0.070438    0.000000
   283  O2    s     0.340420    0.247955    0.439202    0.000000
   284  O3    s     0.909084    0.678458    0.113137    0.000000
   285  O2    s     0.769139    0.088325    0.770566    0.000000
   286  O3    s     0.674596    0.753413    0.941693    0.000000
   287  O2    s     0.099281    0.334080    0.604402    0.000000
   288  O2    s     0.244870    0.915994    0.272158    0.000000
   289  O2    s     0.576487    0.541407    0.985308    0.000000
   290  O2    s     0.445734    0.032933    0.324422    0.000000
   291  O2    s     0.983635    0.417189    0.656409    0.000000
   292  O2    s     0.427659    0.446814    0.492525    0.000000
   293  O2    s     0.571101    0.981018    0.824368    0.000000
   294  O2    s     0.023251    0.583222    0.159048    0.000000
   295  O2    s     0.563705    0.593172    0.351181    0.000000
   296  O2    s     0.028144    0.442689    0.017351    0.000000
   297  O2    s     0.422404    0.975727    0.684121    0.000000
   298  O3    s     0.462123    0.415458    0.842776    0.000000
   299  O2    s     0.985761    0.562659    0.514984    0.000000
   300  O2    s     0.586307    0.029747    0.183442    0.000000
   301  O2    s     0.579397    0.161976    0.253206    0.000000
   302  O2    s     0.854364    0.424380    0.585008    0.000000
   303  O2    s     0.573671    0.407640    0.916435    0.000000
   304  O2    s     0.430896    0.848921    0.755140    0.000000
   305  O2    s     0.156616    0.579591    0.089399    0.000000
   306  O2    s     0.430086    0.584994    0.422519    0.000000
   307  F     s     0.454622    0.911423    0.253011    0.000000
   308  F     s     0.104443    0.550940    0.585533    0.000000
   309  F     s     0.425764    0.511942    0.904559    0.000000
   310  F     s     0.562440    0.100328    0.752774    0.000000
   311  F     s     0.910073    0.501575    0.080691    0.000000
   312  F     s     0.554651    0.458845    0.420155    0.000000
--------------------------------------------------------------------------------

  Final Cartesian lattice vectors (Angstroms) :

       11.992439    0.004918   -0.016032
       -6.003654   10.343629    0.005605
       -0.210758    0.053938   29.431896


  Final cell parameters and derivatives :

--------------------------------------------------------------------------------
       a           11.992451 Angstrom     dE/de1(xx)     0.002064 eV/strain
       b           11.959706 Angstrom     dE/de2(yy)     0.002292 eV/strain
       c           29.432700 Angstrom     dE/de3(zz)     0.001778 eV/strain
       alpha       89.676380 Degrees      dE/de4(yz)     0.000115 eV/strain
       beta        90.486834 Degrees      dE/de5(xz)    -0.000114 eV/strain
       gamma      120.108267 Degrees      dE/de6(xy)    -0.000015 eV/strain
--------------------------------------------------------------------------------

  Primitive cell volume =          3651.725424 Angs**3

  Density of cell =      1.752074 g/cm**3

  Non-primitive cell volume =          3651.725424 Angs**3


  Final internal derivatives :

--------------------------------------------------------------------------------
   No.  Atomic          a             b             c           Radius
        Label          (eV)          (eV)          (eV)        (eV/Angs)
--------------------------------------------------------------------------------
      1 Si    c       0.000000      0.000000      0.000000      0.000000
      2 Si    c      -0.000090      0.000098      0.000272      0.000000
      3 Si    c       0.000090     -0.000212     -0.000267      0.000000
      4 Si    c       0.000010     -0.000011     -0.000046      0.000000
      5 Si    c       0.000728     -0.001040      0.002152      0.000000
      6 Si    c      -0.000061      0.000085     -0.000204      0.000000
      7 Si    c      -0.000028      0.000088     -0.000011      0.000000
      8 Si    c       0.000049      0.000005      0.000179      0.000000
      9 Si    c      -0.000067      0.000024     -0.000011      0.000000
     10 Si    c       0.000577     -0.000865     -0.001793      0.000000
     11 Si    c      -0.000031      0.000017     -0.000172      0.000000
     12 Si    c       0.000131     -0.000113     -0.000331      0.000000
     13 Si    c       0.000176     -0.000070     -0.000193      0.000000
     14 Si    c       0.000033     -0.000017      0.000076      0.000000
     15 Si    c       0.000042     -0.000010     -0.000058      0.000000
     16 Si    c       0.000029     -0.000029      0.000074      0.000000
     17 Si    c       0.000002      0.000393     -0.000888      0.000000
     18 Si    c      -0.000082      0.000074     -0.000203      0.000000
     19 Si    c       0.000015     -0.000033     -0.000186      0.000000
     20 Si    c      -0.000089     -0.000082      0.000336      0.000000
     21 Si    c      -0.000071      0.000197     -0.000733      0.000000
     22 Si    c      -0.000716      0.000000      0.001868      0.000000
     23 Si    c      -0.000040     -0.000001     -0.000013      0.000000
     24 Si    c       0.000020     -0.000082     -0.000182      0.000000
     25 Ge    c      -0.000927     -0.000387     -0.000649      0.000000
     26 Si    c       0.000045      0.000039     -0.000204      0.000000
     27 Si    c      -0.000070      0.000066     -0.000060      0.000000
     28 Si    c      -0.000008      0.000103     -0.000139      0.000000
     29 Si    c       0.000007     -0.000044     -0.000027      0.000000
     30 Si    c       0.000104     -0.000102      0.000006      0.000000
     31 Si    c      -0.000096     -0.000022      0.000219      0.000000
     32 Si    c       0.000112     -0.000007      0.000210      0.000000
     33 Si    c       0.000067      0.000007     -0.000405      0.000000
     34 Si    c      -0.000111      0.000302     -0.000340      0.000000
     35 Si    c       0.000021     -0.000066      0.000078      0.000000
     36 Si    c      -0.000076      0.000058      0.000174      0.000000
     37 Si    c      -0.000032     -0.000175     -0.000428      0.000000
     38 Si    c       0.000064      0.000004      0.000154      0.000000
     39 Si    c      -0.000043      0.000051      0.000026      0.000000
     40 Si    c       0.000004      0.000054      0.000070      0.000000
     41 Si    c      -0.000129      0.000175     -0.000129      0.000000
     42 Si    c      -0.000002     -0.000009      0.000045      0.000000
     43 Si    c      -0.000044      0.000004     -0.000047      0.000000
     44 Ge    c       0.000753     -0.001213      0.001557      0.000000
     45 Si    c       0.000083      0.000013     -0.000301      0.000000
     46 Ge    c      -0.000157     -0.000041      0.001385      0.000000
     47 Si    c       0.000043     -0.000066     -0.000011      0.000000
     48 Si    c       0.000008     -0.000020     -0.000142      0.000000
     49 Si    c      -0.000170     -0.000020     -0.001205      0.000000
     50 Si    c      -0.000097      0.000033      0.000486      0.000000
     51 Si    c       0.000020     -0.000000      0.000151      0.000000
     52 Si    c       0.000078     -0.000028      0.000295      0.000000
     53 Si    c      -0.000619      0.000058     -0.001881      0.000000
     54 Si    c      -0.000009      0.000022     -0.000385      0.000000
     55 Si    c       0.000055     -0.000004     -0.000426      0.000000
     56 Si    c       0.000096     -0.000252     -0.000254      0.000000
     57 Si    c       0.000043      0.000002      0.000326      0.000000
     58 Si    c       0.000109      0.000489      0.002272      0.000000
     59 Si    c      -0.000023      0.000049     -0.000192      0.000000
     60 Si    c       0.000016     -0.000084     -0.000246      0.000000
     61 O2    c      -0.000092      0.000107      0.000024      0.000000
     62 O2    c      -0.000006      0.000054      0.000043      0.000000
     63 O2    c       0.000025     -0.000020     -0.000037      0.000000
     64 O2    c       0.000008     -0.000023      0.000001      0.000000
     65 O2    c       0.000849     -0.000864     -0.000224      0.000000
     66 O2    c       0.000011      0.000002      0.000006      0.000000
     67 O2    c       0.000025     -0.000156      0.000360      0.000000
     68 O2    c       0.000083     -0.000051     -0.000034      0.000000
     69 O2    c       0.000045      0.000021     -0.000032      0.000000
     70 O2    c       0.000714      0.000288      0.000149      0.000000
     71 O2    c      -0.000018      0.000035     -0.000187      0.000000
     72 O2    c       0.000233     -0.000173      0.000311      0.000000
     73 O2    c       0.000218     -0.000131      0.000788      0.000000
     74 O2    c      -0.000075      0.000082     -0.000031      0.000000
     75 O2    c       0.000174     -0.000206     -0.000479      0.000000
     76 O2    c       0.000030      0.000024      0.000011      0.000000
     77 O2    c      -0.000061     -0.000100     -0.000258      0.000000
     78 O2    c      -0.000995      0.001082     -0.001250      0.000000
     79 O2    c       0.000152      0.000084     -0.000211      0.000000
     80 O2    c       0.000015     -0.000004      0.000081      0.000000
     81 O2    c      -0.000004      0.000019     -0.000017      0.000000
     82 O2    c      -0.000099     -0.000007      0.000106      0.000000
     83 O2    c       0.001627     -0.001298      0.000425      0.000000
     84 O2    c       0.000015     -0.000044     -0.000041      0.000000
     85 O2    c      -0.000016      0.000030     -0.000055      0.000000
     86 O3    c      -0.000297      0.000281      0.000250      0.000000
     87 O2    c       0.000041     -0.000030      0.000016      0.000000
     88 O3    c       0.000074     -0.001823     -0.001449      0.000000
     89 O2    c       0.000030     -0.000059      0.000041      0.000000
     90 O2    c       0.000019      0.000013     -0.000050      0.000000
     91 O2    c       0.000106     -0.000065     -0.000471      0.000000
     92 O2    c      -0.000008     -0.000021      0.000182      0.000000
     93 O2    c       0.000061      0.000101      0.001757      0.000000
     94 O2    c       0.000062     -0.000066      0.000071      0.000000
     95 O2    c      -0.000101      0.000172      0.001156      0.000000
     96 O2    c      -0.000071     -0.000028      0.000248      0.000000
     97 O2    c       0.000006      0.000005     -0.000055      0.000000
     98 O2    c      -0.000012     -0.000064      0.000079      0.000000
     99 O2    c      -0.000029      0.000028     -0.000047      0.000000
    100 O2    c       0.000047     -0.000047      0.000020      0.000000
    101 O3    c      -0.000114      0.001760      0.000590      0.000000
    102 O2    c       0.000003      0.000003      0.000087      0.000000
    103 O2    c       0.000068     -0.000050     -0.000034      0.000000
    104 O2    c       0.000179      0.000081      0.000420      0.000000
    105 O2    c       0.000016     -0.000029      0.000011      0.000000
    106 O2    c      -0.001451      0.001435     -0.000555      0.000000
    107 O2    c       0.000023     -0.000001     -0.000036      0.000000
    108 O2    c      -0.000014      0.000060      0.000043      0.000000
    109 O2    c       0.000017     -0.000089      0.000109      0.000000
    110 O2    c       0.000055     -0.000001     -0.000076      0.000000
    111 O2    c       0.000049     -0.000003     -0.000635      0.000000
    112 O2    c      -0.000025      0.000117      0.000410      0.000000
    113 O2    c      -0.000026      0.000007     -0.000200      0.000000
    114 O2    c       0.000065     -0.000068      0.000043      0.000000
    115 O2    c      -0.000416      0.000066     -0.000264      0.000000
    116 O2    c      -0.000012      0.000027      0.000033      0.000000
    117 O2    c      -0.000017     -0.000002      0.000002      0.000000
    118 O2    c      -0.000038      0.000028      0.000056      0.000000
    119 O2    c      -0.000054     -0.000015     -0.000005      0.000000
    120 O2    c       0.000033      0.000038      0.000040      0.000000
    121 O2    c      -0.000022      0.000054     -0.000023      0.000000
    122 O3    c       0.000206      0.000018     -0.000094      0.000000
    123 O2    c      -0.000038     -0.000079     -0.000212      0.000000
    124 O3    c       0.000083      0.001732      0.000154      0.000000
    125 O2    c      -0.000020     -0.000017     -0.000030      0.000000
    126 O2    c       0.000039      0.000029     -0.000096      0.000000
    127 O2    c       0.000285     -0.000280     -0.000218      0.000000
    128 O2    c       0.000079     -0.000129     -0.000091      0.000000
    129 O2    c       0.000017      0.000048     -0.000159      0.000000
    130 O2    c       0.000074     -0.000024     -0.000035      0.000000
    131 O3    c       0.000052     -0.000312      0.000098      0.000000
    132 O2    c      -0.000054     -0.000067     -0.000046      0.000000
    133 O2    c       0.000042     -0.000092      0.000062      0.000000
    134 O2    c      -0.000057      0.000041     -0.000013      0.000000
    135 O2    c       0.000025      0.000016     -0.000009      0.000000
    136 O2    c       0.000130     -0.000155      0.000094      0.000000
    137 O2    c       0.000099     -0.000093      0.000061      0.000000
    138 O2    c      -0.000053     -0.000059      0.000015      0.000000
    139 O3    c      -0.000208      0.000197     -0.001109      0.000000
    140 O2    c       0.000088     -0.000084     -0.000132      0.000000
    141 O2    c      -0.000118      0.000141     -0.000115      0.000000
    142 O2    c       0.000033     -0.000002     -0.000042      0.000000
    143 O3    c      -0.000191      0.000124     -0.000268      0.000000
    144 O2    c       0.000089     -0.000117     -0.000028      0.000000
    145 O2    c       0.000007     -0.000072      0.000137      0.000000
    146 O2    c      -0.000015     -0.000026      0.000183      0.000000
    147 O2    c       0.000065     -0.000027      0.000052      0.000000
    148 O2    c      -0.000251      0.000221      0.000501      0.000000
    149 O2    c       0.000078     -0.000080      0.000136      0.000000
    150 O2    c      -0.000138      0.000117     -0.000020      0.000000
    151 O3    c       0.000619     -0.000036     -0.001311      0.000000
    152 O2    c       0.000049     -0.000028     -0.000133      0.000000
    153 O2    c      -0.000006      0.000023     -0.000069      0.000000
    154 O2    c       0.000024      0.000029     -0.000059      0.000000
    155 O2    c      -0.000054      0.000039     -0.000085      0.000000
    156 O2    c       0.000002      0.000001     -0.000295      0.000000
    157 O2    c      -0.000034     -0.000030      0.000015      0.000000
    158 O3    c      -0.000247      0.000219      0.000602      0.000000
    159 O2    c       0.000121     -0.000105      0.000451      0.000000
    160 O3    c      -0.000027      0.000112     -0.002003      0.000000
    161 O2    c       0.000021     -0.000049     -0.000001      0.000000
    162 O2    c      -0.000042      0.000027      0.000160      0.000000
    163 O2    c       0.000143     -0.000722     -0.000148      0.000000
    164 O2    c      -0.000006      0.000030      0.000129      0.000000
    165 O2    c      -0.000045      0.000015      0.000017      0.000000
    166 O2    c      -0.000030      0.000062      0.000039      0.000000
    167 O2    c       0.000077     -0.000184      0.000614      0.000000
    168 O2    c      -0.000032      0.000014     -0.000061      0.000000
    169 O2    c      -0.000078      0.000034     -0.000026      0.000000
    170 O2    c       0.000005      0.000031     -0.000027      0.000000
    171 O2    c       0.000126     -0.000136      0.000004      0.000000
    172 O3    c       0.000487     -0.000545     -0.001577      0.000000
    173 O2    c      -0.000013      0.000030     -0.000075      0.000000
    174 O2    c      -0.000032      0.000052     -0.000022      0.000000
    175 O2    c       0.000005      0.000060      0.000038      0.000000
    176 O2    c      -0.000031     -0.000011     -0.000056      0.000000
    177 O2    c       0.000155     -0.000323      0.001630      0.000000
    178 O2    c      -0.000075     -0.000056      0.000546      0.000000
    179 O2    c      -0.000020     -0.000029      0.000219      0.000000
    180 O2    c      -0.000052      0.000060      0.000149      0.000000
    181 F     c      -0.000007      0.000020     -0.000019      0.000000
    182 F     c      -0.000016     -0.000005      0.000015      0.000000
    183 F     c       0.000125     -0.000030      0.001072      0.000000
    184 F     c      -0.000026      0.000007     -0.000165      0.000000
    185 F     c      -0.000344      0.000500     -0.000821      0.000000
    186 F     c      -0.000002     -0.000004     -0.000036      0.000000
    187 O2    s      -0.000057     -0.000034     -0.000106      0.000000
    188 O2    s      -0.000041      0.000066     -0.000044      0.000000
    189 O2    s      -0.000010     -0.000020     -0.000113      0.000000
    190 O2    s       0.000003      0.000039      0.000047      0.000000
    191 O2    s       0.000287     -0.000174      0.000009      0.000000
    192 O2    s      -0.000045      0.000050     -0.000140      0.000000
    193 O2    s      -0.000048      0.000007     -0.000028      0.000000
    194 O2    s      -0.000008     -0.000069      0.000062      0.000000
    195 O2    s      -0.000031      0.000089     -0.000074      0.000000
    196 O2    s      -0.000387     -0.000319     -0.000866      0.000000
    197 O2    s      -0.000023      0.000030      0.000124      0.000000
    198 O2    s      -0.000022     -0.000002     -0.000050      0.000000
    199 O2    s      -0.000032      0.000142     -0.000665      0.000000
    200 O2    s       0.000037      0.000039      0.000042      0.000000
    201 O2    s       0.000031      0.000013     -0.000031      0.000000
    202 O2    s      -0.000001      0.000017     -0.000045      0.000000
    203 O2    s       0.000044     -0.000033      0.000117      0.000000
    204 O2    s       0.000333     -0.000379      0.000512      0.000000
    205 O2    s      -0.000101     -0.000002      0.000298      0.000000
    206 O2    s      -0.000024      0.000098      0.000037      0.000000
    207 O2    s      -0.000012     -0.000004      0.000119      0.000000
    208 O2    s      -0.000043      0.000034      0.000153      0.000000
    209 O2    s       0.000127     -0.000353     -0.000377      0.000000
    210 O2    s       0.000014     -0.000091      0.000141      0.000000
    211 O2    s      -0.000084      0.000093     -0.000106      0.000000
    212 O3    s       0.000250     -0.000145     -0.000390      0.000000
    213 O2    s       0.000037      0.000022     -0.000272      0.000000
    214 O3    s       0.000147     -0.000464      0.000885      0.000000
    215 O2    s      -0.000031      0.000021     -0.000222      0.000000
    216 O2    s      -0.000001     -0.000001     -0.000167      0.000000
    217 O2    s      -0.000048      0.000045     -0.000010      0.000000
    218 O2    s       0.000015      0.000002     -0.000059      0.000000
    219 O2    s       0.000412     -0.000063      0.001343      0.000000
    220 O2    s      -0.000384      0.000085     -0.001225      0.000000
    221 O2    s       0.000025     -0.000051     -0.000319      0.000000
    222 O2    s       0.000010      0.000035     -0.000040      0.000000
    223 O2    s       0.000061     -0.000016      0.000059      0.000000
    224 O2    s       0.000031     -0.000082     -0.000015      0.000000
    225 O2    s      -0.000021     -0.000006     -0.000198      0.000000
    226 O2    s       0.000073     -0.000028     -0.000002      0.000000
    227 O3    s      -0.000247      0.000342      0.000195      0.000000
    228 O2    s       0.000043     -0.000006     -0.000256      0.000000
    229 O2    s       0.000047     -0.000098     -0.000077      0.000000
    230 O2    s      -0.000091      0.000083      0.000618      0.000000
    231 O2    s      -0.000047      0.000077      0.000071      0.000000
    232 O2    s      -0.000754      0.000916     -0.000285      0.000000
    233 O2    s      -0.000001     -0.000002      0.000078      0.000000
    234 O2    s       0.000003     -0.000069     -0.000028      0.000000
    235 O2    s      -0.000001     -0.000002     -0.000010      0.000000
    236 O2    s       0.000008     -0.000007     -0.000017      0.000000
    237 O2    s      -0.000049     -0.000050      0.000084      0.000000
    238 O2    s      -0.000004     -0.000064     -0.000032      0.000000
    239 O2    s      -0.000032      0.000101     -0.000236      0.000000
    240 O2    s       0.000050     -0.000036     -0.000002      0.000000
    241 O2    s       0.000220     -0.000052      0.000313      0.000000
    242 O2    s       0.000008      0.000031      0.000040      0.000000
    243 O2    s      -0.000030      0.000029      0.000103      0.000000
    244 O2    s      -0.000023      0.000038      0.000077      0.000000
    245 O2    s       0.000030     -0.000073      0.000213      0.000000
    246 O2    s       0.000060     -0.000024      0.000208      0.000000
    247 O2    s      -0.000072      0.000037     -0.000076      0.000000
    248 O3    s      -0.000411      0.000151      0.000082      0.000000
    249 O2    s       0.000067     -0.000147     -0.000001      0.000000
    250 O3    s       0.000063     -0.000482     -0.001109      0.000000
    251 O2    s      -0.000008      0.000016     -0.000097      0.000000
    252 O2    s      -0.000047      0.000052     -0.000044      0.000000
    253 O2    s      -0.000193      0.000278      0.000266      0.000000
    254 O2    s      -0.000004      0.000076     -0.000169      0.000000
    255 O2    s      -0.000089      0.000142     -0.000201      0.000000
    256 O2    s      -0.000004     -0.000001     -0.000096      0.000000
    257 O3    s       0.000007      0.000103     -0.000007      0.000000
    258 O2    s       0.000054      0.000001     -0.000050      0.000000
    259 O2    s      -0.000045      0.000043      0.000029      0.000000
    260 O2    s      -0.000184      0.000228      0.000232      0.000000
    261 O2    s       0.000010     -0.000005      0.000179      0.000000
    262 O2    s       0.000013      0.000037      0.000226      0.000000
    263 O2    s      -0.000066      0.000042      0.000137      0.000000
    264 O2    s      -0.000046      0.000151      0.000175      0.000000
    265 O3    s       0.000036     -0.000081      0.000711      0.000000
    266 O2    s      -0.000066      0.000034     -0.000078      0.000000
    267 O2    s       0.000183      0.000062     -0.000160      0.000000
    268 O2    s      -0.000025      0.000016     -0.000073      0.000000
    269 O3    s      -0.000007     -0.000071      0.000789      0.000000
    270 O2    s      -0.000092      0.000016     -0.000088      0.000000
    271 O2    s      -0.000013      0.000049     -0.000036      0.000000
    272 O2    s       0.000015     -0.000010     -0.000357      0.000000
    273 O2    s      -0.000033      0.000036      0.000086      0.000000
    274 O2    s       0.000548     -0.000279     -0.000460      0.000000
    275 O2    s      -0.000036      0.000042     -0.000026      0.000000
    276 O2    s      -0.000006     -0.000106      0.000256      0.000000
    277 O3    s      -0.000741      0.000325      0.000932      0.000000
    278 O2    s       0.000005      0.000004     -0.000022      0.000000
    279 O2    s      -0.000022      0.000018      0.000026      0.000000
    280 O2    s       0.000010      0.000008     -0.000020      0.000000
    281 O2    s      -0.000034     -0.000025      0.000242      0.000000
    282 O2    s      -0.000009     -0.000007     -0.000273      0.000000
    283 O2    s      -0.000014      0.000019      0.000112      0.000000
    284 O3    s       0.000266     -0.000201     -0.000773      0.000000
    285 O2    s      -0.000179      0.000206      0.000024      0.000000
    286 O3    s       0.000092     -0.000021      0.000365      0.000000
    287 O2    s      -0.000015      0.000027      0.000007      0.000000
    288 O2    s      -0.000004     -0.000002      0.000059      0.000000
    289 O2    s       0.000242     -0.000145      0.000214      0.000000
    290 O2    s       0.000022     -0.000011     -0.000045      0.000000
    291 O2    s      -0.000004      0.000004      0.000146      0.000000
    292 O2    s      -0.000007      0.000006      0.000091      0.000000
    293 O2    s      -0.000248      0.000289     -0.000801      0.000000
    294 O2    s      -0.000028      0.000055      0.000323      0.000000
    295 O2    s      -0.000027      0.000028     -0.000061      0.000000
    296 O2    s       0.000020     -0.000089     -0.000178      0.000000
    297 O2    s      -0.000148     -0.000050     -0.000142      0.000000
    298 O3    s      -0.000326      0.000387     -0.000212      0.000000
    299 O2    s      -0.000004     -0.000050     -0.000054      0.000000
    300 O2    s       0.000040     -0.000023     -0.000100      0.000000
    301 O2    s       0.000006      0.000009      0.000019      0.000000
    302 O2    s      -0.000018      0.000007     -0.000080      0.000000
    303 O2    s      -0.000011     -0.000087      0.000832      0.000000
    304 O2    s       0.000043      0.000023      0.000189      0.000000
    305 O2    s       0.000166      0.000011     -0.000109      0.000000
    306 O2    s      -0.000010      0.000002     -0.000087      0.000000
    307 F     s       0.000025     -0.000048      0.000062      0.000000
    308 F     s       0.000020      0.000003     -0.000039      0.000000
    309 F     s       0.000020      0.000649      0.001027      0.000000
    310 F     s       0.000037     -0.000020      0.000441      0.000000
    311 F     s       0.000040      0.000667     -0.000382      0.000000
    312 F     s      -0.000008      0.000021      0.000085      0.000000
--------------------------------------------------------------------------------
  Maximum abs         0.001627      0.001823      0.002272      0.000000
--------------------------------------------------------------------------------


  Time to end of optimisation =       7.1936 seconds


  Peak dynamic memory used =      19.13 MB 


  Timing analysis for GULP :

--------------------------------------------------------------------------------
  Task / Subroutine                                          Time (Seconds)
--------------------------------------------------------------------------------
  Calculation of reciprocal space energy and derivatives          0.2835
  Calculation of real space energy and derivatives                6.0204
  Calculation of three-body energy and derivatives                0.6587
  Calculation of matrix inversion                                 0.1920
--------------------------------------------------------------------------------
  Total CPU time                                                  7.1936
--------------------------------------------------------------------------------


  Dump file written as out.res                                                 
  CIF file written as out.cif                                                 


  Job Finished at 15:35.09 26th November   2016                               

