********************************************************************************
*                       GENERAL UTILITY LATTICE PROGRAM                        *
*                                 Julian Gale                                  *
*                      Nanochemistry Research Institute                        *
*                           Department of Chemistry                            *
*                    Curtin University, Western Australia                      *
********************************************************************************
* Version = 4.2.0 * Last modified =  20th January 2014                         *
********************************************************************************
*  optimise     - perform optimisation run                                     *
*  conp         - constant pressure calculation                                *
*  qok          - running with non charge neutral cell is OK                   *
********************************************************************************

  Job Started  at 10:43.47 26th November   2016                               

  Number of CPUs =     1


  Total number of configurations input =   1

********************************************************************************
*  Input for Configuration =   1                                               *
********************************************************************************

  Formula = Si57Ge3O120F6                                               

  Number of irreducible atoms/shells =     312


  Total number atoms/shells =     312

  Dimensionality = 3               :  Bulk   


  Charge on solid   =  -6.000000 =>neutralising background added


  Cartesian lattice vectors (Angstroms) :

       11.983931    0.000000    0.000000
       -6.015504   10.395406    0.000000
       -0.108832   -0.118124   29.416097

  Cell parameters (Angstroms/Degrees):

  a =      11.9839    alpha =  90.0930
  b =      12.0104    beta  =  90.2120
  c =      29.4165    gamma = 120.0567

  Initial cell volume =        3664.593509 Angs**3

  Temperature of configuration =  0.000     K 

  Pressure of configuration =         0.000 GPa 

  Fractional coordinates of asymmetric unit :

--------------------------------------------------------------------------------
   No.  Atomic       x           y          z         Charge      Occupancy
        Label      (Frac)      (Frac)     (Frac)        (e)         (Frac)  
--------------------------------------------------------------------------------
      1 Si    c    0.699600    0.375700    0.033890     4.00000    1.000000    
      2 Si    c    0.616580 *  0.321824 *  0.367565 *   4.00000    1.000000    
      3 Si    c    0.679556 *  0.295280 *  0.700178 *   4.00000    1.000000    
      4 Si    c    0.300630 *  0.625836 *  0.534482 *   4.00000    1.000000    
      5 Si    c    0.374497 *  0.681107 *  0.865031 *   4.00000    1.000000    
      6 Si    c    0.324979 *  0.701461 *  0.199940 *   4.00000    1.000000    
      7 Si    c    0.373829 *  0.699869 *  0.301498 *   4.00000    1.000000    
      8 Si    c    0.317425 *  0.616381 *  0.967327 *   4.00000    1.000000    
      9 Si    c    0.298587 *  0.674326 *  0.635977 *   4.00000    1.000000    
     10 Si    c    0.630715 *  0.299890 *  0.801016 *   4.00000    1.000000    
     11 Si    c    0.678993 *  0.383351 *  0.467401 *   4.00000    1.000000    
     12 Si    c    0.703041 *  0.322655 *  0.134538 *   4.00000    1.000000    
     13 Si    c    0.526937 *  0.410043 *  0.966967 *   4.00000    1.000000    
     14 Si    c    0.578461 *  0.113630 *  0.301407 *   4.00000    1.000000    
     15 Si    c    0.889000 *  0.468215 *  0.635522 *   4.00000    1.000000    
     16 Si    c    0.470738 *  0.587503 *  0.468662 *   4.00000    1.000000    
     17 Si    c    0.420758 *  0.896787 *  0.802272 *   4.00000    1.000000    
     18 Si    c    0.113402 *  0.529135 *  0.135012 *   4.00000    1.000000    
     19 Si    c    0.411742 *  0.529001 *  0.367118 *   4.00000    1.000000    
     20 Si    c    0.109263 *  0.579083 *  0.033126 *   4.00000    1.000000    
     21 Si    c    0.469798 *  0.886573 *  0.701026 *   4.00000    1.000000    
     22 Si    c    0.589022 *  0.468217 *  0.863902 *   4.00000    1.000000    
     23 Si    c    0.887877 *  0.421805 *  0.533562 *   4.00000    1.000000    
     24 Si    c    0.531430 *  0.112143 *  0.199276 *   4.00000    1.000000    
     25 Ge    c    0.316084 *  0.411636 *  0.857921 *   4.00000    1.000000    
     26 Si    c    0.603159 *  0.903072 *  0.186857 *   4.00000    1.000000    
     27 Si    c    0.097881 *  0.701092 *  0.521356 *   4.00000    1.000000    
     28 Si    c    0.689709 *  0.596941 *  0.350347 *   4.00000    1.000000    
     29 Si    c    0.400262 *  0.096450 *  0.686456 *   4.00000    1.000000    
     30 Si    c    0.900851 *  0.298891 *  0.018956 *   4.00000    1.000000    
     31 Si    c    0.402596 *  0.309128 *  0.485160 *   4.00000    1.000000    
     32 Si    c    0.904430 *  0.600423 *  0.149481 *   4.00000    1.000000    
     33 Si    c    0.703527 *  0.097254 *  0.816256 *   4.00000    1.000000    
     34 Si    c    0.598751 *  0.694113 *  0.982192 *   4.00000    1.000000    
     35 Si    c    0.097832 *  0.395041 *  0.649090 *   4.00000    1.000000    
     36 Si    c    0.298390 *  0.902770 *  0.314073 *   4.00000    1.000000    
     37 Si    c    0.243154 *  0.329281 *  0.953743 *   4.00000    1.000000    
     38 Si    c    0.654003 *  0.911430 *  0.288189 *   4.00000    1.000000    
     39 Si    c    0.089993 *  0.747279 *  0.622498 *   4.00000    1.000000    
     40 Si    c    0.747436 *  0.661825 *  0.450502 *   4.00000    1.000000    
     41 Si    c    0.345288 *  0.098392 *  0.787318 *   4.00000    1.000000    
     42 Si    c    0.911714 *  0.250458 *  0.119821 *   4.00000    1.000000    
     43 Si    c    0.338073 *  0.253215 *  0.384779 *   4.00000    1.000000    
     44 Si    c    0.908629 *  0.656337 *  0.048709 *   4.00000    1.000000    
     45 Si    c    0.749919 *  0.086051 *  0.715402 *   4.00000    1.000000    
     46 Si    c    0.660200 *  0.748537 *  0.880385 *   4.00000    1.000000    
     47 Si    c    0.089916 *  0.346213 *  0.547451 *   4.00000    1.000000    
     48 Si    c    0.252735 *  0.909773 *  0.212766 *   4.00000    1.000000    
     49 Si    c    0.967246 *  0.117256 *  0.969585 *   4.00000    1.000000    
     50 Ge    c    0.874764 *  0.848795 *  0.301259 *   4.00000    1.000000    
     51 Si    c    0.148970 *  0.024761 *  0.637815 *   4.00000    1.000000    
     52 Si    c    0.028258 *  0.876631 *  0.468257 *   4.00000    1.000000    
     53 Si    c    0.127471 *  0.161825 *  0.804127 *   4.00000    1.000000    
     54 Si    c    0.849461 *  0.970885 *  0.134638 *   4.00000    1.000000    
     55 Si    c    0.123613 *  0.972764 *  0.367655 *   4.00000    1.000000    
     56 Si    c    0.845816 *  0.873488 *  0.033831 *   4.00000    1.000000    
     57 Si    c    0.030048 *  0.149462 *  0.702355 *   4.00000    1.000000    
     58 Si    c    0.882502 *  0.028880 *  0.867316 *   4.00000    1.000000    
     59 Ge    c    0.150816 *  0.124629 *  0.534876 *   4.00000    1.000000    
     60 Si    c    0.974872 *  0.850733 *  0.198363 *   4.00000    1.000000    
     61 O2    c    0.922700 *  0.993203 *  0.000875 *   0.87073    1.000000    
     62 O3    c    0.002275 *  0.937700 *  0.336723 *   1.33043    1.000000    
     63 O2    c    0.072333 *  0.066408 *  0.671872 *   0.87073    1.000000    
     64 O3    c    0.062472 *  0.996993 *  0.499305 *   1.33043    1.000000    
     65 O2    c    0.004654 *  0.069701 *  0.835757 *   0.87073    1.000000    
     66 O2    c    0.932941 *  0.929217 *  0.165005 *   0.87073    1.000000    
     67 O2    c    0.334386 *  0.577429 *  0.334494 *   0.87073    1.000000    
     68 O2    c    0.420768 *  0.759549 *  0.669238 *   0.87073    1.000000    
     69 O2    c    0.234408 *  0.654859 *  0.000512 *   0.87073    1.000000    
     70 O2    c    0.674716 *  0.424083 *  0.834161 *   0.87073    1.000000    
     71 O2    c    0.580303 *  0.237174 *  0.166896 *   0.87073    1.000000    
     72 O2    c    0.763588 *  0.346186 *  0.500384 *   0.87073    1.000000    
     73 O2    c    0.577366 *  0.337442 *  0.000488 *   0.87073    1.000000    
     74 O2    c    0.763528 *  0.417912 *  0.667650 *   0.87073    1.000000    
     75 O2    c    0.653873 *  0.237739 *  0.334354 *   0.87073    1.000000    
     76 O2    c    0.423399 *  0.664874 *  0.501418 *   0.87073    1.000000    
     77 O2    c    0.240230 *  0.578287 *  0.166981 *   0.87073    1.000000    
     78 O2    c    0.343040 *  0.776730 *  0.836550 *   0.87073    1.000000    
     79 O2    c    0.120135 *  0.209208 *  0.978522 *   0.87073    1.000000    
     80 O3    c    0.777943 *  0.914786 *  0.309803 *   1.33043    1.000000    
     81 O2    c    0.089047 *  0.871190 *  0.643897 *   0.87073    1.000000    
     82 O2    c    0.873748 *  0.786250 *  0.470631 *   0.87073    1.000000    
     83 O2    c    0.222974 *  0.101932 *  0.808123 *   0.87073    1.000000    
     84 O2    c    0.912497 *  0.124906 *  0.139826 *   0.87073    1.000000    
     85 O2    c    0.213551 *  0.126802 *  0.364619 *   0.87073    1.000000    
     86 O2    c    0.909119 *  0.782977 *  0.029037 *   0.87073    1.000000    
     87 O2    c    0.875790 *  0.085980 *  0.695359 *   0.87073    1.000000    
     88 O2    c    0.787352 *  0.874570 *  0.861877 *   0.87073    1.000000    
     89 O3    c    0.086509 *  0.222517 *  0.525700 *   1.33043    1.000000    
     90 O2    c    0.128179 *  0.910182 *  0.191257 *   0.87073    1.000000    
     91 O3    c    0.940091 *  0.872709 *  0.248027 *   1.33043    1.000000    
     92 O3    c    0.126200 *  0.060373 *  0.588124 *   1.33043    1.000000    
     93 O2    c    0.931144 *  0.065292 *  0.918754 *   0.87073    1.000000    
     94 O2    c    0.068494 *  0.142267 *  0.753464 *   0.87073    1.000000    
     95 O2    c    0.856018 *  0.928991 *  0.083696 *   0.87073    1.000000    
     96 O2    c    0.075636 *  0.926121 *  0.417989 *   0.87073    1.000000    
     97 O2    c    0.896403 *  0.198561 *  0.980913 *   0.87073    1.000000    
     98 O3    c    0.784877 *  0.686126 *  0.310783 *   1.33043    1.000000    
     99 O2    c    0.302470 *  0.095883 *  0.647778 *   0.87073    1.000000    
    100 O2    c    0.099820 *  0.799100 *  0.483268 *   0.87073    1.000000    
    101 O3    c    0.202112 *  0.307657 *  0.816139 *   1.33043    1.000000    
    102 O2    c    0.699788 *  0.901039 *  0.148734 *   0.87073    1.000000    
    103 O2    c    0.200778 *  0.901154 *  0.352109 *   0.87073    1.000000    
    104 O2    c    0.693996 *  0.788781 *  0.021304 *   0.87073    1.000000    
    105 O2    c    0.099764 *  0.298747 *  0.687154 *   0.87073    1.000000    
    106 O2    c    0.800890 *  0.098407 *  0.855010 *   0.87073    1.000000    
    107 O3    c    0.313986 *  0.213861 *  0.524597 *   1.33043    1.000000    
    108 O2    c    0.903267 *  0.697689 *  0.187750 *   0.87073    1.000000    
    109 O2    c    0.321142 *  0.643857 *  0.250478 *   0.87073    1.000000    
    110 O2    c    0.356844 *  0.678726 *  0.585418 *   0.87073    1.000000    
    111 O2    c    0.320171 *  0.672522 *  0.917058 *   0.87073    1.000000    
    112 O2    c    0.683726 *  0.354878 *  0.750369 *   0.87073    1.000000    
    113 O2    c    0.643450 *  0.320116 *  0.084227 *   0.87073    1.000000    
    114 O2    c    0.677215 *  0.323633 *  0.417392 *   0.87073    1.000000    
    115 O2    c    0.371240 *  0.324301 *  0.970010 *   0.87073    1.000000    
    116 O2    c    0.664496 *  0.044636 *  0.305194 *   0.87073    1.000000    
    117 O2    c    0.957641 *  0.623763 *  0.639765 *   0.87073    1.000000    
    118 O2    c    0.627137 *  0.673888 *  0.469848 *   0.87073    1.000000    
    119 O2    c    0.334045 *  0.965305 *  0.805134 *   0.87073    1.000000    
    120 O2    c    0.044546 *  0.373233 *  0.137883 *   0.87073    1.000000    
    121 O2    c    0.325242 *  0.372929 *  0.365267 *   0.87073    1.000000    
    122 O2    c    0.039983 *  0.665717 *  0.029629 *   0.87073    1.000000    
    123 O2    c    0.625948 *  0.954144 *  0.697360 *   0.87073    1.000000    
    124 O2    c    0.669970 *  0.625472 *  0.863502 *   0.87073    1.000000    
    125 O2    c    0.956806 *  0.335753 *  0.529779 *   0.87073    1.000000    
    126 O2    c    0.375412 *  0.042016 *  0.194985 *   0.87073    1.000000    
    127 O2    c    0.767929 *  0.301120 *  0.011528 *   0.87073    1.000000    
    128 O2    c    0.688832 *  0.462719 *  0.344214 *   0.87073    1.000000    
    129 O2    c    0.535804 *  0.227650 *  0.677898 *   0.87073    1.000000    
    130 O2    c    0.231770 *  0.701333 *  0.513218 *   0.87073    1.000000    
    131 O3    c    0.299596 *  0.544871 *  0.840952 *   1.33043    1.000000    
    132 O2    c    0.468949 *  0.769540 *  0.178378 *   0.87073    1.000000    
    133 O2    c    0.298467 *  0.769350 *  0.322138 *   0.87073    1.000000    
    134 O2    c    0.463031 *  0.689884 *  0.987914 *   0.87073    1.000000    
    135 O2    c    0.230977 *  0.530141 *  0.657011 *   0.87073    1.000000    
    136 O2    c    0.705945 *  0.232022 *  0.823186 *   0.87073    1.000000    
    137 O2    c    0.537605 *  0.310645 *  0.490420 *   0.87073    1.000000    
    138 O2    c    0.770905 *  0.466015 *  0.156835 *   0.87073    1.000000    
    139 O2    c    0.780282 *  0.531849 *  0.029407 *   0.87073    1.000000    
    140 O2    c    0.460633 *  0.247789 *  0.364958 *   0.87073    1.000000    
    141 O2    c    0.752008 *  0.212273 *  0.695537 *   0.87073    1.000000    
    142 O2    c    0.217719 *  0.470876 *  0.528470 *   0.87073    1.000000    
    143 O2    c    0.531529 *  0.744399 *  0.862332 *   0.87073    1.000000    
    144 O2    c    0.251688 *  0.783309 *  0.193711 *   0.87073    1.000000    
    145 O2    c    0.529030 *  0.784189 *  0.307214 *   0.87073    1.000000    
    146 O2    c    0.251010 *  0.461896 *  0.971224 *   0.87073    1.000000    
    147 O2    c    0.215831 *  0.746731 *  0.641581 *   0.87073    1.000000    
    148 O2    c    0.475270 *  0.220722 *  0.806595 *   0.87073    1.000000    
    149 O2    c    0.752144 *  0.538860 *  0.469958 *   0.87073    1.000000    
    150 O2    c    0.786022 *  0.250090 *  0.139393 *   0.87073    1.000000    
    151 O3    c    0.214498 *  0.303333 *  0.901219 *   1.33043    1.000000    
    152 O2    c    0.675739 *  0.906080 *  0.233812 *   0.87073    1.000000    
    153 O2    c    0.093970 *  0.770373 *  0.568158 *   0.87073    1.000000    
    154 O2    c    0.763820 *  0.678724 *  0.395787 *   0.87073    1.000000    
    155 O2    c    0.328532 *  0.098235 *  0.732703 *   0.87073    1.000000    
    156 O2    c    0.907464 *  0.230587 *  0.065460 *   0.87073    1.000000    
    157 O2    c    0.321331 *  0.236695 *  0.439404 *   0.87073    1.000000    
    158 O2    c    0.908975 *  0.674901 *  0.103072 *   0.87073    1.000000    
    159 O2    c    0.770516 *  0.088585 *  0.769804 *   0.87073    1.000000    
    160 O2    c    0.668225 *  0.759284 *  0.935148 *   0.87073    1.000000    
    161 O2    c    0.095205 *  0.324279 *  0.601760 *   0.87073    1.000000    
    162 O2    c    0.229354 *  0.906019 *  0.267009 *   0.87073    1.000000    
    163 O2    c    0.578072 *  0.552290 *  0.987801 *   0.87073    1.000000    
    164 O2    c    0.436285 *  0.029279 *  0.323195 *   0.87073    1.000000    
    165 O2    c    0.972267 *  0.408816 *  0.657481 *   0.87073    1.000000    
    166 O2    c    0.417017 *  0.448805 *  0.492886 *   0.87073    1.000000    
    167 O2    c    0.562702 *  0.975193 *  0.825657 *   0.87073    1.000000    
    168 O2    c    0.029294 *  0.585562 *  0.158372 *   0.87073    1.000000    
    169 O2    c    0.550331 *  0.584064 *  0.342362 *   0.87073    1.000000    
    170 O2    c    0.026431 *  0.437857 *  0.009868 *   0.87073    1.000000    
    171 O2    c    0.411678 *  0.969623 *  0.677959 *   0.87073    1.000000    
    172 O3    c    0.454062 *  0.408798 *  0.838225 *   1.33043    1.000000    
    173 O2    c    0.971067 *  0.563793 *  0.511521 *   0.87073    1.000000    
    174 O2    c    0.591391 *  0.029284 *  0.177445 *   0.87073    1.000000    
    175 O2    c    0.581282 *  0.166869 *  0.250345 *   0.87073    1.000000    
    176 O2    c    0.833890 *  0.418471 *  0.584423 *   0.87073    1.000000    
    177 O2    c    0.580041 *  0.414761 *  0.916037 *   0.87073    1.000000    
    178 O2    c    0.417872 *  0.836780 *  0.752246 *   0.87073    1.000000    
    179 O2    c    0.164360 *  0.581413 *  0.083923 *   0.87073    1.000000    
    180 O2    c    0.414311 *  0.584509 *  0.417878 *   0.87073    1.000000    
    181 F     c    0.452109 *  0.904318 *  0.249797 *   0.56000    1.000000    
    182 F     c    0.095967 *  0.547964 *  0.584281 *   0.56000    1.000000    
    183 F     c    0.423515 *  0.516765 *  0.906491 *   0.56000    1.000000    
    184 F     c    0.551334 *  0.095524 *  0.751144 *   0.56000    1.000000    
    185 F     c    0.903116 *  0.451303 *  0.083702 *   0.56000    1.000000    
    186 F     c    0.545502 *  0.454824 *  0.416891 *   0.56000    1.000000    
    187 O2    s    0.918852 *  0.993349 *  0.001150 *  -2.87073    1.000000    
    188 O3    s    0.004221 *  0.933671 *  0.336960 *  -3.33043    1.000000    
    189 O2    s    0.076174 *  0.071031 *  0.671471 *  -2.87073    1.000000    
    190 O3    s    0.066440 *  0.994997 *  0.499020 *  -3.33043    1.000000    
    191 O2    s    0.003383 *  0.074524 *  0.836096 *  -2.87073    1.000000    
    192 O2    s    0.928069 *  0.925309 *  0.165218 *  -2.87073    1.000000    
    193 O2    s    0.346179 *  0.585041 *  0.334398 *  -2.87073    1.000000    
    194 O2    s    0.413207 *  0.763743 *  0.669055 *  -2.87073    1.000000    
    195 O2    s    0.230301 *  0.643129 *  0.000374 *  -2.87073    1.000000    
    196 O2    s    0.661753 *  0.416187 *  0.833851 *  -2.87073    1.000000    
    197 O2    s    0.588017 *  0.233184 *  0.166859 *  -2.87073    1.000000    
    198 O2    s    0.767602 *  0.357909 *  0.500354 *  -2.87073    1.000000    
    199 O2    s    0.584675 *  0.348909 *  0.000442 *  -2.87073    1.000000    
    200 O2    s    0.767875 *  0.410422 *  0.667690 *  -2.87073    1.000000    
    201 O2    s    0.642123 *  0.233473 *  0.334359 *  -2.87073    1.000000    
    202 O2    s    0.415844 *  0.653082 *  0.501432 *  -2.87073    1.000000    
    203 O2    s    0.235801 *  0.585761 *  0.167053 *  -2.87073    1.000000    
    204 O2    s    0.354421 *  0.778926 *  0.836073 *  -2.87073    1.000000    
    205 O2    s    0.116411 *  0.211579 *  0.975169 *  -2.87073    1.000000    
    206 O3    s    0.773392 *  0.908998 *  0.306930 *  -3.33043    1.000000    
    207 O2    s    0.095400 *  0.874286 *  0.641058 *  -2.87073    1.000000    
    208 O2    s    0.876751 *  0.782600 *  0.468241 *  -2.87073    1.000000    
    209 O2    s    0.226543 *  0.107533 *  0.805517 *  -2.87073    1.000000    
    210 O2    s    0.905766 *  0.121611 *  0.137244 *  -2.87073    1.000000    
    211 O2    s    0.217162 *  0.123743 *  0.367071 *  -2.87073    1.000000    
    212 O2    s    0.902300 *  0.779614 *  0.031541 *  -2.87073    1.000000    
    213 O2    s    0.878791 *  0.092588 *  0.698132 *  -2.87073    1.000000    
    214 O2    s    0.783600 *  0.877030 *  0.864382 *  -2.87073    1.000000    
    215 O3    s    0.092177 *  0.226808 *  0.528619 *  -3.33043    1.000000    
    216 O2    s    0.125020 *  0.903889 *  0.194207 *  -2.87073    1.000000    
    217 O3    s    0.938203 *  0.868231 *  0.247228 *  -3.33043    1.000000    
    218 O3    s    0.130809 *  0.062222 *  0.588763 *  -3.33043    1.000000    
    219 O2    s    0.929802 *  0.067121 *  0.918820 *  -2.87073    1.000000    
    220 O2    s    0.070314 *  0.145164 *  0.752925 *  -2.87073    1.000000    
    221 O2    s    0.854090 *  0.927317 *  0.083714 *  -2.87073    1.000000    
    222 O2    s    0.075766 *  0.925852 *  0.417920 *  -2.87073    1.000000    
    223 O2    s    0.904262 *  0.200317 *  0.983628 *  -2.87073    1.000000    
    224 O3    s    0.783185 *  0.690992 *  0.313768 *  -3.33043    1.000000    
    225 O2    s    0.296405 *  0.088564 *  0.650629 *  -2.87073    1.000000    
    226 O2    s    0.091997 *  0.797182 *  0.485655 *  -2.87073    1.000000    
    227 O3    s    0.201292 *  0.298107 *  0.817563 *  -3.33043    1.000000    
    228 O2    s    0.705934 *  0.908746 *  0.151134 *  -2.87073    1.000000    
    229 O2    s    0.202863 *  0.908911 *  0.349730 *  -2.87073    1.000000    
    230 O2    s    0.699720 *  0.787548 *  0.018462 *  -2.87073    1.000000    
    231 O2    s    0.092265 *  0.293142 *  0.684773 *  -2.87073    1.000000    
    232 O2    s    0.799568 *  0.090900 *  0.852339 *  -2.87073    1.000000    
    233 O3    s    0.309332 *  0.215840 *  0.521623 *  -3.33043    1.000000    
    234 O2    s    0.910758 *  0.703583 *  0.184971 *  -2.87073    1.000000    
    235 O2    s    0.326859 *  0.655370 *  0.250502 *  -2.87073    1.000000    
    236 O2    s    0.345285 *  0.672915 *  0.585325 *  -2.87073    1.000000    
    237 O2    s    0.325100 *  0.667412 *  0.917338 *  -2.87073    1.000000    
    238 O2    s    0.677831 *  0.343100 *  0.750448 *  -2.87073    1.000000    
    239 O2    s    0.655244 *  0.326102 *  0.084118 *  -2.87073    1.000000    
    240 O2    s    0.671186 *  0.329522 *  0.417372 *  -2.87073    1.000000    
    241 O2    s    0.374685 *  0.333727 *  0.968055 *  -2.87073    1.000000    
    242 O2    s    0.654271 *  0.037884 *  0.302981 *  -2.87073    1.000000    
    243 O2    s    0.964469 *  0.620684 *  0.637500 *  -2.87073    1.000000    
    244 O2    s    0.623463 *  0.663730 *  0.467704 *  -2.87073    1.000000    
    245 O2    s    0.344367 *  0.971962 *  0.802959 *  -2.87073    1.000000    
    246 O2    s    0.037714 *  0.376378 *  0.135692 *  -2.87073    1.000000    
    247 O2    s    0.335471 *  0.376672 *  0.367483 *  -2.87073    1.000000    
    248 O2    s    0.033396 *  0.655831 *  0.031984 *  -2.87073    1.000000    
    249 O2    s    0.622957 *  0.961027 *  0.699627 *  -2.87073    1.000000    
    250 O2    s    0.660847 *  0.622750 *  0.865337 *  -2.87073    1.000000    
    251 O2    s    0.963534 *  0.345977 *  0.532055 *  -2.87073    1.000000    
    252 O2    s    0.378650 *  0.035367 *  0.197304 *  -2.87073    1.000000    
    253 O2    s    0.774851 *  0.308578 *  0.014649 *  -2.87073    1.000000    
    254 O2    s    0.681337 *  0.462215 *  0.347349 *  -2.87073    1.000000    
    255 O2    s    0.536329 *  0.220807 *  0.681111 *  -2.87073    1.000000    
    256 O2    s    0.224898 *  0.693545 *  0.516296 *  -2.87073    1.000000    
    257 O3    s    0.308615 *  0.549749 *  0.844710 *  -3.33043    1.000000    
    258 O2    s    0.468126 *  0.776452 *  0.181513 *  -2.87073    1.000000    
    259 O2    s    0.306235 *  0.776123 *  0.319121 *  -2.87073    1.000000    
    260 O2    s    0.462642 *  0.682787 *  0.985177 *  -2.87073    1.000000    
    261 O2    s    0.224134 *  0.530988 *  0.653981 *  -2.87073    1.000000    
    262 O2    s    0.697916 *  0.224749 *  0.820120 *  -2.87073    1.000000    
    263 O2    s    0.538111 *  0.318147 *  0.487400 *  -2.87073    1.000000    
    264 O2    s    0.777909 *  0.465362 *  0.153744 *  -2.87073    1.000000    
    265 O2    s    0.785821 *  0.529181 *  0.031912 *  -2.87073    1.000000    
    266 O2    s    0.463947 *  0.256335 *  0.367365 *  -2.87073    1.000000    
    267 O2    s    0.744084 *  0.207265 *  0.698141 *  -2.87073    1.000000    
    268 O2    s    0.212708 *  0.473875 *  0.531109 *  -2.87073    1.000000    
    269 O2    s    0.530192 *  0.738476 *  0.864567 *  -2.87073    1.000000    
    270 O2    s    0.259565 *  0.788552 *  0.196398 *  -2.87073    1.000000    
    271 O2    s    0.526014 *  0.789012 *  0.304588 *  -2.87073    1.000000    
    272 O2    s    0.257390 *  0.464813 *  0.969024 *  -2.87073    1.000000    
    273 O2    s    0.210687 *  0.739085 *  0.638934 *  -2.87073    1.000000    
    274 O2    s    0.477664 *  0.215752 *  0.803967 *  -2.87073    1.000000    
    275 O2    s    0.743748 *  0.535686 *  0.467579 *  -2.87073    1.000000    
    276 O2    s    0.791073 *  0.257819 *  0.136788 *  -2.87073    1.000000    
    277 O3    s    0.224358 *  0.313315 *  0.903913 *  -3.33043    1.000000    
    278 O2    s    0.665988 *  0.906248 *  0.234442 *  -2.87073    1.000000    
    279 O2    s    0.093991 *  0.760786 *  0.568960 *  -2.87073    1.000000    
    280 O2    s    0.754651 *  0.668807 *  0.396814 *  -2.87073    1.000000    
    281 O2    s    0.337856 *  0.098072 *  0.733577 *  -2.87073    1.000000    
    282 O2    s    0.907219 *  0.239882 *  0.066382 *  -2.87073    1.000000    
    283 O2    s    0.331195 *  0.245720 *  0.438357 *  -2.87073    1.000000    
    284 O2    s    0.908466 *  0.665119 *  0.102135 *  -2.87073    1.000000    
    285 O2    s    0.761249 *  0.089217 *  0.768959 *  -2.87073    1.000000    
    286 O2    s    0.659856 *  0.751090 *  0.934471 *  -2.87073    1.000000    
    287 O2    s    0.095009 *  0.333839 *  0.601104 *  -2.87073    1.000000    
    288 O2    s    0.238954 *  0.906043 *  0.266206 *  -2.87073    1.000000    
    289 O2    s    0.574836 *  0.552938 *  0.984981 *  -2.87073    1.000000    
    290 O2    s    0.436321 *  0.024284 *  0.319887 *  -2.87073    1.000000    
    291 O2    s    0.977208 *  0.413719 *  0.654274 *  -2.87073    1.000000    
    292 O2    s    0.421238 *  0.448326 *  0.489529 *  -2.87073    1.000000    
    293 O2    s    0.563185 *  0.980368 *  0.822212 *  -2.87073    1.000000    
    294 O2    s    0.024466 *  0.581092 *  0.154986 *  -2.87073    1.000000    
    295 O2    s    0.550824 *  0.579568 *  0.345783 *  -2.87073    1.000000    
    296 O2    s    0.021501 *  0.437733 *  0.013257 *  -2.87073    1.000000    
    297 O2    s    0.416693 *  0.974679 *  0.681274 *  -2.87073    1.000000    
    298 O3    s    0.457895 *  0.415339 *  0.842303 *  -3.33043    1.000000    
    299 O2    s    0.976203 *  0.563726 *  0.514911 *  -2.87073    1.000000    
    300 O2    s    0.586237 *  0.024259 *  0.180732 *  -2.87073    1.000000    
    301 O2    s    0.575810 *  0.155692 *  0.250317 *  -2.87073    1.000000    
    302 O2    s    0.845213 *  0.423971 *  0.584403 *  -2.87073    1.000000    
    303 O2    s    0.575262 *  0.419430 *  0.916346 *  -2.87073    1.000000    
    304 O2    s    0.423539 *  0.848052 *  0.752099 *  -2.87073    1.000000    
    305 O2    s    0.153373 *  0.575778 *  0.083912 *  -2.87073    1.000000    
    306 O2    s    0.419812 *  0.579098 *  0.417842 *  -2.87073    1.000000    
    307 F     s    0.452090 *  0.904055 *  0.249724 *  -1.56000    1.000000    
    308 F     s    0.096177 *  0.548042 *  0.584191 *  -1.56000    1.000000    
    309 F     s    0.416709 *  0.510145 *  0.903556 *  -1.56000    1.000000    
    310 F     s    0.551536 *  0.095699 *  0.751154 *  -1.56000    1.000000    
    311 F     s    0.902723 *  0.451226 *  0.083655 *  -1.56000    1.000000    
    312 F     s    0.545646 *  0.454732 *  0.416800 *  -1.56000    1.000000    
--------------------------------------------------------------------------------



********************************************************************************
*  General input information                                                   *
********************************************************************************

  Species output for all configurations : 

--------------------------------------------------------------------------------
  Species    Type    Atomic    Atomic    Charge       Radii (Angs)     Library
                     Number     Mass       (e)     Cova   Ionic  VDW   Symbol
--------------------------------------------------------------------------------
    Si       Core       14      28.09   4.000000   1.200  0.000  2.100          
    O1       Core        8      16.00   1.733957   0.730  0.000  1.360          
    O1       Shell       8       0.00  -3.733957   0.730  0.000  1.360          
    O2       Core        8      16.00   0.870733   0.730  0.000  1.360          
    O2       Shell       8       0.00  -2.870733   0.730  0.000  1.360          
    O3       Core        8      16.00   1.330431   0.730  0.000  1.360          
    O3       Shell       8       0.00  -3.330431   0.730  0.000  1.360          
    F        Core        9      19.00   0.560000   0.710  0.000  1.300          
    F        Shell       9       0.00  -1.560000   0.710  0.000  1.300          
    Ge       Core       32      72.61   4.000000   1.170  0.000  1.750          
--------------------------------------------------------------------------------


  Lattice summation method               =    Ewald          (3-D)
                                         =    Parry          (2-D)
                                         =    Saunders et al (1-D)
  Accuracy factor for lattice sums       =   12.000


  Time limit = Infinity

  Maximum range for interatomic potentials =        16.000000 Angstroms

  Taper potentials to zero over   1.0000 Angstroms using polynomial

  General interatomic potentials :

--------------------------------------------------------------------------------
Atom  Types   Potential         A         B         C         D     Cutoffs(Ang)
  1     2                                                            Min    Max 
--------------------------------------------------------------------------------
Si   c O1   s Buckingham    0.132E+04 0.318      10.1      0.00     0.000 16.000
Si   c O2   s Buckingham    0.132E+04 0.318      10.1      0.00     0.000 16.000
Si   c O3   s Buckingham    0.132E+04 0.318      10.1      0.00     0.000 16.000
Ge   c O1   s Buckingham    0.150E+04 0.326      16.8      0.00     0.000 16.000
Ge   c O2   s Buckingham    0.150E+04 0.326      16.8      0.00     0.000 16.000
Ge   c O3   s Buckingham    0.150E+04 0.326      16.8      0.00     0.000 16.000
O1   s O1   s Buckingham    0.228E+05 0.149      10.9      0.00     0.000 16.000
O1   s O2   s Buckingham    0.228E+05 0.149      10.9      0.00     0.000 16.000
O1   s O3   s Buckingham    0.228E+05 0.149      10.9      0.00     0.000 16.000
O2   s O2   s Buckingham    0.228E+05 0.149      10.9      0.00     0.000 16.000
O2   s O3   s Buckingham    0.228E+05 0.149      10.9      0.00     0.000 16.000
O3   s O3   s Buckingham    0.228E+05 0.149      10.9      0.00     0.000 16.000
Si   c F    s Buckingham     977.     0.282      0.00      0.00     0.000 16.000
Ge   c F    s Buckingham     681.     0.320      0.00      0.00     0.000 16.000
F    s F    s Buckingham     540.     0.262      0.00      0.00     0.000 16.000
O1   s F    s Buckingham    0.168E+04 0.268      0.00      0.00     0.000 16.000
O2   s F    s Buckingham    0.168E+04 0.268      0.00      0.00     0.000 16.000
O3   s F    s Buckingham    0.168E+04 0.268      0.00      0.00     0.000 16.000
O2   c O2   s Spring (c-s)   76.0      0.00      0.00      0.00     0.000  0.800
O3   c O3   s Spring (c-s)   128.      0.00      0.00      0.00     0.000  0.800
O1   c O1   s Spring (c-s)   180.      0.00      0.00      0.00     0.000  0.800
F    c F    s Spring (c-s)   33.5      0.00      0.00      0.00     0.000  0.800
--------------------------------------------------------------------------------

  General Three-body potentials :

  Harmonic form:

--------------------------------------------------------------------------------
Atom    Atom    Atom           Force Constants            Theta     Cutoffs  
  1       2       3     (eVrad**-2/eVrad**-3/eVrad**-4)   (deg)  1-2  1-3  2-3
--------------------------------------------------------------------------------
Si    c O1    s O1    s  1.261        0.0000    0.0000   109.470 0.00 0.00 0.00
                                                                 1.90 1.90 3.50
Si    c O1    s O2    s  1.261        0.0000    0.0000   109.470 0.00 0.00 0.00
                                                                 1.90 1.90 3.50
Si    c O2    s O2    s  1.261        0.0000    0.0000   109.470 0.00 0.00 0.00
                                                                 1.90 1.90 3.50
--------------------------------------------------------------------------------

********************************************************************************
*  Output for configuration   1                                                *
********************************************************************************


  Components of energy : 

--------------------------------------------------------------------------------
  Interatomic potentials     =        2060.98403781 eV
  Three-body potentials      =           0.45613833 eV
  Monopole - monopole (real) =       -6611.72224789 eV
  Monopole - monopole (recip)=       -3169.10047218 eV
  Monopole - monopole (total)=       -9780.82272007 eV
  Neutralising energy        =          -6.45545229 eV
--------------------------------------------------------------------------------
  Total lattice energy       =       -7725.83799622 eV
--------------------------------------------------------------------------------
  Total lattice energy       =         -745425.2664 kJ/(mole unit cells)
--------------------------------------------------------------------------------


  Number of variables =      939

  Maximum number of calculations  =          1000
  Maximum Hessian update interval =            10
  Maximum step size               =   1.000000000
  Maximum parameter tolerance     =   0.000010000
  Maximum function  tolerance     =   0.000010000
  Maximum gradient  tolerance     =   0.001000000
  Maximum gradient  component     =   0.010000000

  Symmetry not applied to optimisation

  Cell parameters to be optimised using strains

  Newton-Raphson optimiser to be used

  BFGS hessian update to be used

  Dumpfile to be written after every cycle

  Start of bulk optimisation :

  Cycle:      0 Energy:     -7725.837996  Gnorm:      0.000858  CPU:    1.132
  ** Hessian calculated **
  Cycle:      1 Energy:     -7725.857509  Gnorm:      0.001395  CPU:    3.042
  Cycle:      2 Energy:     -7725.857580  Gnorm:      0.000069  CPU:    4.424
  Cycle:      3 Energy:     -7725.857581  Gnorm:      0.000025  CPU:    5.807


  **** Optimisation achieved ****


  Final energy =   -7725.85758113 eV
  Final Gnorm  =       0.00000391

  Components of energy : 

--------------------------------------------------------------------------------
  Interatomic potentials     =        2061.16064818 eV
  Three-body potentials      =           0.46104216 eV
  Monopole - monopole (real) =       -6611.22688632 eV
  Monopole - monopole (recip)=       -3169.79551635 eV
  Monopole - monopole (total)=       -9781.02240267 eV
  Neutralising energy        =          -6.45686880 eV
--------------------------------------------------------------------------------
  Total lattice energy       =       -7725.85758113 eV
--------------------------------------------------------------------------------
  Total lattice energy       =         -745427.1560 kJ/(mole unit cells)
--------------------------------------------------------------------------------

  Final fractional coordinates of atoms :

--------------------------------------------------------------------------------
   No.  Atomic        x           y          z          Radius
        Label       (Frac)      (Frac)     (Frac)       (Angs) 
--------------------------------------------------------------------------------
     1  Si    c     0.699600    0.375700    0.033890    0.000000
     2  Si    c     0.614841    0.323370    0.368487    0.000000
     3  Si    c     0.682876    0.299257    0.701209    0.000000
     4  Si    c     0.304339    0.631115    0.536337    0.000000
     5  Si    c     0.372857    0.682592    0.866525    0.000000
     6  Si    c     0.319963    0.699073    0.201663    0.000000
     7  Si    c     0.370650    0.701060    0.303314    0.000000
     8  Si    c     0.315152    0.614570    0.968718    0.000000
     9  Si    c     0.301364    0.678280    0.637870    0.000000
    10  Si    c     0.634656    0.304274    0.801934    0.000000
    11  Si    c     0.681277    0.386394    0.468214    0.000000
    12  Si    c     0.698614    0.320513    0.134718    0.000000
    13  Si    c     0.525263    0.408739    0.967215    0.000000
    14  Si    c     0.574850    0.114683    0.301872    0.000000
    15  Si    c     0.892002    0.472074    0.636476    0.000000
    16  Si    c     0.473070    0.591216    0.470608    0.000000
    17  Si    c     0.423818    0.901401    0.804373    0.000000
    18  Si    c     0.108635    0.525744    0.136804    0.000000
    19  Si    c     0.410421    0.531638    0.369184    0.000000
    20  Si    c     0.107504    0.577041    0.034815    0.000000
    21  Si    c     0.472542    0.890604    0.702947    0.000000
    22  Si    c     0.587789    0.469574    0.864199    0.000000
    23  Si    c     0.891631    0.426512    0.534336    0.000000
    24  Si    c     0.526467    0.110444    0.199542    0.000000
    25  Ge    c     0.314817    0.413398    0.859047    0.000000
    26  Si    c     0.597665    0.900648    0.187851    0.000000
    27  Si    c     0.101737    0.706252    0.522824    0.000000
    28  Si    c     0.687654    0.598725    0.351844    0.000000
    29  Si    c     0.403230    0.100817    0.687977    0.000000
    30  Si    c     0.899386    0.297095    0.019885    0.000000
    31  Si    c     0.405555    0.312878    0.486744    0.000000
    32  Si    c     0.899941    0.597811    0.150743    0.000000
    33  Si    c     0.707126    0.101998    0.817690    0.000000
    34  Si    c     0.596818    0.692571    0.983142    0.000000
    35  Si    c     0.100760    0.398800    0.650574    0.000000
    36  Si    c     0.294987    0.904017    0.314887    0.000000
    37  Si    c     0.241215    0.327535    0.954638    0.000000
    38  Si    c     0.650521    0.912130    0.289238    0.000000
    39  Si    c     0.093040    0.751252    0.624053    0.000000
    40  Si    c     0.749298    0.665096    0.451801    0.000000
    41  Si    c     0.348857    0.103656    0.788944    0.000000
    42  Si    c     0.906871    0.247404    0.120930    0.000000
    43  Si    c     0.336927    0.255588    0.386553    0.000000
    44  Si    c     0.907561    0.655416    0.049841    0.000000
    45  Si    c     0.752845    0.090043    0.716795    0.000000
    46  Si    c     0.658785    0.749703    0.881492    0.000000
    47  Si    c     0.094008    0.351223    0.548779    0.000000
    48  Si    c     0.248130    0.907935    0.213475    0.000000
    49  Si    c     0.966034    0.115327    0.970873    0.000000
    50  Ge    c     0.872210    0.850379    0.302681    0.000000
    51  Si    c     0.151817    0.028500    0.639083    0.000000
    52  Si    c     0.030025    0.880514    0.469736    0.000000
    53  Si    c     0.128148    0.163415    0.805557    0.000000
    54  Si    c     0.843695    0.967526    0.135987    0.000000
    55  Si    c     0.121568    0.975596    0.368801    0.000000
    56  Si    c     0.843433    0.871475    0.035211    0.000000
    57  Si    c     0.032319    0.152521    0.703609    0.000000
    58  Si    c     0.883147    0.029352    0.868394    0.000000
    59  Ge    c     0.154017    0.128783    0.536122    0.000000
    60  Si    c     0.970100    0.847896    0.199742    0.000000
    61  O2    c     0.920501    0.991848    0.002553    0.000000
    62  O3    c     0.999223    0.940893    0.338346    0.000000
    63  O2    c     0.074807    0.070394    0.672780    0.000000
    64  O3    c     0.064316    0.001613    0.500409    0.000000
    65  O2    c     0.005357    0.069012    0.836916    0.000000
    66  O2    c     0.926161    0.925776    0.166900    0.000000
    67  O2    c     0.332080    0.579757    0.336858    0.000000
    68  O2    c     0.423133    0.763142    0.671394    0.000000
    69  O2    c     0.232936    0.652763    0.002391    0.000000
    70  O2    c     0.676450    0.428614    0.834810    0.000000
    71  O2    c     0.574940    0.234556    0.166670    0.000000
    72  O2    c     0.767701    0.350541    0.500910    0.000000
    73  O2    c     0.577462    0.336832    0.000293    0.000000
    74  O2    c     0.766190    0.421340    0.668371    0.000000
    75  O2    c     0.650581    0.239186    0.334705    0.000000
    76  O2    c     0.427346    0.669669    0.503487    0.000000
    77  O2    c     0.234673    0.574601    0.169254    0.000000
    78  O2    c     0.344469    0.781313    0.838545    0.000000
    79  O2    c     0.118997    0.207228    0.979688    0.000000
    80  O3    c     0.775388    0.916661    0.310609    0.000000
    81  O2    c     0.092007    0.875048    0.645510    0.000000
    82  O2    c     0.875684    0.789057    0.472163    0.000000
    83  O2    c     0.226675    0.107081    0.809858    0.000000
    84  O2    c     0.906661    0.121531    0.141136    0.000000
    85  O2    c     0.211894    0.129717    0.366293    0.000000
    86  O2    c     0.908362    0.782422    0.030381    0.000000
    87  O2    c     0.878134    0.089258    0.696601    0.000000
    88  O2    c     0.785454    0.875587    0.862638    0.000000
    89  O3    c     0.090879    0.227753    0.526984    0.000000
    90  O2    c     0.123070    0.907228    0.191808    0.000000
    91  O3    c     0.938543    0.871364    0.249708    0.000000
    92  O3    c     0.129060    0.063363    0.589225    0.000000
    93  O2    c     0.930797    0.062591    0.920077    0.000000
    94  O2    c     0.070206    0.143213    0.754659    0.000000
    95  O2    c     0.851853    0.925661    0.085198    0.000000
    96  O2    c     0.075549    0.928544    0.419235    0.000000
    97  O2    c     0.895504    0.197099    0.981828    0.000000
    98  O3    c     0.781928    0.687782    0.312118    0.000000
    99  O2    c     0.305243    0.099880    0.649245    0.000000
   100  O2    c     0.103271    0.804644    0.484910    0.000000
   101  O3    c     0.199954    0.309326    0.817497    0.000000
   102  O2    c     0.693727    0.897820    0.149667    0.000000
   103  O2    c     0.197605    0.903481    0.352704    0.000000
   104  O2    c     0.691859    0.786075    0.022543    0.000000
   105  O2    c     0.102041    0.302152    0.688714    0.000000
   106  O2    c     0.804587    0.102297    0.856325    0.000000
   107  O3    c     0.317384    0.217454    0.526239    0.000000
   108  O2    c     0.898205    0.694761    0.189069    0.000000
   109  O2    c     0.317073    0.643191    0.252490    0.000000
   110  O2    c     0.360389    0.683621    0.587369    0.000000
   111  O2    c     0.317586    0.671826    0.918577    0.000000
   112  O2    c     0.688081    0.359837    0.751347    0.000000
   113  O2    c     0.641416    0.319402    0.084088    0.000000
   114  O2    c     0.677323    0.325698    0.418127    0.000000
   115  O2    c     0.369679    0.322757    0.970643    0.000000
   116  O2    c     0.660849    0.045642    0.305797    0.000000
   117  O2    c     0.960511    0.627547    0.641011    0.000000
   118  O2    c     0.629439    0.677277    0.471416    0.000000
   119  O2    c     0.337976    0.970789    0.806849    0.000000
   120  O2    c     0.039448    0.369778    0.139435    0.000000
   121  O2    c     0.323976    0.375576    0.367384    0.000000
   122  O2    c     0.039051    0.664494    0.031197    0.000000
   123  O2    c     0.628502    0.958053    0.699038    0.000000
   124  O2    c     0.668316    0.626808    0.864477    0.000000
   125  O2    c     0.961105    0.340936    0.530857    0.000000
   126  O2    c     0.370406    0.039921    0.195335    0.000000
   127  O2    c     0.767322    0.300439    0.011740    0.000000
   128  O2    c     0.686433    0.464435    0.345261    0.000000
   129  O2    c     0.538814    0.231600    0.679108    0.000000
   130  O2    c     0.235989    0.707059    0.514865    0.000000
   131  O3    c     0.297826    0.546870    0.842145    0.000000
   132  O2    c     0.463526    0.766733    0.179844    0.000000
   133  O2    c     0.295334    0.770910    0.323643    0.000000
   134  O2    c     0.460997    0.687846    0.989105    0.000000
   135  O2    c     0.233750    0.533890    0.658770    0.000000
   136  O2    c     0.710582    0.237422    0.824550    0.000000
   137  O2    c     0.540506    0.314009    0.491664    0.000000
   138  O2    c     0.766085    0.463417    0.157450    0.000000
   139  O2    c     0.779988    0.531702    0.029647    0.000000
   140  O2    c     0.458909    0.249670    0.366487    0.000000
   141  O2    c     0.755354    0.216240    0.696595    0.000000
   142  O2    c     0.221746    0.476208    0.530022    0.000000
   143  O2    c     0.529730    0.745441    0.863846    0.000000
   144  O2    c     0.246660    0.780789    0.194930    0.000000
   145  O2    c     0.525934    0.785586    0.308810    0.000000
   146  O2    c     0.248792    0.460016    0.972264    0.000000
   147  O2    c     0.218673    0.750738    0.643461    0.000000
   148  O2    c     0.479290    0.225827    0.807961    0.000000
   149  O2    c     0.754512    0.541881    0.470743    0.000000
   150  O2    c     0.781015    0.247404    0.140006    0.000000
   151  O3    c     0.212816    0.302935    0.902061    0.000000
   152  O2    c     0.670989    0.904965    0.234842    0.000000
   153  O2    c     0.097445    0.774999    0.569703    0.000000
   154  O2    c     0.763759    0.681474    0.396993    0.000000
   155  O2    c     0.332221    0.103428    0.734273    0.000000
   156  O2    c     0.903952    0.227913    0.066527    0.000000
   157  O2    c     0.322222    0.239794    0.441279    0.000000
   158  O2    c     0.905923    0.672726    0.104242    0.000000
   159  O2    c     0.773942    0.092946    0.771242    0.000000
   160  O2    c     0.666782    0.759610    0.936330    0.000000
   161  O2    c     0.098884    0.328816    0.603131    0.000000
   162  O2    c     0.225350    0.905810    0.267734    0.000000
   163  O2    c     0.576314    0.550752    0.988244    0.000000
   164  O2    c     0.432822    0.030925    0.323742    0.000000
   165  O2    c     0.975097    0.412544    0.658550    0.000000
   166  O2    c     0.420231    0.452568    0.494831    0.000000
   167  O2    c     0.566140    0.980376    0.827469    0.000000
   168  O2    c     0.024057    0.581890    0.159928    0.000000
   169  O2    c     0.548437    0.586456    0.344125    0.000000
   170  O2    c     0.025378    0.436030    0.011324    0.000000
   171  O2    c     0.414418    0.973727    0.679908    0.000000
   172  O3    c     0.452806    0.411456    0.838587    0.000000
   173  O2    c     0.975276    0.568864    0.512614    0.000000
   174  O2    c     0.585803    0.026675    0.178090    0.000000
   175  O2    c     0.576790    0.166414    0.250553    0.000000
   176  O2    c     0.837603    0.423114    0.585196    0.000000
   177  O2    c     0.577155    0.413884    0.916112    0.000000
   178  O2    c     0.421527    0.841863    0.754317    0.000000
   179  O2    c     0.161118    0.578548    0.085859    0.000000
   180  O2    c     0.414818    0.587567    0.420024    0.000000
   181  F     c     0.447304    0.903314    0.250852    0.000000
   182  F     c     0.100334    0.553336    0.585705    0.000000
   183  F     c     0.421124    0.516701    0.907539    0.000000
   184  F     c     0.556718    0.102237    0.752776    0.000000
   185  F     c     0.900044    0.449109    0.084479    0.000000
   186  F     c     0.546035    0.457568    0.418409    0.000000
   187  O2    s     0.916756    0.991885    0.002747    0.000000
   188  O3    s     0.001363    0.936746    0.338522    0.000000
   189  O2    s     0.078676    0.074903    0.672459    0.000000
   190  O3    s     0.068354    0.999455    0.500168    0.000000
   191  O2    s     0.004086    0.074165    0.837270    0.000000
   192  O2    s     0.921613    0.921926    0.166994    0.000000
   193  O2    s     0.343890    0.587276    0.336681    0.000000
   194  O2    s     0.415659    0.767447    0.671167    0.000000
   195  O2    s     0.228701    0.641068    0.002190    0.000000
   196  O2    s     0.663386    0.420375    0.834495    0.000000
   197  O2    s     0.582743    0.230683    0.166738    0.000000
   198  O2    s     0.771465    0.362118    0.500934    0.000000
   199  O2    s     0.584543    0.348335    0.000292    0.000000
   200  O2    s     0.770664    0.413959    0.668460    0.000000
   201  O2    s     0.638990    0.234914    0.334786    0.000000
   202  O2    s     0.419605    0.657815    0.503463    0.000000
   203  O2    s     0.230391    0.582234    0.169222    0.000000
   204  O2    s     0.355656    0.783160    0.838025    0.000000
   205  O2    s     0.115163    0.209605    0.976328    0.000000
   206  O3    s     0.770749    0.910740    0.307812    0.000000
   207  O2    s     0.098357    0.878147    0.642628    0.000000
   208  O2    s     0.878653    0.785563    0.469744    0.000000
   209  O2    s     0.229928    0.112318    0.807210    0.000000
   210  O2    s     0.900037    0.118284    0.138532    0.000000
   211  O2    s     0.215509    0.126589    0.368694    0.000000
   212  O2    s     0.901353    0.778845    0.032872    0.000000
   213  O2    s     0.881208    0.095925    0.699391    0.000000
   214  O2    s     0.782039    0.878036    0.865210    0.000000
   215  O3    s     0.096419    0.231950    0.529908    0.000000
   216  O2    s     0.120018    0.901078    0.194853    0.000000
   217  O3    s     0.936214    0.866984    0.248853    0.000000
   218  O3    s     0.133698    0.065393    0.589900    0.000000
   219  O2    s     0.929477    0.064882    0.920111    0.000000
   220  O2    s     0.071981    0.146429    0.754155    0.000000
   221  O2    s     0.849958    0.924156    0.085191    0.000000
   222  O2    s     0.075653    0.928484    0.419184    0.000000
   223  O2    s     0.903290    0.198789    0.984587    0.000000
   224  O3    s     0.780351    0.692671    0.315139    0.000000
   225  O2    s     0.299217    0.092569    0.652086    0.000000
   226  O2    s     0.095324    0.802501    0.487261    0.000000
   227  O3    s     0.199541    0.299814    0.818922    0.000000
   228  O2    s     0.699953    0.905582    0.152111    0.000000
   229  O2    s     0.199796    0.911208    0.350394    0.000000
   230  O2    s     0.697624    0.785059    0.019678    0.000000
   231  O2    s     0.094626    0.296572    0.686296    0.000000
   232  O2    s     0.802925    0.094527    0.853644    0.000000
   233  O3    s     0.312673    0.219482    0.523231    0.000000
   234  O2    s     0.905761    0.700682    0.186299    0.000000
   235  O2    s     0.322786    0.654719    0.252462    0.000000
   236  O2    s     0.348762    0.677750    0.587255    0.000000
   237  O2    s     0.322619    0.666842    0.918839    0.000000
   238  O2    s     0.682034    0.347893    0.751433    0.000000
   239  O2    s     0.653166    0.325271    0.084106    0.000000
   240  O2    s     0.671362    0.331601    0.418143    0.000000
   241  O2    s     0.373088    0.332191    0.968679    0.000000
   242  O2    s     0.650658    0.038878    0.303618    0.000000
   243  O2    s     0.967382    0.624501    0.638745    0.000000
   244  O2    s     0.625720    0.667120    0.469278    0.000000
   245  O2    s     0.348190    0.977316    0.804702    0.000000
   246  O2    s     0.032704    0.373001    0.137224    0.000000
   247  O2    s     0.334229    0.379287    0.369562    0.000000
   248  O2    s     0.032331    0.654579    0.033523    0.000000
   249  O2    s     0.625545    0.964961    0.701304    0.000000
   250  O2    s     0.659244    0.624144    0.866271    0.000000
   251  O2    s     0.967726    0.351088    0.533125    0.000000
   252  O2    s     0.373691    0.033348    0.197683    0.000000
   253  O2    s     0.774232    0.307889    0.014925    0.000000
   254  O2    s     0.679040    0.463893    0.348435    0.000000
   255  O2    s     0.539341    0.224784    0.682335    0.000000
   256  O2    s     0.229030    0.699183    0.517937    0.000000
   257  O3    s     0.306887    0.551845    0.845916    0.000000
   258  O2    s     0.462753    0.773741    0.182956    0.000000
   259  O2    s     0.303073    0.777594    0.320588    0.000000
   260  O2    s     0.460605    0.680830    0.986357    0.000000
   261  O2    s     0.226924    0.534756    0.655727    0.000000
   262  O2    s     0.702395    0.229996    0.821458    0.000000
   263  O2    s     0.540959    0.321498    0.488639    0.000000
   264  O2    s     0.773195    0.462863    0.154388    0.000000
   265  O2    s     0.785410    0.528840    0.032225    0.000000
   266  O2    s     0.462310    0.258244    0.368860    0.000000
   267  O2    s     0.747381    0.211233    0.699232    0.000000
   268  O2    s     0.216676    0.479130    0.532668    0.000000
   269  O2    s     0.528464    0.739580    0.866038    0.000000
   270  O2    s     0.254585    0.786111    0.197611    0.000000
   271  O2    s     0.522904    0.790332    0.306150    0.000000
   272  O2    s     0.255216    0.463029    0.970091    0.000000
   273  O2    s     0.213548    0.743079    0.640779    0.000000
   274  O2    s     0.481507    0.220728    0.805316    0.000000
   275  O2    s     0.746042    0.538720    0.468419    0.000000
   276  O2    s     0.786173    0.255142    0.137410    0.000000
   277  O3    s     0.222574    0.312801    0.904852    0.000000
   278  O2    s     0.661296    0.905188    0.235471    0.000000
   279  O2    s     0.097460    0.765384    0.570492    0.000000
   280  O2    s     0.754634    0.671566    0.398086    0.000000
   281  O2    s     0.341448    0.103175    0.735142    0.000000
   282  O2    s     0.903791    0.237258    0.067435    0.000000
   283  O2    s     0.332025    0.248758    0.440164    0.000000
   284  O2    s     0.905479    0.663029    0.103316    0.000000
   285  O2    s     0.764648    0.093576    0.770389    0.000000
   286  O2    s     0.658400    0.751339    0.935618    0.000000
   287  O2    s     0.098645    0.338334    0.602491    0.000000
   288  O2    s     0.234980    0.905815    0.266944    0.000000
   289  O2    s     0.573085    0.551481    0.985455    0.000000
   290  O2    s     0.432882    0.025854    0.320453    0.000000
   291  O2    s     0.980077    0.417465    0.655373    0.000000
   292  O2    s     0.424328    0.452081    0.491435    0.000000
   293  O2    s     0.566488    0.985352    0.824015    0.000000
   294  O2    s     0.019352    0.577572    0.156534    0.000000
   295  O2    s     0.548962    0.581917    0.347553    0.000000
   296  O2    s     0.020319    0.435876    0.014684    0.000000
   297  O2    s     0.419462    0.978795    0.683178    0.000000
   298  O3    s     0.456755    0.417800    0.842699    0.000000
   299  O2    s     0.980282    0.568720    0.516010    0.000000
   300  O2    s     0.580719    0.021765    0.181380    0.000000
   301  O2    s     0.571393    0.155308    0.250574    0.000000
   302  O2    s     0.848844    0.428533    0.585191    0.000000
   303  O2    s     0.572636    0.418729    0.916485    0.000000
   304  O2    s     0.427041    0.852984    0.754156    0.000000
   305  O2    s     0.150140    0.572961    0.085799    0.000000
   306  O2    s     0.420311    0.582168    0.419949    0.000000
   307  F     s     0.447228    0.903002    0.250785    0.000000
   308  F     s     0.100644    0.553503    0.585616    0.000000
   309  F     s     0.414062    0.509925    0.904477    0.000000
   310  F     s     0.557115    0.102654    0.752801    0.000000
   311  F     s     0.899636    0.449027    0.084399    0.000000
   312  F     s     0.546200    0.457484    0.418318    0.000000
--------------------------------------------------------------------------------

  Final Cartesian lattice vectors (Angstroms) :

       11.985651    0.001795   -0.008844
       -6.014811   10.393676    0.004653
       -0.130574   -0.117526   29.394960


  Final cell parameters and derivatives :

--------------------------------------------------------------------------------
       a           11.985655 Angstrom     dE/de1(xx)     0.000285 eV/strain
       b           12.008600 Angstrom     dE/de2(yy)     0.000425 eV/strain
       c           29.395485 Angstrom     dE/de3(zz)     0.000266 eV/strain
       alpha       90.048592 Degrees      dE/de4(yz)    -0.000075 eV/strain
       beta        90.296818 Degrees      dE/de5(xz)    -0.000052 eV/strain
       gamma      120.049354 Degrees      dE/de6(xy)    -0.000020 eV/strain
--------------------------------------------------------------------------------

  Primitive cell volume =          3662.182214 Angs**3

  Density of cell =      1.747071 g/cm**3

  Non-primitive cell volume =          3662.182214 Angs**3


  Final internal derivatives :

--------------------------------------------------------------------------------
   No.  Atomic          a             b             c           Radius
        Label          (eV)          (eV)          (eV)        (eV/Angs)
--------------------------------------------------------------------------------
      1 Si    c       0.000000      0.000000      0.000000      0.000000
      2 Si    c       0.000036     -0.000017      0.000147      0.000000
      3 Si    c       0.000001      0.000001     -0.000177      0.000000
      4 Si    c      -0.000005      0.000003      0.000022      0.000000
      5 Si    c       0.000136     -0.000332      0.000386      0.000000
      6 Si    c      -0.000009      0.000032      0.000003      0.000000
      7 Si    c      -0.000011      0.000015     -0.000018      0.000000
      8 Si    c       0.000028     -0.000039     -0.000117      0.000000
      9 Si    c      -0.000008      0.000007      0.000030      0.000000
     10 Si    c       0.000106     -0.000119     -0.000132      0.000000
     11 Si    c      -0.000012      0.000015     -0.000238      0.000000
     12 Si    c       0.000037      0.000005     -0.000037      0.000000
     13 Si    c       0.000030     -0.000007      0.000126      0.000000
     14 Si    c       0.000013     -0.000015      0.000115      0.000000
     15 Si    c       0.000025     -0.000015      0.000017      0.000000
     16 Si    c      -0.000012      0.000006     -0.000068      0.000000
     17 Si    c       0.000023      0.000004     -0.000199      0.000000
     18 Si    c       0.000009      0.000002      0.000018      0.000000
     19 Si    c      -0.000041      0.000047     -0.000007      0.000000
     20 Si    c      -0.000013      0.000019     -0.000047      0.000000
     21 Si    c      -0.000041      0.000098     -0.000006      0.000000
     22 Si    c      -0.000050     -0.000031      0.000083      0.000000
     23 Si    c       0.000034     -0.000006      0.000066      0.000000
     24 Si    c       0.000020     -0.000042     -0.000104      0.000000
     25 Ge    c       0.000027      0.000145      0.000508      0.000000
     26 Si    c       0.000029     -0.000002     -0.000083      0.000000
     27 Si    c      -0.000004      0.000019     -0.000114      0.000000
     28 Si    c       0.000010      0.000057      0.000229      0.000000
     29 Si    c       0.000019     -0.000042      0.000042      0.000000
     30 Si    c      -0.000023      0.000006     -0.000003      0.000000
     31 Si    c      -0.000057      0.000003     -0.000094      0.000000
     32 Si    c      -0.000016     -0.000025      0.000032      0.000000
     33 Si    c       0.000036      0.000006      0.000036      0.000000
     34 Si    c       0.000023      0.000018      0.000022      0.000000
     35 Si    c      -0.000009      0.000012     -0.000011      0.000000
     36 Si    c      -0.000030      0.000016      0.000063      0.000000
     37 Si    c      -0.000036      0.000007      0.000069      0.000000
     38 Si    c       0.000028      0.000002      0.000024      0.000000
     39 Si    c       0.000004      0.000006      0.000049      0.000000
     40 Si    c      -0.000012      0.000052     -0.000112      0.000000
     41 Si    c      -0.000024      0.000034     -0.000086      0.000000
     42 Si    c      -0.000041      0.000016      0.000061      0.000000
     43 Si    c      -0.000023     -0.000002      0.000151      0.000000
     44 Si    c      -0.000009     -0.000009      0.000022      0.000000
     45 Si    c       0.000025     -0.000036     -0.000022      0.000000
     46 Si    c       0.000005      0.000013      0.000061      0.000000
     47 Si    c       0.000010     -0.000025     -0.000010      0.000000
     48 Si    c       0.000002     -0.000017     -0.000016      0.000000
     49 Si    c      -0.000019      0.000020     -0.000126      0.000000
     50 Ge    c       0.000022     -0.000062      0.000500      0.000000
     51 Si    c       0.000028     -0.000003      0.000231      0.000000
     52 Si    c      -0.000048     -0.000208      0.000351      0.000000
     53 Si    c      -0.000011     -0.000082     -0.000186      0.000000
     54 Si    c      -0.000002     -0.000020      0.000020      0.000000
     55 Si    c      -0.000276     -0.000176     -0.000112      0.000000
     56 Si    c       0.000021     -0.000046     -0.000077      0.000000
     57 Si    c      -0.000021      0.000020      0.000108      0.000000
     58 Si    c       0.000059      0.000021      0.000113      0.000000
     59 Ge    c      -0.000039      0.000056     -0.000084      0.000000
     60 Si    c      -0.000025      0.000093      0.000709      0.000000
     61 O2    c      -0.000005      0.000007      0.000025      0.000000
     62 O3    c       0.000544     -0.000124      0.000471      0.000000
     63 O2    c       0.000029     -0.000042     -0.000077      0.000000
     64 O3    c      -0.000147      0.000346      0.000367      0.000000
     65 O2    c       0.000035     -0.000165      0.000082      0.000000
     66 O2    c       0.000018     -0.000025     -0.000075      0.000000
     67 O2    c       0.000032     -0.000033      0.000086      0.000000
     68 O2    c       0.000008     -0.000032     -0.000077      0.000000
     69 O2    c      -0.000028      0.000035      0.000091      0.000000
     70 O2    c       0.000022      0.000106      0.000108      0.000000
     71 O2    c      -0.000038     -0.000004      0.000029      0.000000
     72 O2    c       0.000080     -0.000083      0.000076      0.000000
     73 O2    c       0.000008      0.000013     -0.000055      0.000000
     74 O2    c      -0.000034      0.000002      0.000066      0.000000
     75 O2    c       0.000021     -0.000031     -0.000139      0.000000
     76 O2    c       0.000037     -0.000018     -0.000040      0.000000
     77 O2    c      -0.000008     -0.000045     -0.000047      0.000000
     78 O2    c      -0.000202      0.000307     -0.000180      0.000000
     79 O2    c       0.000006     -0.000008      0.000003      0.000000
     80 O3    c       0.000074     -0.000067      0.000020      0.000000
     81 O2    c      -0.000003     -0.000024      0.000012      0.000000
     82 O2    c      -0.000035      0.000004      0.000037      0.000000
     83 O2    c       0.000201     -0.000109      0.000093      0.000000
     84 O2    c      -0.000002     -0.000002      0.000000      0.000000
     85 O2    c       0.000051      0.000163      0.000025      0.000000
     86 O2    c      -0.000015      0.000040      0.000010      0.000000
     87 O2    c       0.000002     -0.000002      0.000004      0.000000
     88 O2    c      -0.000089     -0.000166     -0.000104      0.000000
     89 O3    c      -0.000035      0.000029      0.000029      0.000000
     90 O2    c      -0.000088      0.000015      0.000051      0.000000
     91 O3    c       0.000212     -0.000227     -0.002050      0.000000
     92 O3    c      -0.000056     -0.000022      0.000055      0.000000
     93 O2    c       0.000009     -0.000022      0.000159      0.000000
     94 O2    c       0.000011     -0.000024     -0.000082      0.000000
     95 O2    c      -0.000035      0.000032      0.000174      0.000000
     96 O2    c       0.000092      0.000174     -0.001630      0.000000
     97 O2    c       0.000009     -0.000013     -0.000016      0.000000
     98 O3    c      -0.000009      0.000048      0.000088      0.000000
     99 O2    c      -0.000012      0.000001     -0.000012      0.000000
    100 O2    c       0.000104     -0.000079      0.000030      0.000000
    101 O3    c      -0.000100      0.000284      0.000060      0.000000
    102 O2    c      -0.000000      0.000002      0.000029      0.000000
    103 O2    c      -0.000087      0.000112      0.000014      0.000000
    104 O2    c       0.000007     -0.000013     -0.000042      0.000000
    105 O2    c       0.000007      0.000008      0.000016      0.000000
    106 O2    c      -0.000178      0.000241     -0.000140      0.000000
    107 O3    c       0.000062     -0.000002     -0.000029      0.000000
    108 O2    c      -0.000015     -0.000001     -0.000002      0.000000
    109 O2    c       0.000007     -0.000023      0.000062      0.000000
    110 O2    c       0.000011     -0.000001     -0.000035      0.000000
    111 O2    c      -0.000007     -0.000005      0.000036      0.000000
    112 O2    c      -0.000017      0.000018      0.000166      0.000000
    113 O2    c       0.000025     -0.000002     -0.000049      0.000000
    114 O2    c      -0.000018     -0.000004     -0.000070      0.000000
    115 O2    c       0.000030     -0.000022      0.000045      0.000000
    116 O2    c      -0.000008      0.000010      0.000000      0.000000
    117 O2    c      -0.000012      0.000004      0.000017      0.000000
    118 O2    c      -0.000009      0.000005     -0.000000      0.000000
    119 O2    c      -0.000059      0.000035      0.000027      0.000000
    120 O2    c       0.000004     -0.000006      0.000011      0.000000
    121 O2    c       0.000005      0.000002      0.000015      0.000000
    122 O2    c       0.000017     -0.000016     -0.000007      0.000000
    123 O2    c       0.000008     -0.000005     -0.000024      0.000000
    124 O2    c       0.000007      0.000020      0.000028      0.000000
    125 O2    c      -0.000006     -0.000006     -0.000001      0.000000
    126 O2    c       0.000007      0.000013     -0.000040      0.000000
    127 O2    c       0.000014      0.000010      0.000015      0.000000
    128 O2    c       0.000023     -0.000041     -0.000019      0.000000
    129 O2    c       0.000022      0.000010     -0.000023      0.000000
    130 O2    c      -0.000007      0.000006     -0.000003      0.000000
    131 O3    c       0.000001     -0.000026      0.000032      0.000000
    132 O2    c      -0.000006     -0.000025     -0.000008      0.000000
    133 O2    c       0.000012     -0.000015     -0.000002      0.000000
    134 O2    c      -0.000009      0.000020      0.000023      0.000000
    135 O2    c       0.000003      0.000007     -0.000006      0.000000
    136 O2    c      -0.000002     -0.000008     -0.000005      0.000000
    137 O2    c       0.000011     -0.000035      0.000078      0.000000
    138 O2    c      -0.000000     -0.000010     -0.000063      0.000000
    139 O2    c       0.000030      0.000022     -0.000011      0.000000
    140 O2    c       0.000036     -0.000036     -0.000031      0.000000
    141 O2    c      -0.000014      0.000024     -0.000060      0.000000
    142 O2    c       0.000002     -0.000004     -0.000003      0.000000
    143 O2    c      -0.000070      0.000029     -0.000072      0.000000
    144 O2    c       0.000008     -0.000008      0.000004      0.000000
    145 O2    c       0.000001     -0.000010      0.000040      0.000000
    146 O2    c       0.000009      0.000015      0.000012      0.000000
    147 O2    c       0.000010     -0.000006     -0.000002      0.000000
    148 O2    c      -0.000025     -0.000001      0.000014      0.000000
    149 O2    c       0.000034     -0.000060      0.000060      0.000000
    150 O2    c      -0.000012      0.000017     -0.000039      0.000000
    151 O3    c       0.000019     -0.000057     -0.000014      0.000000
    152 O2    c       0.000037     -0.000029      0.000022      0.000000
    153 O2    c      -0.000004      0.000006      0.000001      0.000000
    154 O2    c      -0.000037     -0.000040     -0.000066      0.000000
    155 O2    c      -0.000005      0.000004      0.000017      0.000000
    156 O2    c       0.000000     -0.000010     -0.000063      0.000000
    157 O2    c       0.000016      0.000004      0.000055      0.000000
    158 O2    c      -0.000008      0.000009      0.000045      0.000000
    159 O2    c       0.000011     -0.000012     -0.000003      0.000000
    160 O2    c      -0.000000      0.000020     -0.000013      0.000000
    161 O2    c       0.000002     -0.000011     -0.000006      0.000000
    162 O2    c      -0.000053      0.000027     -0.000003      0.000000
    163 O2    c       0.000013     -0.000042      0.000000      0.000000
    164 O2    c       0.000020      0.000013      0.000009      0.000000
    165 O2    c      -0.000017      0.000011     -0.000009      0.000000
    166 O2    c      -0.000007      0.000011      0.000004      0.000000
    167 O2    c       0.000040     -0.000042      0.000204      0.000000
    168 O2    c      -0.000025      0.000018      0.000011      0.000000
    169 O2    c      -0.000014      0.000006     -0.000016      0.000000
    170 O2    c       0.000006      0.000002     -0.000007      0.000000
    171 O2    c       0.000038     -0.000033      0.000048      0.000000
    172 O3    c       0.000145     -0.000085     -0.000326      0.000000
    173 O2    c      -0.000017      0.000002     -0.000049      0.000000
    174 O2    c      -0.000022      0.000027      0.000026      0.000000
    175 O2    c       0.000001      0.000030     -0.000010      0.000000
    176 O2    c      -0.000013     -0.000009     -0.000066      0.000000
    177 O2    c       0.000009     -0.000009     -0.000165      0.000000
    178 O2    c      -0.000014     -0.000004      0.000049      0.000000
    179 O2    c       0.000020     -0.000001      0.000039      0.000000
    180 O2    c       0.000019     -0.000017      0.000048      0.000000
    181 F     c       0.000004     -0.000000     -0.000009      0.000000
    182 F     c      -0.000002     -0.000002      0.000013      0.000000
    183 F     c      -0.000030     -0.000006     -0.000156      0.000000
    184 F     c      -0.000020     -0.000036     -0.000021      0.000000
    185 F     c       0.000003     -0.000007      0.000014      0.000000
    186 F     c       0.000001      0.000004      0.000048      0.000000
    187 O2    s       0.000010     -0.000004     -0.000015      0.000000
    188 O3    s      -0.000121      0.000032     -0.000223      0.000000
    189 O2    s      -0.000016      0.000013      0.000031      0.000000
    190 O3    s       0.000059     -0.000048     -0.000106      0.000000
    191 O2    s       0.000067     -0.000049     -0.000068      0.000000
    192 O2    s       0.000043     -0.000025      0.000270      0.000000
    193 O2    s      -0.000011     -0.000001      0.000053      0.000000
    194 O2    s      -0.000009     -0.000014      0.000001      0.000000
    195 O2    s      -0.000009      0.000012     -0.000025      0.000000
    196 O2    s       0.000016     -0.000062     -0.000111      0.000000
    197 O2    s      -0.000011      0.000013     -0.000007      0.000000
    198 O2    s      -0.000015      0.000027     -0.000032      0.000000
    199 O2    s       0.000005     -0.000023      0.000035      0.000000
    200 O2    s      -0.000000      0.000003      0.000028      0.000000
    201 O2    s       0.000025      0.000005      0.000039      0.000000
    202 O2    s      -0.000017      0.000004     -0.000030      0.000000
    203 O2    s      -0.000003     -0.000005      0.000010      0.000000
    204 O2    s       0.000093     -0.000101      0.000099      0.000000
    205 O2    s      -0.000005      0.000007      0.000053      0.000000
    206 O3    s      -0.000012      0.000066      0.000015      0.000000
    207 O2    s       0.000012     -0.000016      0.000025      0.000000
    208 O2    s      -0.000102     -0.000077     -0.000004      0.000000
    209 O2    s       0.000049     -0.000075     -0.000067      0.000000
    210 O2    s       0.000011     -0.000013      0.000034      0.000000
    211 O2    s      -0.000129     -0.000042     -0.000177      0.000000
    212 O2    s       0.000010     -0.000004     -0.000037      0.000000
    213 O2    s      -0.000007      0.000009     -0.000006      0.000000
    214 O2    s       0.000028     -0.000051     -0.000038      0.000000
    215 O3    s       0.000002      0.000018     -0.000106      0.000000
    216 O2    s      -0.000064      0.000013      0.000012      0.000000
    217 O3    s      -0.000208      0.000234      0.000771      0.000000
    218 O3    s       0.000059     -0.000027      0.000008      0.000000
    219 O2    s       0.000071     -0.000027      0.000147      0.000000
    220 O2    s      -0.000051     -0.000004     -0.000086      0.000000
    221 O2    s      -0.000006      0.000001     -0.000005      0.000000
    222 O2    s       0.000051     -0.000033     -0.000067      0.000000
    223 O2    s      -0.000004      0.000021     -0.000017      0.000000
    224 O3    s       0.000001     -0.000074     -0.000052      0.000000
    225 O2    s       0.000002      0.000003     -0.000025      0.000000
    226 O2    s       0.000098     -0.000083      0.000229      0.000000
    227 O3    s      -0.000085      0.000105      0.000049      0.000000
    228 O2    s       0.000024     -0.000003     -0.000067      0.000000
    229 O2    s      -0.000123      0.000011      0.000193      0.000000
    230 O2    s       0.000001      0.000000      0.000035      0.000000
    231 O2    s      -0.000012      0.000024      0.000010      0.000000
    232 O2    s      -0.000045      0.000102     -0.000002      0.000000
    233 O3    s       0.000002      0.000002      0.000018      0.000000
    234 O2    s       0.000057      0.000023      0.000033      0.000000
    235 O2    s      -0.000002     -0.000010      0.000017      0.000000
    236 O2    s      -0.000008     -0.000002      0.000029      0.000000
    237 O2    s      -0.000037      0.000024      0.000001      0.000000
    238 O2    s       0.000020     -0.000065     -0.000131      0.000000
    239 O2    s      -0.000062      0.000013      0.000034      0.000000
    240 O2    s       0.000018     -0.000014     -0.000055      0.000000
    241 O2    s       0.000006     -0.000011     -0.000013      0.000000
    242 O2    s       0.000008      0.000016     -0.000004      0.000000
    243 O2    s      -0.000001      0.000010      0.000008      0.000000
    244 O2    s      -0.000022     -0.000001      0.000009      0.000000
    245 O2    s       0.000072     -0.000027     -0.000048      0.000000
    246 O2    s       0.000001      0.000009      0.000004      0.000000
    247 O2    s      -0.000019      0.000019     -0.000030      0.000000
    248 O2    s       0.000009      0.000015      0.000023      0.000000
    249 O2    s       0.000049     -0.000041     -0.000023      0.000000
    250 O2    s      -0.000009     -0.000016     -0.000015      0.000000
    251 O2    s       0.000008     -0.000005     -0.000036      0.000000
    252 O2    s       0.000000      0.000011      0.000011      0.000000
    253 O2    s       0.000007     -0.000016     -0.000091      0.000000
    254 O2    s      -0.000015      0.000025     -0.000044      0.000000
    255 O2    s       0.000003      0.000040      0.000006      0.000000
    256 O2    s       0.000003     -0.000006     -0.000028      0.000000
    257 O3    s      -0.000030     -0.000024     -0.000188      0.000000
    258 O2    s       0.000005      0.000008     -0.000043      0.000000
    259 O2    s      -0.000009     -0.000006      0.000085      0.000000
    260 O2    s       0.000011      0.000006      0.000060      0.000000
    261 O2    s       0.000011     -0.000001      0.000033      0.000000
    262 O2    s       0.000040      0.000003      0.000092      0.000000
    263 O2    s      -0.000033      0.000024      0.000035      0.000000
    264 O2    s      -0.000008      0.000020      0.000120      0.000000
    265 O2    s      -0.000020      0.000018     -0.000090      0.000000
    266 O2    s      -0.000012      0.000041      0.000028      0.000000
    267 O2    s      -0.000009      0.000027      0.000108      0.000000
    268 O2    s      -0.000004     -0.000000     -0.000022      0.000000
    269 O2    s       0.000011      0.000025      0.000049      0.000000
    270 O2    s      -0.000022      0.000007     -0.000034      0.000000
    271 O2    s       0.000003     -0.000010      0.000034      0.000000
    272 O2    s      -0.000030      0.000007     -0.000010      0.000000
    273 O2    s      -0.000002      0.000004      0.000019      0.000000
    274 O2    s       0.000009      0.000019      0.000043      0.000000
    275 O2    s      -0.000005      0.000005     -0.000064      0.000000
    276 O2    s       0.000033     -0.000031      0.000065      0.000000
    277 O3    s      -0.000030      0.000086     -0.000111      0.000000
    278 O2    s      -0.000029      0.000035     -0.000012      0.000000
    279 O2    s      -0.000008      0.000022     -0.000007      0.000000
    280 O2    s       0.000049      0.000025     -0.000063      0.000000
    281 O2    s      -0.000027      0.000001      0.000086      0.000000
    282 O2    s      -0.000001      0.000015      0.000013      0.000000
    283 O2    s      -0.000022      0.000015      0.000082      0.000000
    284 O2    s       0.000007     -0.000010     -0.000030      0.000000
    285 O2    s      -0.000018      0.000028      0.000023      0.000000
    286 O2    s       0.000008     -0.000011     -0.000002      0.000000
    287 O2    s       0.000010     -0.000006     -0.000014      0.000000
    288 O2    s       0.000084     -0.000039     -0.000044      0.000000
    289 O2    s       0.000022      0.000004      0.000022      0.000000
    290 O2    s       0.000001      0.000008     -0.000009      0.000000
    291 O2    s      -0.000002     -0.000008      0.000058      0.000000
    292 O2    s       0.000005     -0.000000      0.000007      0.000000
    293 O2    s      -0.000097      0.000072     -0.000328      0.000000
    294 O2    s       0.000021     -0.000016     -0.000014      0.000000
    295 O2    s      -0.000009      0.000003      0.000011      0.000000
    296 O2    s       0.000015     -0.000007      0.000025      0.000000
    297 O2    s      -0.000066     -0.000013     -0.000190      0.000000
    298 O3    s      -0.000118      0.000086      0.000267      0.000000
    299 O2    s       0.000021     -0.000029      0.000056      0.000000
    300 O2    s       0.000007      0.000004     -0.000038      0.000000
    301 O2    s      -0.000001     -0.000001     -0.000004      0.000000
    302 O2    s      -0.000008      0.000007      0.000004      0.000000
    303 O2    s      -0.000018      0.000001     -0.000022      0.000000
    304 O2    s      -0.000002     -0.000003      0.000184      0.000000
    305 O2    s      -0.000015      0.000001      0.000013      0.000000
    306 O2    s      -0.000009      0.000012     -0.000018      0.000000
    307 F     s      -0.000006      0.000005      0.000019      0.000000
    308 F     s       0.000005      0.000003     -0.000032      0.000000
    309 F     s      -0.000030     -0.000051     -0.000143      0.000000
    310 F     s       0.000044      0.000084      0.000062      0.000000
    311 F     s       0.000006      0.000016     -0.000028      0.000000
    312 F     s      -0.000007     -0.000004     -0.000094      0.000000
--------------------------------------------------------------------------------
  Maximum abs         0.000544      0.000346      0.002050      0.000000
--------------------------------------------------------------------------------


  Time to end of optimisation =       7.1902 seconds


  Peak dynamic memory used =      19.13 MB 


  Timing analysis for GULP :

--------------------------------------------------------------------------------
  Task / Subroutine                                          Time (Seconds)
--------------------------------------------------------------------------------
  Calculation of reciprocal space energy and derivatives          0.2857
  Calculation of real space energy and derivatives                6.0171
  Calculation of three-body energy and derivatives                0.6563
  Calculation of matrix inversion                                 0.1939
--------------------------------------------------------------------------------
  Total CPU time                                                  7.1903
--------------------------------------------------------------------------------


  Dump file written as out.res                                                 
  CIF file written as out.cif                                                 


  Job Finished at 10:43.54 26th November   2016                               

