********************************************************************************
*                       GENERAL UTILITY LATTICE PROGRAM                        *
*                                 Julian Gale                                  *
*                      Nanochemistry Research Institute                        *
*                           Department of Chemistry                            *
*                    Curtin University, Western Australia                      *
********************************************************************************
* Version = 4.2.0 * Last modified =  20th January 2014                         *
********************************************************************************
*  optimise     - perform optimisation run                                     *
*  conp         - constant pressure calculation                                *
*  qok          - running with non charge neutral cell is OK                   *
********************************************************************************

  Job Started  at 05:11.05 26th November   2016                               

  Number of CPUs =     1


  Total number of configurations input =   1

********************************************************************************
*  Input for Configuration =   1                                               *
********************************************************************************

  Formula = Si57Ge3O120F6                                               

  Number of irreducible atoms/shells =     312


  Total number atoms/shells =     312

  Dimensionality = 3               :  Bulk   


  Charge on solid   =  -6.000000 =>neutralising background added


  Cartesian lattice vectors (Angstroms) :

       11.975784    0.000000    0.000000
       -6.028232   10.311729    0.000000
        0.192848    0.365819   29.581143

  Cell parameters (Angstroms/Degrees):

  a =      11.9758    alpha =  89.5769
  b =      11.9445    beta  =  89.6265
  c =      29.5840    gamma = 120.3105

  Initial cell volume =        3653.006068 Angs**3

  Temperature of configuration =  0.000     K 

  Pressure of configuration =         0.000 GPa 

  Fractional coordinates of asymmetric unit :

--------------------------------------------------------------------------------
   No.  Atomic       x           y          z         Charge      Occupancy
        Label      (Frac)      (Frac)     (Frac)        (e)         (Frac)  
--------------------------------------------------------------------------------
      1 Si    c    0.699600    0.375700    0.033890     4.00000    1.000000    
      2 Si    c    0.621371 *  0.325492 *  0.367559 *   4.00000    1.000000    
      3 Si    c    0.672602 *  0.299515 *  0.699045 *   4.00000    1.000000    
      4 Si    c    0.297046 *  0.624132 *  0.532729 *   4.00000    1.000000    
      5 Si    c    0.379874 *  0.667387 *  0.867670 *   4.00000    1.000000    
      6 Si    c    0.323443 *  0.705466 *  0.202517 *   4.00000    1.000000    
      7 Si    c    0.376373 *  0.703732 *  0.302476 *   4.00000    1.000000    
      8 Si    c    0.325405 *  0.618526 *  0.969830 *   4.00000    1.000000    
      9 Si    c    0.294850 *  0.676666 *  0.632834 *   4.00000    1.000000    
     10 Si    c    0.623429 *  0.301030 *  0.801381 *   4.00000    1.000000    
     11 Si    c    0.674709 *  0.378563 *  0.467636 *   4.00000    1.000000    
     12 Si    c    0.701272 *  0.326652 *  0.135876 *   4.00000    1.000000    
     13 Si    c    0.528029 *  0.401426 *  0.968680 *   4.00000    1.000000    
     14 Si    c    0.582041 *  0.115666 *  0.302763 *   4.00000    1.000000    
     15 Si    c    0.886150 *  0.469039 *  0.633417 *   4.00000    1.000000    
     16 Si    c    0.468520 *  0.584110 *  0.468162 *   4.00000    1.000000    
     17 Si    c    0.410932 *  0.877558 *  0.802010 *   4.00000    1.000000    
     18 Si    c    0.115735 *  0.537910 *  0.137098 *   4.00000    1.000000    
     19 Si    c    0.416962 *  0.532636 *  0.367079 *   4.00000    1.000000    
     20 Si    c    0.124233 *  0.597971 *  0.034165 *   4.00000    1.000000    
     21 Si    c    0.463534 *  0.883899 *  0.698564 *   4.00000    1.000000    
     22 Si    c    0.589759 *  0.467637 *  0.866605 *   4.00000    1.000000    
     23 Si    c    0.884435 *  0.417353 *  0.532340 *   4.00000    1.000000    
     24 Si    c    0.530448 *  0.113760 *  0.201737 *   4.00000    1.000000    
     25 Si    c    0.303244 *  0.387710 *  0.848462 *   4.00000    1.000000    
     26 Si    c    0.604037 *  0.906254 *  0.187384 *   4.00000    1.000000    
     27 Si    c    0.095837 *  0.700604 *  0.518148 *   4.00000    1.000000    
     28 Si    c    0.698551 *  0.604997 *  0.352557 *   4.00000    1.000000    
     29 Si    c    0.391097 *  0.097167 *  0.682100 *   4.00000    1.000000    
     30 Si    c    0.913810 *  0.309695 *  0.018808 *   4.00000    1.000000    
     31 Si    c    0.396404 *  0.302079 *  0.482410 *   4.00000    1.000000    
     32 Si    c    0.902225 *  0.608756 *  0.153393 *   4.00000    1.000000    
     33 Si    c    0.697292 *  0.092327 *  0.815478 *   4.00000    1.000000    
     34 Si    c    0.605931 *  0.688884 *  0.985034 *   4.00000    1.000000    
     35 Si    c    0.093323 *  0.395927 *  0.647856 *   4.00000    1.000000    
     36 Si    c    0.299553 *  0.904674 *  0.316791 *   4.00000    1.000000    
     37 Ge    c    0.265397 *  0.349513 *  0.948121 *   4.00000    1.000000    
     38 Si    c    0.659101 *  0.913916 *  0.287808 *   4.00000    1.000000    
     39 Si    c    0.087463 *  0.749736 *  0.618330 *   4.00000    1.000000    
     40 Si    c    0.747311 *  0.660704 *  0.452699 *   4.00000    1.000000    
     41 Ge    c    0.354060 *  0.087327 *  0.782001 *   4.00000    1.000000    
     42 Si    c    0.915999 *  0.255198 *  0.120468 *   4.00000    1.000000    
     43 Si    c    0.339803 *  0.252769 *  0.382427 *   4.00000    1.000000    
     44 Ge    c    0.910289 *  0.647339 *  0.053911 *   4.00000    1.000000    
     45 Si    c    0.746114 *  0.085837 *  0.713588 *   4.00000    1.000000    
     46 Si    c    0.668150 *  0.747982 *  0.883577 *   4.00000    1.000000    
     47 Si    c    0.086256 *  0.340719 *  0.547493 *   4.00000    1.000000    
     48 Si    c    0.249557 *  0.913220 *  0.216633 *   4.00000    1.000000    
     49 Si    c    0.977546 *  0.124841 *  0.967910 *   4.00000    1.000000    
     50 Si    c    0.878555 *  0.855875 *  0.302177 *   4.00000    1.000000    
     51 Si    c    0.146807 *  0.028582 *  0.632486 *   4.00000    1.000000    
     52 Si    c    0.026572 *  0.879782 *  0.467686 *   4.00000    1.000000    
     53 Si    c    0.125724 *  0.143464 *  0.798578 *   4.00000    1.000000    
     54 Si    c    0.850005 *  0.971634 *  0.134611 *   4.00000    1.000000    
     55 Si    c    0.120106 *  0.973423 *  0.366870 *   4.00000    1.000000    
     56 Si    c    0.854173 *  0.875915 *  0.034385 *   4.00000    1.000000    
     57 Si    c    0.027242 *  0.148128 *  0.699385 *   4.00000    1.000000    
     58 Si    c    0.883565 *  0.032996 *  0.866903 *   4.00000    1.000000    
     59 Si    c    0.145597 *  0.121725 *  0.532343 *   4.00000    1.000000    
     60 Si    c    0.970941 *  0.854070 *  0.202036 *   4.00000    1.000000    
     61 O2    c    0.919841 *  0.998201 *  0.000124 *   0.87073    1.000000    
     62 O2    c    0.999746 *  0.934699 *  0.334539 *   0.87073    1.000000    
     63 O2    c    0.069485 *  0.070134 *  0.666303 *   0.87073    1.000000    
     64 O2    c    0.066442 *  0.001321 *  0.499677 *   0.87073    1.000000    
     65 O2    c    0.003842 *  0.076389 *  0.833549 *   0.87073    1.000000    
     66 O2    c    0.929870 *  0.929764 *  0.167082 *   0.87073    1.000000    
     67 O2    c    0.338486 *  0.579747 *  0.335197 *   0.87073    1.000000    
     68 O2    c    0.416664 *  0.760382 *  0.665852 *   0.87073    1.000000    
     69 O2    c    0.254041 *  0.671152 *  0.003119 *   0.87073    1.000000    
     70 O2    c    0.672510 *  0.426446 *  0.833997 *   0.87073    1.000000    
     71 O2    c    0.579303 *  0.239201 *  0.168791 *   0.87073    1.000000    
     72 O2    c    0.759285 *  0.340398 *  0.500316 *   0.87073    1.000000    
     73 O2    c    0.578351 *  0.324197 *  0.000101 *   0.87073    1.000000    
     74 O2    c    0.760697 *  0.421770 *  0.666237 *   0.87073    1.000000    
     75 O2    c    0.659315 *  0.240996 *  0.334853 *   0.87073    1.000000    
     76 O2    c    0.420875 *  0.662181 *  0.500180 *   0.87073    1.000000    
     77 O2    c    0.238934 *  0.583275 *  0.169800 *   0.87073    1.000000    
     78 O2    c    0.343288 *  0.749487 *  0.833753 *   0.87073    1.000000    
     79 O3    c    0.127360 *  0.207404 *  0.971253 *   1.33043    1.000000    
     80 O2    c    0.784999 *  0.915700 *  0.308606 *   0.87073    1.000000    
     81 O2    c    0.084397 *  0.873667 *  0.638705 *   0.87073    1.000000    
     82 O2    c    0.872287 *  0.786502 *  0.473375 *   0.87073    1.000000    
     83 O3    c    0.207977 *  0.075990 *  0.803198 *   1.33043    1.000000    
     84 O2    c    0.912112 *  0.127264 *  0.140594 *   0.87073    1.000000    
     85 O2    c    0.213827 *  0.128182 *  0.361739 *   0.87073    1.000000    
     86 O3    c    0.920219 *  0.792426 *  0.031438 *   1.33043    1.000000    
     87 O2    c    0.872230 *  0.087919 *  0.693047 *   0.87073    1.000000    
     88 O2    c    0.791288 *  0.876497 *  0.862865 *   0.87073    1.000000    
     89 O2    c    0.085104 *  0.215012 *  0.526676 *   0.87073    1.000000    
     90 O2    c    0.125854 *  0.916605 *  0.196440 *   0.87073    1.000000    
     91 O2    c    0.932827 *  0.876652 *  0.251612 *   0.87073    1.000000    
     92 O2    c    0.125953 *  0.065790 *  0.582651 *   0.87073    1.000000    
     93 O2    c    0.927851 *  0.073514 *  0.917413 *   0.87073    1.000000    
     94 O2    c    0.060382 *  0.130360 *  0.749754 *   0.87073    1.000000    
     95 O2    c    0.860169 *  0.935742 *  0.083894 *   0.87073    1.000000    
     96 O2    c    0.065490 *  0.933025 *  0.417190 *   0.87073    1.000000    
     97 O2    c    0.914385 *  0.214686 *  0.980765 *   0.87073    1.000000    
     98 O2    c    0.797393 *  0.702557 *  0.313870 *   0.87073    1.000000    
     99 O2    c    0.300750 *  0.097322 *  0.640893 *   0.87073    1.000000    
    100 O2    c    0.098013 *  0.799566 *  0.479800 *   0.87073    1.000000    
    101 O2    c    0.218769 *  0.299154 *  0.806389 *   0.87073    1.000000    
    102 O2    c    0.698888 *  0.902890 *  0.148827 *   0.87073    1.000000    
    103 O2    c    0.200342 *  0.902020 *  0.355056 *   0.87073    1.000000    
    104 O2    c    0.699935 *  0.782729 *  0.023525 *   0.87073    1.000000    
    105 O2    c    0.096449 *  0.300593 *  0.686554 *   0.87073    1.000000    
    106 O2    c    0.796090 *  0.096079 *  0.852861 *   0.87073    1.000000    
    107 O2    c    0.298504 *  0.203109 *  0.521037 *   0.87073    1.000000    
    108 O2    c    0.902585 *  0.699388 *  0.194784 *   0.87073    1.000000    
    109 O2    c    0.320572 *  0.645995 *  0.252611 *   0.87073    1.000000    
    110 O2    c    0.354078 *  0.679639 *  0.582758 *   0.87073    1.000000    
    111 O2    c    0.325548 *  0.669229 *  0.917943 *   0.87073    1.000000    
    112 O2    c    0.673808 *  0.352691 *  0.749548 *   0.87073    1.000000    
    113 O2    c    0.646950 *  0.326072 *  0.085687 *   0.87073    1.000000    
    114 O2    c    0.676729 *  0.322857 *  0.417620 *   0.87073    1.000000    
    115 O3    c    0.375997 *  0.310565 *  0.972680 *   1.33043    1.000000    
    116 O2    c    0.669090 *  0.046718 *  0.305485 *   0.87073    1.000000    
    117 O2    c    0.955050 *  0.625408 *  0.636933 *   0.87073    1.000000    
    118 O2    c    0.625035 *  0.670923 *  0.471034 *   0.87073    1.000000    
    119 O3    c    0.320758 *  0.938434 *  0.807468 *   1.33043    1.000000    
    120 O2    c    0.044398 *  0.380655 *  0.139074 *   0.87073    1.000000    
    121 O2    c    0.330041 *  0.375795 *  0.364428 *   0.87073    1.000000    
    122 O3    c    0.061903 *  0.687203 *  0.029841 *   1.33043    1.000000    
    123 O2    c    0.620348 *  0.954965 *  0.696663 *   0.87073    1.000000    
    124 O2    c    0.675807 *  0.624689 *  0.865726 *   0.87073    1.000000    
    125 O2    c    0.953614 *  0.330419 *  0.529808 *   0.87073    1.000000    
    126 O2    c    0.374506 *  0.045647 *  0.198251 *   0.87073    1.000000    
    127 O2    c    0.777659 *  0.306430 *  0.015229 *   0.87073    1.000000    
    128 O2    c    0.697654 *  0.470287 *  0.345276 *   0.87073    1.000000    
    129 O2    c    0.529593 *  0.231721 *  0.677292 *   0.87073    1.000000    
    130 O2    c    0.229886 *  0.700434 *  0.510653 *   0.87073    1.000000    
    131 O2    c    0.305700 *  0.525239 *  0.845270 *   0.87073    1.000000    
    132 O2    c    0.467579 *  0.773594 *  0.180238 *   0.87073    1.000000    
    133 O2    c    0.299842 *  0.770463 *  0.324652 *   0.87073    1.000000    
    134 O2    c    0.471614 *  0.689095 *  0.989290 *   0.87073    1.000000    
    135 O2    c    0.225986 *  0.532229 *  0.655238 *   0.87073    1.000000    
    136 O2    c    0.694826 *  0.225506 *  0.820634 *   0.87073    1.000000    
    137 O2    c    0.530474 *  0.302490 *  0.490146 *   0.87073    1.000000    
    138 O2    c    0.769005 *  0.469190 *  0.158368 *   0.87073    1.000000    
    139 O3    c    0.769193 *  0.529993 *  0.026788 *   1.33043    1.000000    
    140 O2    c    0.465222 *  0.251492 *  0.362978 *   0.87073    1.000000    
    141 O2    c    0.736379 *  0.208427 *  0.696438 *   0.87073    1.000000    
    142 O2    c    0.213397 *  0.467658 *  0.527973 *   0.87073    1.000000    
    143 O2    c    0.535951 *  0.736885 *  0.866272 *   0.87073    1.000000    
    144 O2    c    0.248371 *  0.786413 *  0.197557 *   0.87073    1.000000    
    145 O2    c    0.532563 *  0.786607 *  0.307514 *   0.87073    1.000000    
    146 O3    c    0.239199 *  0.464816 *  0.976144 *   1.33043    1.000000    
    147 O2    c    0.214534 *  0.752317 *  0.637670 *   0.87073    1.000000    
    148 O3    c    0.470266 *  0.229655 *  0.809217 *   1.33043    1.000000    
    149 O2    c    0.749067 *  0.535149 *  0.472212 *   0.87073    1.000000    
    150 O2    c    0.791561 *  0.261975 *  0.137168 *   0.87073    1.000000    
    151 O3    c    0.221712 *  0.303131 *  0.891262 *   1.33043    1.000000    
    152 O2    c    0.677089 *  0.910296 *  0.233748 *   0.87073    1.000000    
    153 O2    c    0.090636 *  0.770316 *  0.564198 *   0.87073    1.000000    
    154 O2    c    0.768331 *  0.679644 *  0.398559 *   0.87073    1.000000    
    155 O3    c    0.308827 *  0.092259 *  0.725207 *   1.33043    1.000000    
    156 O2    c    0.921872 *  0.247344 *  0.066574 *   0.87073    1.000000    
    157 O2    c    0.321359 *  0.231374 *  0.436596 *   0.87073    1.000000    
    158 O3    c    0.905134 *  0.692303 *  0.110795 *   1.33043    1.000000    
    159 O2    c    0.759034 *  0.086833 *  0.767519 *   0.87073    1.000000    
    160 O2    c    0.678213 *  0.755351 *  0.937585 *   0.87073    1.000000    
    161 O2    c    0.089244 *  0.322342 *  0.601601 *   0.87073    1.000000    
    162 O2    c    0.229778 *  0.910131 *  0.270819 *   0.87073    1.000000    
    163 O2    c    0.580432 *  0.543998 *  0.990852 *   0.87073    1.000000    
    164 O2    c    0.439444 *  0.030437 *  0.325658 *   0.87073    1.000000    
    165 O2    c    0.965901 *  0.407163 *  0.656534 *   0.87073    1.000000    
    166 O2    c    0.409905 *  0.441517 *  0.491300 *   0.87073    1.000000    
    167 O2    c    0.555769 *  0.967213 *  0.822596 *   0.87073    1.000000    
    168 O2    c    0.026537 *  0.589821 *  0.159258 *   0.87073    1.000000    
    169 O2    c    0.559084 *  0.590717 *  0.343970 *   0.87073    1.000000    
    170 O2    c    0.032601 *  0.455201 *  0.012272 *   0.87073    1.000000    
    171 O2    c    0.411887 *  0.973628 *  0.676592 *   0.87073    1.000000    
    172 O2    c    0.450484 *  0.416412 *  0.843643 *   0.87073    1.000000    
    173 O2    c    0.970392 *  0.560256 *  0.509557 *   0.87073    1.000000    
    174 O2    c    0.592013 *  0.033481 *  0.178928 *   0.87073    1.000000    
    175 O2    c    0.582893 *  0.169097 *  0.251962 *   0.87073    1.000000    
    176 O2    c    0.831207 *  0.416429 *  0.583199 *   0.87073    1.000000    
    177 O2    c    0.583716 *  0.411024 *  0.917064 *   0.87073    1.000000    
    178 O2    c    0.412637 *  0.833027 *  0.749668 *   0.87073    1.000000    
    179 O2    c    0.167376 *  0.590921 *  0.086318 *   0.87073    1.000000    
    180 O2    c    0.416592 *  0.585099 *  0.417632 *   0.87073    1.000000    
    181 F     c    0.450654 *  0.906057 *  0.252122 *   0.56000    1.000000    
    182 F     c    0.093762 *  0.549103 *  0.583738 *   0.56000    1.000000    
    183 F     c    0.417204 *  0.503236 *  0.922391 *   0.56000    1.000000    
    184 F     c    0.506711 *  0.091850 *  0.754879 *   0.56000    1.000000    
    185 F     c    0.908216 *  0.495954 *  0.081319 *   0.56000    1.000000    
    186 F     c    0.547353 *  0.452844 *  0.417960 *   0.56000    1.000000    
    187 O2    s    0.918936 *  0.998645 *  0.000350 *  -2.87073    1.000000    
    188 O2    s    0.999704 *  0.930227 *  0.334548 *  -2.87073    1.000000    
    189 O2    s    0.073382 *  0.074191 *  0.666208 *  -2.87073    1.000000    
    190 O2    s    0.070864 *  0.001198 *  0.499751 *  -2.87073    1.000000    
    191 O2    s    0.002761 *  0.078404 *  0.833706 *  -2.87073    1.000000    
    192 O2    s    0.925621 *  0.926024 *  0.167385 *  -2.87073    1.000000    
    193 O2    s    0.350513 *  0.587666 *  0.335116 *  -2.87073    1.000000    
    194 O2    s    0.409136 *  0.764729 *  0.665882 *  -2.87073    1.000000    
    195 O2    s    0.247981 *  0.658263 *  0.002913 *  -2.87073    1.000000    
    196 O2    s    0.659299 *  0.418131 *  0.834036 *  -2.87073    1.000000    
    197 O2    s    0.587233 *  0.235497 *  0.168697 *  -2.87073    1.000000    
    198 O2    s    0.763567 *  0.352239 *  0.500279 *  -2.87073    1.000000    
    199 O2    s    0.585954 *  0.337423 *  0.000447 *  -2.87073    1.000000    
    200 O2    s    0.764155 *  0.413558 *  0.666383 *  -2.87073    1.000000    
    201 O2    s    0.647456 *  0.236800 *  0.334927 *  -2.87073    1.000000    
    202 O2    s    0.412945 *  0.650238 *  0.500275 *  -2.87073    1.000000    
    203 O2    s    0.234854 *  0.591139 *  0.169786 *  -2.87073    1.000000    
    204 O2    s    0.354487 *  0.754286 *  0.834040 *  -2.87073    1.000000    
    205 O3    s    0.119540 *  0.207505 *  0.969340 *  -3.33043    1.000000    
    206 O2    s    0.781870 *  0.909175 *  0.305797 *  -2.87073    1.000000    
    207 O2    s    0.091303 *  0.877069 *  0.635951 *  -2.87073    1.000000    
    208 O2    s    0.875804 *  0.783392 *  0.470637 *  -2.87073    1.000000    
    209 O3    s    0.208577 *  0.084237 *  0.801279 *  -3.33043    1.000000    
    210 O2    s    0.906224 *  0.125066 *  0.137870 *  -2.87073    1.000000    
    211 O2    s    0.216951 *  0.124615 *  0.364418 *  -2.87073    1.000000    
    212 O3    s    0.912074 *  0.792278 *  0.033227 *  -3.33043    1.000000    
    213 O2    s    0.874389 *  0.093768 *  0.695850 *  -2.87073    1.000000    
    214 O2    s    0.787437 *  0.878614 *  0.865490 *  -2.87073    1.000000    
    215 O2    s    0.091646 *  0.218209 *  0.529419 *  -2.87073    1.000000    
    216 O2    s    0.122562 *  0.909718 *  0.199109 *  -2.87073    1.000000    
    217 O2    s    0.930948 *  0.871773 *  0.251799 *  -2.87073    1.000000    
    218 O2    s    0.130552 *  0.067926 *  0.582585 *  -2.87073    1.000000    
    219 O2    s    0.927846 *  0.074122 *  0.916801 *  -2.87073    1.000000    
    220 O2    s    0.063339 *  0.133776 *  0.748987 *  -2.87073    1.000000    
    221 O2    s    0.858363 *  0.933724 *  0.084676 *  -2.87073    1.000000    
    222 O2    s    0.067264 *  0.931533 *  0.417240 *  -2.87073    1.000000    
    223 O2    s    0.920429 *  0.216237 *  0.983618 *  -2.87073    1.000000    
    224 O2    s    0.795865 *  0.708787 *  0.316593 *  -2.87073    1.000000    
    225 O2    s    0.293650 *  0.090144 *  0.644047 *  -2.87073    1.000000    
    226 O2    s    0.090227 *  0.797887 *  0.482468 *  -2.87073    1.000000    
    227 O2    s    0.218183 *  0.292853 *  0.809830 *  -2.87073    1.000000    
    228 O2    s    0.704950 *  0.910501 *  0.151356 *  -2.87073    1.000000    
    229 O2    s    0.201956 *  0.909888 *  0.352393 *  -2.87073    1.000000    
    230 O2    s    0.704689 *  0.781617 *  0.020441 *  -2.87073    1.000000    
    231 O2    s    0.088795 *  0.294306 *  0.683912 *  -2.87073    1.000000    
    232 O2    s    0.794405 *  0.089152 *  0.850272 *  -2.87073    1.000000    
    233 O2    s    0.292229 *  0.204553 *  0.518288 *  -2.87073    1.000000    
    234 O2    s    0.909693 *  0.706685 *  0.191541 *  -2.87073    1.000000    
    235 O2    s    0.326554 *  0.657954 *  0.252589 *  -2.87073    1.000000    
    236 O2    s    0.342247 *  0.673717 *  0.582810 *  -2.87073    1.000000    
    237 O2    s    0.331140 *  0.664071 *  0.917763 *  -2.87073    1.000000    
    238 O2    s    0.668660 *  0.342065 *  0.749424 *  -2.87073    1.000000    
    239 O2    s    0.657794 *  0.331076 *  0.085810 *  -2.87073    1.000000    
    240 O2    s    0.670912 *  0.328792 *  0.417642 *  -2.87073    1.000000    
    241 O3    s    0.383866 *  0.322950 *  0.970436 *  -3.33043    1.000000    
    242 O2    s    0.659018 *  0.039908 *  0.303330 *  -2.87073    1.000000    
    243 O2    s    0.961828 *  0.622153 *  0.634588 *  -2.87073    1.000000    
    244 O2    s    0.621663 *  0.660837 *  0.468796 *  -2.87073    1.000000    
    245 O3    s    0.332572 *  0.942774 *  0.805033 *  -3.33043    1.000000    
    246 O2    s    0.038125 *  0.383498 *  0.136904 *  -2.87073    1.000000    
    247 O2    s    0.340129 *  0.379105 *  0.366621 *  -2.87073    1.000000    
    248 O3    s    0.057438 *  0.674984 *  0.032056 *  -3.33043    1.000000    
    249 O2    s    0.617607 *  0.961557 *  0.698651 *  -2.87073    1.000000    
    250 O2    s    0.666088 *  0.621575 *  0.867735 *  -2.87073    1.000000    
    251 O2    s    0.960366 *  0.340499 *  0.531936 *  -2.87073    1.000000    
    252 O2    s    0.377638 *  0.038807 *  0.200566 *  -2.87073    1.000000    
    253 O2    s    0.784154 *  0.313909 *  0.017563 *  -2.87073    1.000000    
    254 O2    s    0.689878 *  0.469533 *  0.348380 *  -2.87073    1.000000    
    255 O2    s    0.530419 *  0.225112 *  0.680088 *  -2.87073    1.000000    
    256 O2    s    0.222722 *  0.692595 *  0.513750 *  -2.87073    1.000000    
    257 O2    s    0.313263 *  0.526232 *  0.848016 *  -2.87073    1.000000    
    258 O2    s    0.467018 *  0.780535 *  0.183341 *  -2.87073    1.000000    
    259 O2    s    0.307688 *  0.777712 *  0.321506 *  -2.87073    1.000000    
    260 O2    s    0.470867 *  0.681737 *  0.986788 *  -2.87073    1.000000    
    261 O2    s    0.219108 *  0.532833 *  0.652091 *  -2.87073    1.000000    
    262 O2    s    0.687728 *  0.218981 *  0.818083 *  -2.87073    1.000000    
    263 O2    s    0.531244 *  0.310272 *  0.486984 *  -2.87073    1.000000    
    264 O2    s    0.775560 *  0.468624 *  0.155484 *  -2.87073    1.000000    
    265 O3    s    0.773006 *  0.523578 *  0.029492 *  -3.33043    1.000000    
    266 O2    s    0.468003 *  0.259498 *  0.365545 *  -2.87073    1.000000    
    267 O2    s    0.730596 *  0.204524 *  0.698581 *  -2.87073    1.000000    
    268 O2    s    0.208244 *  0.470276 *  0.530570 *  -2.87073    1.000000    
    269 O2    s    0.533878 *  0.730707 *  0.868311 *  -2.87073    1.000000    
    270 O2    s    0.256390 *  0.791781 *  0.200100 *  -2.87073    1.000000    
    271 O2    s    0.529993 *  0.791875 *  0.304876 *  -2.87073    1.000000    
    272 O3    s    0.249932 *  0.471888 *  0.973463 *  -3.33043    1.000000    
    273 O2    s    0.209158 *  0.744074 *  0.635117 *  -2.87073    1.000000    
    274 O3    s    0.477028 *  0.226151 *  0.806437 *  -3.33043    1.000000    
    275 O2    s    0.740979 *  0.532302 *  0.469645 *  -2.87073    1.000000    
    276 O2    s    0.795625 *  0.268191 *  0.135219 *  -2.87073    1.000000    
    277 O3    s    0.233041 *  0.314959 *  0.891020 *  -3.33043    1.000000    
    278 O2    s    0.667538 *  0.910250 *  0.234625 *  -2.87073    1.000000    
    279 O2    s    0.090843 *  0.760831 *  0.565118 *  -2.87073    1.000000    
    280 O2    s    0.758832 *  0.669864 *  0.399493 *  -2.87073    1.000000    
    281 O3    s    0.320491 *  0.092432 *  0.724771 *  -3.33043    1.000000    
    282 O2    s    0.920422 *  0.254741 *  0.067545 *  -2.87073    1.000000    
    283 O2    s    0.331133 *  0.241010 *  0.435657 *  -2.87073    1.000000    
    284 O3    s    0.905175 *  0.680615 *  0.111163 *  -3.33043    1.000000    
    285 O2    s    0.751034 *  0.087291 *  0.766706 *  -2.87073    1.000000    
    286 O2    s    0.669614 *  0.747624 *  0.936568 *  -2.87073    1.000000    
    287 O2    s    0.089354 *  0.331982 *  0.600739 *  -2.87073    1.000000    
    288 O2    s    0.239185 *  0.909894 *  0.269913 *  -2.87073    1.000000    
    289 O2    s    0.577667 *  0.545451 *  0.987962 *  -2.87073    1.000000    
    290 O2    s    0.439329 *  0.025671 *  0.322301 *  -2.87073    1.000000    
    291 O2    s    0.971277 *  0.412489 *  0.653213 *  -2.87073    1.000000    
    292 O2    s    0.414753 *  0.441465 *  0.487922 *  -2.87073    1.000000    
    293 O2    s    0.556718 *  0.972020 *  0.819763 *  -2.87073    1.000000    
    294 O2    s    0.022920 *  0.586183 *  0.156287 *  -2.87073    1.000000    
    295 O2    s    0.559228 *  0.586014 *  0.347317 *  -2.87073    1.000000    
    296 O2    s    0.028573 *  0.453638 *  0.015201 *  -2.87073    1.000000    
    297 O2    s    0.415328 *  0.977094 *  0.679508 *  -2.87073    1.000000    
    298 O2    s    0.449987 *  0.419085 *  0.846634 *  -2.87073    1.000000    
    299 O2    s    0.975049 *  0.560370 *  0.512879 *  -2.87073    1.000000    
    300 O2    s    0.586781 *  0.028126 *  0.182212 *  -2.87073    1.000000    
    301 O2    s    0.577380 *  0.157838 *  0.252036 *  -2.87073    1.000000    
    302 O2    s    0.842385 *  0.421973 *  0.583169 *  -2.87073    1.000000    
    303 O2    s    0.578843 *  0.416010 *  0.916830 *  -2.87073    1.000000    
    304 O2    s    0.417789 *  0.842738 *  0.749418 *  -2.87073    1.000000    
    305 O2    s    0.157693 *  0.586012 *  0.086620 *  -2.87073    1.000000    
    306 O2    s    0.422038 *  0.579570 *  0.417655 *  -2.87073    1.000000    
    307 F     s    0.450369 *  0.905645 *  0.252112 *  -1.56000    1.000000    
    308 F     s    0.094110 *  0.549368 *  0.583832 *  -1.56000    1.000000    
    309 F     s    0.408958 *  0.495256 *  0.923707 *  -1.56000    1.000000    
    310 F     s    0.498849 *  0.091904 *  0.756251 *  -1.56000    1.000000    
    311 F     s    0.907997 *  0.503890 *  0.080041 *  -1.56000    1.000000    
    312 F     s    0.547559 *  0.452583 *  0.418006 *  -1.56000    1.000000    
--------------------------------------------------------------------------------



********************************************************************************
*  General input information                                                   *
********************************************************************************

  Species output for all configurations : 

--------------------------------------------------------------------------------
  Species    Type    Atomic    Atomic    Charge       Radii (Angs)     Library
                     Number     Mass       (e)     Cova   Ionic  VDW   Symbol
--------------------------------------------------------------------------------
    Si       Core       14      28.09   4.000000   1.200  0.000  2.100          
    O1       Core        8      16.00   1.733957   0.730  0.000  1.360          
    O1       Shell       8       0.00  -3.733957   0.730  0.000  1.360          
    O2       Core        8      16.00   0.870733   0.730  0.000  1.360          
    O2       Shell       8       0.00  -2.870733   0.730  0.000  1.360          
    O3       Core        8      16.00   1.330431   0.730  0.000  1.360          
    O3       Shell       8       0.00  -3.330431   0.730  0.000  1.360          
    F        Core        9      19.00   0.560000   0.710  0.000  1.300          
    F        Shell       9       0.00  -1.560000   0.710  0.000  1.300          
    Ge       Core       32      72.61   4.000000   1.170  0.000  1.750          
--------------------------------------------------------------------------------


  Lattice summation method               =    Ewald          (3-D)
                                         =    Parry          (2-D)
                                         =    Saunders et al (1-D)
  Accuracy factor for lattice sums       =   12.000


  Time limit = Infinity

  Maximum range for interatomic potentials =        16.000000 Angstroms

  Taper potentials to zero over   1.0000 Angstroms using polynomial

  General interatomic potentials :

--------------------------------------------------------------------------------
Atom  Types   Potential         A         B         C         D     Cutoffs(Ang)
  1     2                                                            Min    Max 
--------------------------------------------------------------------------------
Si   c O1   s Buckingham    0.132E+04 0.318      10.1      0.00     0.000 16.000
Si   c O2   s Buckingham    0.132E+04 0.318      10.1      0.00     0.000 16.000
Si   c O3   s Buckingham    0.132E+04 0.318      10.1      0.00     0.000 16.000
Ge   c O1   s Buckingham    0.150E+04 0.326      16.8      0.00     0.000 16.000
Ge   c O2   s Buckingham    0.150E+04 0.326      16.8      0.00     0.000 16.000
Ge   c O3   s Buckingham    0.150E+04 0.326      16.8      0.00     0.000 16.000
O1   s O1   s Buckingham    0.228E+05 0.149      10.9      0.00     0.000 16.000
O1   s O2   s Buckingham    0.228E+05 0.149      10.9      0.00     0.000 16.000
O1   s O3   s Buckingham    0.228E+05 0.149      10.9      0.00     0.000 16.000
O2   s O2   s Buckingham    0.228E+05 0.149      10.9      0.00     0.000 16.000
O2   s O3   s Buckingham    0.228E+05 0.149      10.9      0.00     0.000 16.000
O3   s O3   s Buckingham    0.228E+05 0.149      10.9      0.00     0.000 16.000
Si   c F    s Buckingham     977.     0.282      0.00      0.00     0.000 16.000
Ge   c F    s Buckingham     681.     0.320      0.00      0.00     0.000 16.000
F    s F    s Buckingham     540.     0.262      0.00      0.00     0.000 16.000
O1   s F    s Buckingham    0.168E+04 0.268      0.00      0.00     0.000 16.000
O2   s F    s Buckingham    0.168E+04 0.268      0.00      0.00     0.000 16.000
O3   s F    s Buckingham    0.168E+04 0.268      0.00      0.00     0.000 16.000
O2   c O2   s Spring (c-s)   76.0      0.00      0.00      0.00     0.000  0.800
O3   c O3   s Spring (c-s)   128.      0.00      0.00      0.00     0.000  0.800
O1   c O1   s Spring (c-s)   180.      0.00      0.00      0.00     0.000  0.800
F    c F    s Spring (c-s)   33.5      0.00      0.00      0.00     0.000  0.800
--------------------------------------------------------------------------------

  General Three-body potentials :

  Harmonic form:

--------------------------------------------------------------------------------
Atom    Atom    Atom           Force Constants            Theta     Cutoffs  
  1       2       3     (eVrad**-2/eVrad**-3/eVrad**-4)   (deg)  1-2  1-3  2-3
--------------------------------------------------------------------------------
Si    c O1    s O1    s  1.261        0.0000    0.0000   109.470 0.00 0.00 0.00
                                                                 1.90 1.90 3.50
Si    c O1    s O2    s  1.261        0.0000    0.0000   109.470 0.00 0.00 0.00
                                                                 1.90 1.90 3.50
Si    c O2    s O2    s  1.261        0.0000    0.0000   109.470 0.00 0.00 0.00
                                                                 1.90 1.90 3.50
--------------------------------------------------------------------------------

********************************************************************************
*  Output for configuration   1                                                *
********************************************************************************


  Components of energy : 

--------------------------------------------------------------------------------
  Interatomic potentials     =        2064.98985941 eV
  Three-body potentials      =           0.48795936 eV
  Monopole - monopole (real) =       -6613.18816410 eV
  Monopole - monopole (recip)=       -3172.44419684 eV
  Monopole - monopole (total)=       -9785.63236094 eV
  Neutralising energy        =          -6.46227071 eV
--------------------------------------------------------------------------------
  Total lattice energy       =       -7726.61681287 eV
--------------------------------------------------------------------------------
  Total lattice energy       =         -745500.4103 kJ/(mole unit cells)
--------------------------------------------------------------------------------


  Number of variables =      939

  Maximum number of calculations  =          1000
  Maximum Hessian update interval =            10
  Maximum step size               =   1.000000000
  Maximum parameter tolerance     =   0.000010000
  Maximum function  tolerance     =   0.000010000
  Maximum gradient  tolerance     =   0.001000000
  Maximum gradient  component     =   0.010000000

  Symmetry not applied to optimisation

  Cell parameters to be optimised using strains

  Newton-Raphson optimiser to be used

  BFGS hessian update to be used

  Dumpfile to be written after every cycle

  Start of bulk optimisation :

  Cycle:      0 Energy:     -7726.616813  Gnorm:      0.010140  CPU:    1.065
  ** Hessian calculated **
  Cycle:      1 Energy:     -7726.617017  Gnorm:      0.001884  CPU:    2.641
  Cycle:      2 Energy:     -7726.617043  Gnorm:      0.001258  CPU:    4.024
  Cycle:      3 Energy:     -7726.617113  Gnorm:      0.003780  CPU:    5.738
  Cycle:      4 Energy:     -7726.617359  Gnorm:      0.004737  CPU:    7.782
  Cycle:      5 Energy:     -7726.617883  Gnorm:      0.004680  CPU:   10.399
  Cycle:      6 Energy:     -7726.618540  Gnorm:      0.004844  CPU:   12.444
  Cycle:      7 Energy:     -7726.619396  Gnorm:      0.005267  CPU:   14.489
  Cycle:      8 Energy:     -7726.620471  Gnorm:      0.005482  CPU:   16.533
  Cycle:      9 Energy:     -7726.621666  Gnorm:      0.006611  CPU:   18.578
  Cycle:     10 Energy:     -7726.622781  Gnorm:      0.007102  CPU:   20.292
  ** Hessian calculated **
  Cycle:     11 Energy:     -7726.623299  Gnorm:      0.006526  CPU:   22.531
  Cycle:     12 Energy:     -7726.624882  Gnorm:      0.010726  CPU:   24.245
  Cycle:     13 Energy:     -7726.625705  Gnorm:      0.006396  CPU:   25.628
  Cycle:     14 Energy:     -7726.625999  Gnorm:      0.003586  CPU:   27.180
  Cycle:     15 Energy:     -7726.626181  Gnorm:      0.004611  CPU:   28.563
  Cycle:     16 Energy:     -7726.626535  Gnorm:      0.005452  CPU:   29.946
  Cycle:     17 Energy:     -7726.626780  Gnorm:      0.003453  CPU:   31.329
  Cycle:     18 Energy:     -7726.626915  Gnorm:      0.003424  CPU:   32.712
  Cycle:     19 Energy:     -7726.627075  Gnorm:      0.004078  CPU:   34.095
  Cycle:     20 Energy:     -7726.627272  Gnorm:      0.003633  CPU:   35.478
  ** Hessian calculated **
  Cycle:     21 Energy:     -7726.628363  Gnorm:      0.003599  CPU:   39.041
  Cycle:     22 Energy:     -7726.630077  Gnorm:      0.003546  CPU:   41.416
  Cycle:     23 Energy:     -7726.632648  Gnorm:      0.003465  CPU:   43.792
  Cycle:     24 Energy:     -7726.635795  Gnorm:      0.003362  CPU:   45.837
  Cycle:     25 Energy:     -7726.640944  Gnorm:      0.003188  CPU:   48.213
  Cycle:     26 Energy:     -7726.647206  Gnorm:      0.002962  CPU:   50.259
  Cycle:     27 Energy:     -7726.656948  Gnorm:      0.002572  CPU:   52.635
  Cycle:     28 Energy:     -7726.667568  Gnorm:      0.002075  CPU:   54.680
  Cycle:     29 Energy:     -7726.678701  Gnorm:      0.001417  CPU:   56.726
  Cycle:     30 Energy:     -7726.685726  Gnorm:      0.000814  CPU:   58.441
  ** Hessian calculated **
  Cycle:     31 Energy:     -7726.687001  Gnorm:      0.000102  CPU:   61.012


  **** Optimisation achieved ****


  Final energy =   -7726.68700101 eV
  Final Gnorm  =       0.00000117

  Components of energy : 

--------------------------------------------------------------------------------
  Interatomic potentials     =        2064.83762403 eV
  Three-body potentials      =           0.49958359 eV
  Monopole - monopole (real) =       -6614.21034661 eV
  Monopole - monopole (recip)=       -3171.35381390 eV
  Monopole - monopole (total)=       -9785.56416051 eV
  Neutralising energy        =          -6.46004812 eV
--------------------------------------------------------------------------------
  Total lattice energy       =       -7726.68700101 eV
--------------------------------------------------------------------------------
  Total lattice energy       =         -745507.1824 kJ/(mole unit cells)
--------------------------------------------------------------------------------

  Final fractional coordinates of atoms :

--------------------------------------------------------------------------------
   No.  Atomic        x           y          z          Radius
        Label       (Frac)      (Frac)     (Frac)       (Angs) 
--------------------------------------------------------------------------------
     1  Si    c     0.699600    0.375700    0.033890    0.000000
     2  Si    c     0.604595    0.321561    0.368490    0.000000
     3  Si    c     0.648534    0.280447    0.699999    0.000000
     4  Si    c     0.276625    0.612398    0.534750    0.000000
     5  Si    c     0.362974    0.651154    0.869943    0.000000
     6  Si    c     0.312870    0.704243    0.204664    0.000000
     7  Si    c     0.364522    0.702902    0.304758    0.000000
     8  Si    c     0.313718    0.603901    0.972521    0.000000
     9  Si    c     0.269862    0.660623    0.635017    0.000000
    10  Si    c     0.600895    0.283481    0.802461    0.000000
    11  Si    c     0.656292    0.370546    0.468793    0.000000
    12  Si    c     0.694357    0.324579    0.136270    0.000000
    13  Si    c     0.517343    0.387888    0.969932    0.000000
    14  Si    c     0.569405    0.114372    0.303397    0.000000
    15  Si    c     0.861786    0.452497    0.634299    0.000000
    16  Si    c     0.451383    0.576629    0.470565    0.000000
    17  Si    c     0.388104    0.859806    0.804583    0.000000
    18  Si    c     0.107076    0.534755    0.139468    0.000000
    19  Si    c     0.401465    0.529038    0.369393    0.000000
    20  Si    c     0.119220    0.596243    0.036576    0.000000
    21  Si    c     0.439025    0.865468    0.701051    0.000000
    22  Si    c     0.573410    0.453699    0.867378    0.000000
    23  Si    c     0.864454    0.405218    0.533154    0.000000
    24  Si    c     0.519734    0.112404    0.202238    0.000000
    25  Si    c     0.286348    0.371797    0.849993    0.000000
    26  Si    c     0.593068    0.904657    0.188901    0.000000
    27  Si    c     0.075716    0.688752    0.519473    0.000000
    28  Si    c     0.682562    0.601842    0.354256    0.000000
    29  Si    c     0.366497    0.078255    0.683994    0.000000
    30  Si    c     0.911839    0.308141    0.019918    0.000000
    31  Si    c     0.378412    0.294138    0.484354    0.000000
    32  Si    c     0.894066    0.606192    0.154907    0.000000
    33  Si    c     0.674406    0.074808    0.817354    0.000000
    34  Si    c     0.594624    0.674789    0.986737    0.000000
    35  Si    c     0.068314    0.379314    0.649198    0.000000
    36  Si    c     0.287343    0.903799    0.318128    0.000000
    37  Ge    c     0.254901    0.335837    0.949967    0.000000
    38  Si    c     0.647082    0.913136    0.289399    0.000000
    39  Si    c     0.062998    0.733702    0.619781    0.000000
    40  Si    c     0.729632    0.653276    0.454610    0.000000
    41  Ge    c     0.331280    0.069108    0.783968    0.000000
    42  Si    c     0.908798    0.252368    0.121776    0.000000
    43  Si    c     0.323468    0.248805    0.384160    0.000000
    44  Ge    c     0.906560    0.646758    0.055255    0.000000
    45  Si    c     0.721944    0.066979    0.715403    0.000000
    46  Si    c     0.652127    0.733520    0.884963    0.000000
    47  Si    c     0.065495    0.328405    0.548699    0.000000
    48  Si    c     0.238880    0.912053    0.217799    0.000000
    49  Si    c     0.965618    0.116120    0.968770    0.000000
    50  Si    c     0.864761    0.852830    0.303494    0.000000
    51  Si    c     0.123419    0.012678    0.633965    0.000000
    52  Si    c     0.009566    0.870510    0.469011    0.000000
    53  Si    c     0.105810    0.128919    0.799996    0.000000
    54  Si    c     0.838083    0.967004    0.135854    0.000000
    55  Si    c     0.105372    0.969035    0.368439    0.000000
    56  Si    c     0.841627    0.868302    0.036007    0.000000
    57  Si    c     0.003649    0.131288    0.701037    0.000000
    58  Si    c     0.864345    0.020281    0.868661    0.000000
    59  Si    c     0.127319    0.111336    0.533973    0.000000
    60  Si    c     0.959516    0.850404    0.203532    0.000000
    61  O2    c     0.901523    0.990019    0.001465    0.000000
    62  O2    c     0.985922    0.930404    0.335802    0.000000
    63  O2    c     0.046192    0.054070    0.667803    0.000000
    64  O2    c     0.050569    0.991876    0.500960    0.000000
    65  O2    c     0.984117    0.065243    0.835019    0.000000
    66  O2    c     0.917505    0.924583    0.168251    0.000000
    67  O2    c     0.324846    0.578705    0.337694    0.000000
    68  O2    c     0.390757    0.741887    0.668473    0.000000
    69  O2    c     0.249202    0.663778    0.005633    0.000000
    70  O2    c     0.653306    0.410592    0.834256    0.000000
    71  O2    c     0.570448    0.237084    0.168614    0.000000
    72  O2    c     0.740087    0.329986    0.500830    0.000000
    73  O2    c     0.576651    0.317982    0.000549    0.000000
    74  O2    c     0.735354    0.402653    0.666830    0.000000
    75  O2    c     0.644656    0.239792    0.335422    0.000000
    76  O2    c     0.402230    0.652645    0.502873    0.000000
    77  O2    c     0.229099    0.580635    0.172590    0.000000
    78  O2    c     0.323198    0.732107    0.836630    0.000000
    79  O3    c     0.115589    0.191786    0.971859    0.000000
    80  O2    c     0.773213    0.914845    0.309852    0.000000
    81  O2    c     0.058832    0.857310    0.639785    0.000000
    82  O2    c     0.855305    0.778415    0.475103    0.000000
    83  O3    c     0.185400    0.058778    0.804862    0.000000
    84  O2    c     0.902796    0.123005    0.141548    0.000000
    85  O2    c     0.197129    0.124216    0.363789    0.000000
    86  O3    c     0.914496    0.791256    0.033345    0.000000
    87  O2    c     0.848230    0.068785    0.695241    0.000000
    88  O2    c     0.774688    0.863521    0.864686    0.000000
    89  O2    c     0.065853    0.203570    0.527948    0.000000
    90  O2    c     0.114617    0.914791    0.197903    0.000000
    91  O2    c     0.919374    0.871892    0.252951    0.000000
    92  O2    c     0.106091    0.053790    0.584193    0.000000
    93  O2    c     0.910102    0.063719    0.918881    0.000000
    94  O2    c     0.040190    0.116276    0.751243    0.000000
    95  O2    c     0.844656    0.928095    0.085246    0.000000
    96  O2    c     0.049188    0.924347    0.418496    0.000000
    97  O2    c     0.912539    0.214346    0.981644    0.000000
    98  O2    c     0.781595    0.699776    0.315593    0.000000
    99  O2    c     0.276681    0.078934    0.642779    0.000000
   100  O2    c     0.079547    0.788934    0.481161    0.000000
   101  O2    c     0.201457    0.284229    0.807858    0.000000
   102  O2    c     0.687631    0.900509    0.150504    0.000000
   103  O2    c     0.187864    0.900491    0.356328    0.000000
   104  O2    c     0.688830    0.768394    0.025167    0.000000
   105  O2    c     0.070581    0.283334    0.687840    0.000000
   106  O2    c     0.773695    0.079696    0.854710    0.000000
   107  O2    c     0.280404    0.194314    0.522939    0.000000
   108  O2    c     0.893024    0.695899    0.196291    0.000000
   109  O2    c     0.309649    0.645399    0.254913    0.000000
   110  O2    c     0.330871    0.665733    0.585113    0.000000
   111  O2    c     0.310304    0.651837    0.920478    0.000000
   112  O2    c     0.649962    0.333681    0.750393    0.000000
   113  O2    c     0.644540    0.327413    0.085768    0.000000
   114  O2    c     0.658558    0.316896    0.418549    0.000000
   115  O3    c     0.365512    0.295958    0.974561    0.000000
   116  O2    c     0.657070    0.046221    0.306656    0.000000
   117  O2    c     0.930236    0.608837    0.638130    0.000000
   118  O2    c     0.607872    0.663573    0.473459    0.000000
   119  O3    c     0.297684    0.920287    0.810026    0.000000
   120  O2    c     0.035670    0.377370    0.141392    0.000000
   121  O2    c     0.313898    0.372242    0.366334    0.000000
   122  O3    c     0.059602    0.687764    0.031898    0.000000
   123  O2    c     0.595755    0.936148    0.698780    0.000000
   124  O2    c     0.659599    0.610908    0.866280    0.000000
   125  O2    c     0.933392    0.318155    0.530539    0.000000
   126  O2    c     0.363734    0.044324    0.198896    0.000000
   127  O2    c     0.775862    0.304493    0.016157    0.000000
   128  O2    c     0.680969    0.467086    0.346686    0.000000
   129  O2    c     0.505326    0.212173    0.678652    0.000000
   130  O2    c     0.209997    0.689013    0.512551    0.000000
   131  O2    c     0.288914    0.509454    0.847436    0.000000
   132  O2    c     0.456616    0.772011    0.182148    0.000000
   133  O2    c     0.288010    0.769972    0.326408    0.000000
   134  O2    c     0.460569    0.674646    0.991077    0.000000
   135  O2    c     0.200263    0.515590    0.657052    0.000000
   136  O2    c     0.671863    0.207866    0.821930    0.000000
   137  O2    c     0.512301    0.294202    0.491513    0.000000
   138  O2    c     0.761470    0.466100    0.159414    0.000000
   139  O3    c     0.768693    0.529467    0.026346    0.000000
   140  O2    c     0.448514    0.247933    0.364167    0.000000
   141  O2    c     0.712241    0.189320    0.697768    0.000000
   142  O2    c     0.193070    0.456059    0.529610    0.000000
   143  O2    c     0.519171    0.721644    0.868248    0.000000
   144  O2    c     0.237838    0.785059    0.199133    0.000000
   145  O2    c     0.520648    0.786280    0.309626    0.000000
   146  O3    c     0.228779    0.450149    0.979225    0.000000
   147  O2    c     0.189309    0.735969    0.639649    0.000000
   148  O3    c     0.447970    0.212033    0.810756    0.000000
   149  O2    c     0.730841    0.527026    0.473804    0.000000
   150  O2    c     0.783813    0.258993    0.137679    0.000000
   151  O3    c     0.207702    0.287866    0.893252    0.000000
   152  O2    c     0.665452    0.909038    0.235410    0.000000
   153  O2    c     0.068307    0.756206    0.565683    0.000000
   154  O2    c     0.751397    0.674489    0.400515    0.000000
   155  O3    c     0.285104    0.073855    0.727225    0.000000
   156  O2    c     0.919405    0.246467    0.067957    0.000000
   157  O2    c     0.304292    0.225545    0.438275    0.000000
   158  O3    c     0.898117    0.689926    0.112110    0.000000
   159  O2    c     0.735010    0.068199    0.769312    0.000000
   160  O2    c     0.664931    0.740062    0.938870    0.000000
   161  O2    c     0.066177    0.307718    0.602780    0.000000
   162  O2    c     0.218614    0.909311    0.271948    0.000000
   163  O2    c     0.568358    0.529726    0.992410    0.000000
   164  O2    c     0.427099    0.029744    0.326606    0.000000
   165  O2    c     0.940561    0.389823    0.657545    0.000000
   166  O2    c     0.392574    0.433592    0.493550    0.000000
   167  O2    c     0.532995    0.949929    0.824896    0.000000
   168  O2    c     0.017905    0.587019    0.161164    0.000000
   169  O2    c     0.543342    0.587970    0.346000    0.000000
   170  O2    c     0.028683    0.454659    0.013904    0.000000
   171  O2    c     0.386809    0.954450    0.678869    0.000000
   172  O2    c     0.433962    0.402239    0.844748    0.000000
   173  O2    c     0.950885    0.548483    0.510461    0.000000
   174  O2    c     0.581258    0.031739    0.179946    0.000000
   175  O2    c     0.571345    0.168093    0.252467    0.000000
   176  O2    c     0.808862    0.402009    0.583811    0.000000
   177  O2    c     0.569390    0.397532    0.917742    0.000000
   178  O2    c     0.388808    0.814757    0.752273    0.000000
   179  O2    c     0.160613    0.588359    0.088853    0.000000
   180  O2    c     0.400200    0.579750    0.420096    0.000000
   181  F     c     0.439754    0.905815    0.253498    0.000000
   182  F     c     0.070211    0.534286    0.585165    0.000000
   183  F     c     0.403344    0.487380    0.924151    0.000000
   184  F     c     0.482274    0.072493    0.756788    0.000000
   185  F     c     0.903989    0.495596    0.082487    0.000000
   186  F     c     0.529761    0.447878    0.419726    0.000000
   187  O2    s     0.901915    0.990405    0.001693    0.000000
   188  O2    s     0.985762    0.926032    0.335850    0.000000
   189  O2    s     0.050048    0.058059    0.667726    0.000000
   190  O2    s     0.054631    0.991671    0.501084    0.000000
   191  O2    s     0.983094    0.066751    0.835199    0.000000
   192  O2    s     0.913386    0.921056    0.168596    0.000000
   193  O2    s     0.336881    0.586401    0.337564    0.000000
   194  O2    s     0.383466    0.746527    0.668447    0.000000
   195  O2    s     0.242252    0.650634    0.005461    0.000000
   196  O2    s     0.640031    0.402313    0.834422    0.000000
   197  O2    s     0.578282    0.233389    0.168674    0.000000
   198  O2    s     0.744371    0.341914    0.500884    0.000000
   199  O2    s     0.583153    0.331152    0.000815    0.000000
   200  O2    s     0.739088    0.394749    0.667033    0.000000
   201  O2    s     0.632763    0.235298    0.335544    0.000000
   202  O2    s     0.394285    0.640703    0.502868    0.000000
   203  O2    s     0.224994    0.588562    0.172454    0.000000
   204  O2    s     0.334471    0.737083    0.836793    0.000000
   205  O3    s     0.107802    0.192725    0.970091    0.000000
   206  O2    s     0.769861    0.908114    0.307095    0.000000
   207  O2    s     0.066078    0.860810    0.637114    0.000000
   208  O2    s     0.858741    0.775241    0.472343    0.000000
   209  O3    s     0.186266    0.067234    0.802965    0.000000
   210  O2    s     0.896868    0.120939    0.138890    0.000000
   211  O2    s     0.200484    0.120584    0.366390    0.000000
   212  O3    s     0.905793    0.790284    0.035074    0.000000
   213  O2    s     0.850415    0.074882    0.697948    0.000000
   214  O2    s     0.770613    0.865487    0.867250    0.000000
   215  O2    s     0.072341    0.206791    0.530723    0.000000
   216  O2    s     0.111368    0.907792    0.200537    0.000000
   217  O2    s     0.917692    0.867345    0.253149    0.000000
   218  O2    s     0.110462    0.055667    0.584126    0.000000
   219  O2    s     0.910566    0.064116    0.918252    0.000000
   220  O2    s     0.042771    0.119320    0.750482    0.000000
   221  O2    s     0.843593    0.926437    0.086036    0.000000
   222  O2    s     0.051062    0.923284    0.418572    0.000000
   223  O2    s     0.917604    0.215013    0.984552    0.000000
   224  O2    s     0.780248    0.705950    0.318275    0.000000
   225  O2    s     0.269570    0.071932    0.645904    0.000000
   226  O2    s     0.071758    0.787270    0.483814    0.000000
   227  O2    s     0.200652    0.277877    0.811284    0.000000
   228  O2    s     0.693680    0.907996    0.152980    0.000000
   229  O2    s     0.189289    0.908153    0.353690    0.000000
   230  O2    s     0.693509    0.768020    0.022102    0.000000
   231  O2    s     0.063218    0.277135    0.685230    0.000000
   232  O2    s     0.772307    0.073028    0.852116    0.000000
   233  O2    s     0.274167    0.195689    0.520182    0.000000
   234  O2    s     0.900063    0.703257    0.193054    0.000000
   235  O2    s     0.315607    0.657333    0.254871    0.000000
   236  O2    s     0.319102    0.659788    0.585095    0.000000
   237  O2    s     0.316128    0.647054    0.920234    0.000000
   238  O2    s     0.644916    0.323158    0.750293    0.000000
   239  O2    s     0.655168    0.331881    0.086064    0.000000
   240  O2    s     0.652823    0.322854    0.418593    0.000000
   241  O3    s     0.373483    0.308371    0.972314    0.000000
   242  O2    s     0.646981    0.039314    0.304500    0.000000
   243  O2    s     0.937074    0.605654    0.635788    0.000000
   244  O2    s     0.604443    0.653506    0.471178    0.000000
   245  O3    s     0.309489    0.924574    0.807592    0.000000
   246  O2    s     0.029596    0.380266    0.139135    0.000000
   247  O2    s     0.323997    0.375495    0.368543    0.000000
   248  O3    s     0.054890    0.675320    0.034078    0.000000
   249  O2    s     0.593099    0.942773    0.700773    0.000000
   250  O2    s     0.649944    0.607720    0.868371    0.000000
   251  O2    s     0.940097    0.328216    0.532723    0.000000
   252  O2    s     0.366870    0.037549    0.201234    0.000000
   253  O2    s     0.782476    0.312367    0.018453    0.000000
   254  O2    s     0.673230    0.466270    0.349778    0.000000
   255  O2    s     0.506179    0.205690    0.681466    0.000000
   256  O2    s     0.202755    0.681091    0.515599    0.000000
   257  O2    s     0.296484    0.510454    0.850118    0.000000
   258  O2    s     0.456101    0.779013    0.185244    0.000000
   259  O2    s     0.295846    0.777153    0.323267    0.000000
   260  O2    s     0.459838    0.667287    0.988651    0.000000
   261  O2    s     0.193505    0.516251    0.653886    0.000000
   262  O2    s     0.664819    0.201309    0.819409    0.000000
   263  O2    s     0.513034    0.302047    0.488393    0.000000
   264  O2    s     0.768099    0.465787    0.156521    0.000000
   265  O3    s     0.772058    0.522755    0.029196    0.000000
   266  O2    s     0.451350    0.255852    0.366763    0.000000
   267  O2    s     0.706488    0.185470    0.699921    0.000000
   268  O2    s     0.187886    0.458606    0.532196    0.000000
   269  O2    s     0.517220    0.715495    0.870229    0.000000
   270  O2    s     0.245809    0.790461    0.201685    0.000000
   271  O2    s     0.518063    0.791427    0.306957    0.000000
   272  O3    s     0.239306    0.457490    0.976485    0.000000
   273  O2    s     0.184050    0.727807    0.637065    0.000000
   274  O3    s     0.454716    0.208555    0.807995    0.000000
   275  O2    s     0.722803    0.524275    0.471231    0.000000
   276  O2    s     0.788056    0.265276    0.135808    0.000000
   277  O3    s     0.219032    0.299792    0.892815    0.000000
   278  O2    s     0.655898    0.909001    0.236259    0.000000
   279  O2    s     0.068524    0.746738    0.566567    0.000000
   280  O2    s     0.741885    0.664641    0.401393    0.000000
   281  O3    s     0.296772    0.074003    0.726729    0.000000
   282  O2    s     0.917478    0.253569    0.068876    0.000000
   283  O2    s     0.314072    0.235177    0.437388    0.000000
   284  O3    s     0.898263    0.678327    0.112517    0.000000
   285  O2    s     0.727123    0.068762    0.768502    0.000000
   286  O2    s     0.656221    0.732538    0.937922    0.000000
   287  O2    s     0.066333    0.317420    0.601943    0.000000
   288  O2    s     0.227989    0.909026    0.271074    0.000000
   289  O2    s     0.565881    0.531419    0.989524    0.000000
   290  O2    s     0.426912    0.024846    0.323262    0.000000
   291  O2    s     0.946095    0.395313    0.654244    0.000000
   292  O2    s     0.397370    0.433561    0.490158    0.000000
   293  O2    s     0.533981    0.954712    0.822039    0.000000
   294  O2    s     0.014318    0.583354    0.158198    0.000000
   295  O2    s     0.543518    0.583138    0.349337    0.000000
   296  O2    s     0.024677    0.452760    0.016851    0.000000
   297  O2    s     0.390369    0.958035    0.681770    0.000000
   298  O2    s     0.433494    0.404772    0.847736    0.000000
   299  O2    s     0.955462    0.548594    0.513817    0.000000
   300  O2    s     0.575997    0.026406    0.183239    0.000000
   301  O2    s     0.565818    0.156789    0.252554    0.000000
   302  O2    s     0.820099    0.407592    0.583845    0.000000
   303  O2    s     0.564655    0.402513    0.917537    0.000000
   304  O2    s     0.394008    0.824518    0.751987    0.000000
   305  O2    s     0.150843    0.583453    0.089108    0.000000
   306  O2    s     0.405661    0.574166    0.420090    0.000000
   307  F     s     0.439534    0.905492    0.253482    0.000000
   308  F     s     0.070447    0.534475    0.585263    0.000000
   309  F     s     0.394554    0.478708    0.925616    0.000000
   310  F     s     0.474244    0.072526    0.758206    0.000000
   311  F     s     0.903874    0.503754    0.081131    0.000000
   312  F     s     0.529906    0.447697    0.419771    0.000000
--------------------------------------------------------------------------------

  Final Cartesian lattice vectors (Angstroms) :

       11.990333   -0.001797    0.000897
       -6.037103   10.311837    0.017039
        0.195242    0.415935   29.578761


  Final cell parameters and derivatives :

--------------------------------------------------------------------------------
       a           11.990333 Angstrom     dE/de1(xx)    -0.000124 eV/strain
       b           11.949095 Angstrom     dE/de2(yy)    -0.000091 eV/strain
       c           29.582330 Angstrom     dE/de3(zz)    -0.000111 eV/strain
       alpha       89.414141 Degrees      dE/de4(yz)    -0.000050 eV/strain
       beta        89.617685 Degrees      dE/de5(xz)    -0.000028 eV/strain
       gamma      120.355540 Degrees      dE/de6(xy)    -0.000007 eV/strain
--------------------------------------------------------------------------------

  Primitive cell volume =          3656.777842 Angs**3

  Density of cell =      1.749653 g/cm**3

  Non-primitive cell volume =          3656.777842 Angs**3


  Final internal derivatives :

--------------------------------------------------------------------------------
   No.  Atomic          a             b             c           Radius
        Label          (eV)          (eV)          (eV)        (eV/Angs)
--------------------------------------------------------------------------------
      1 Si    c       0.000000      0.000000      0.000000      0.000000
      2 Si    c       0.000020     -0.000012     -0.000027      0.000000
      3 Si    c       0.000005      0.000004     -0.000013      0.000000
      4 Si    c       0.000032     -0.000002      0.000003      0.000000
      5 Si    c      -0.000031      0.000043     -0.000039      0.000000
      6 Si    c      -0.000010     -0.000018     -0.000052      0.000000
      7 Si    c       0.000003     -0.000021      0.000042      0.000000
      8 Si    c       0.000016      0.000077      0.000014      0.000000
      9 Si    c       0.000002     -0.000005     -0.000032      0.000000
     10 Si    c      -0.000002      0.000039      0.000048      0.000000
     11 Si    c       0.000027     -0.000020      0.000034      0.000000
     12 Si    c      -0.000022      0.000006     -0.000069      0.000000
     13 Si    c       0.000312     -0.000070      0.000243      0.000000
     14 Si    c      -0.000003      0.000016      0.000014      0.000000
     15 Si    c      -0.000011     -0.000004      0.000022      0.000000
     16 Si    c      -0.000022      0.000020      0.000038      0.000000
     17 Si    c       0.000011     -0.000033      0.000055      0.000000
     18 Si    c       0.000015     -0.000001      0.000024      0.000000
     19 Si    c      -0.000017      0.000015     -0.000035      0.000000
     20 Si    c       0.000058     -0.000072     -0.000037      0.000000
     21 Si    c       0.000004     -0.000008     -0.000022      0.000000
     22 Si    c       0.000052     -0.000040     -0.000050      0.000000
     23 Si    c      -0.000014     -0.000001     -0.000007      0.000000
     24 Si    c       0.000011      0.000024     -0.000042      0.000000
     25 Si    c      -0.000011     -0.000005      0.000160      0.000000
     26 Si    c       0.000008     -0.000003     -0.000016      0.000000
     27 Si    c      -0.000010      0.000018      0.000004      0.000000
     28 Si    c       0.000008      0.000003      0.000007      0.000000
     29 Si    c       0.000009     -0.000003      0.000003      0.000000
     30 Si    c      -0.000013     -0.000011      0.000005      0.000000
     31 Si    c      -0.000007     -0.000007     -0.000004      0.000000
     32 Si    c      -0.000011      0.000010     -0.000044      0.000000
     33 Si    c       0.000015     -0.000007      0.000014      0.000000
     34 Si    c       0.000017      0.000002     -0.000041      0.000000
     35 Si    c       0.000003     -0.000005      0.000001      0.000000
     36 Si    c      -0.000010      0.000002     -0.000002      0.000000
     37 Ge    c      -0.000077     -0.000070     -0.000043      0.000000
     38 Si    c       0.000010     -0.000001     -0.000001      0.000000
     39 Si    c      -0.000003      0.000003     -0.000007      0.000000
     40 Si    c       0.000006      0.000011     -0.000008      0.000000
     41 Ge    c      -0.000012     -0.000006     -0.000032      0.000000
     42 Si    c       0.000016     -0.000028      0.000017      0.000000
     43 Si    c      -0.000014      0.000003      0.000010      0.000000
     44 Ge    c      -0.000032      0.000031      0.000020      0.000000
     45 Si    c       0.000003     -0.000002     -0.000025      0.000000
     46 Si    c       0.000023      0.000008      0.000043      0.000000
     47 Si    c       0.000002     -0.000013      0.000020      0.000000
     48 Si    c      -0.000014      0.000011      0.000006      0.000000
     49 Si    c       0.000078     -0.000013     -0.000213      0.000000
     50 Si    c      -0.000008     -0.000007      0.000018      0.000000
     51 Si    c       0.000000     -0.000003     -0.000057      0.000000
     52 Si    c      -0.000007     -0.000002     -0.000014      0.000000
     53 Si    c       0.000007     -0.000003      0.000027      0.000000
     54 Si    c      -0.000023      0.000025     -0.000015      0.000000
     55 Si    c       0.000008     -0.000009      0.000055      0.000000
     56 Si    c       0.000102     -0.000152      0.000062      0.000000
     57 Si    c       0.000002      0.000008      0.000012      0.000000
     58 Si    c      -0.000031     -0.000004      0.000051      0.000000
     59 Si    c       0.000000      0.000001     -0.000009      0.000000
     60 Si    c       0.000000     -0.000002      0.000001      0.000000
     61 O2    c       0.000035     -0.000009     -0.000065      0.000000
     62 O2    c      -0.000002     -0.000001     -0.000009      0.000000
     63 O2    c      -0.000004      0.000002      0.000003      0.000000
     64 O2    c       0.000001      0.000005      0.000008      0.000000
     65 O2    c       0.000015     -0.000007     -0.000024      0.000000
     66 O2    c       0.000014     -0.000017      0.000036      0.000000
     67 O2    c       0.000016     -0.000005      0.000000      0.000000
     68 O2    c       0.000003      0.000015      0.000034      0.000000
     69 O2    c      -0.000064      0.000009     -0.000007      0.000000
     70 O2    c      -0.000024     -0.000005      0.000005      0.000000
     71 O2    c       0.000029     -0.000015      0.000000      0.000000
     72 O2    c      -0.000019      0.000018     -0.000024      0.000000
     73 O2    c      -0.000161      0.000160      0.000046      0.000000
     74 O2    c       0.000020     -0.000003     -0.000023      0.000000
     75 O2    c      -0.000007     -0.000010     -0.000008      0.000000
     76 O2    c      -0.000009     -0.000010      0.000004      0.000000
     77 O2    c      -0.000006      0.000022      0.000024      0.000000
     78 O2    c       0.000028     -0.000017      0.000012      0.000000
     79 O3    c      -0.000122      0.000123     -0.000108      0.000000
     80 O2    c       0.000008     -0.000010     -0.000011      0.000000
     81 O2    c       0.000000      0.000011      0.000007      0.000000
     82 O2    c       0.000011     -0.000001     -0.000019      0.000000
     83 O3    c      -0.000027      0.000022     -0.000029      0.000000
     84 O2    c      -0.000003     -0.000015     -0.000016      0.000000
     85 O2    c       0.000003     -0.000017     -0.000005      0.000000
     86 O3    c      -0.000257      0.000141      0.000022      0.000000
     87 O2    c       0.000005      0.000002     -0.000010      0.000000
     88 O2    c       0.000004      0.000020      0.000026      0.000000
     89 O2    c       0.000006     -0.000008      0.000007      0.000000
     90 O2    c      -0.000004     -0.000004      0.000017      0.000000
     91 O2    c       0.000008      0.000001     -0.000048      0.000000
     92 O2    c       0.000003     -0.000018      0.000061      0.000000
     93 O2    c       0.000066      0.000014      0.000408      0.000000
     94 O2    c      -0.000019      0.000002     -0.000048      0.000000
     95 O2    c       0.000010     -0.000012     -0.000086      0.000000
     96 O2    c       0.000007      0.000019     -0.000088      0.000000
     97 O2    c      -0.000090     -0.000036      0.000017      0.000000
     98 O2    c       0.000005      0.000021     -0.000011      0.000000
     99 O2    c      -0.000007      0.000002     -0.000012      0.000000
    100 O2    c      -0.000005      0.000007      0.000007      0.000000
    101 O2    c      -0.000005     -0.000023     -0.000015      0.000000
    102 O2    c       0.000023     -0.000001     -0.000019      0.000000
    103 O2    c      -0.000026      0.000017      0.000012      0.000000
    104 O2    c       0.000023      0.000064      0.000028      0.000000
    105 O2    c      -0.000003     -0.000005     -0.000003      0.000000
    106 O2    c       0.000042     -0.000030      0.000018      0.000000
    107 O2    c      -0.000010     -0.000001     -0.000013      0.000000
    108 O2    c      -0.000004      0.000021      0.000001      0.000000
    109 O2    c      -0.000001     -0.000002     -0.000004      0.000000
    110 O2    c      -0.000005      0.000002     -0.000013      0.000000
    111 O2    c       0.000014     -0.000003      0.000036      0.000000
    112 O2    c       0.000003     -0.000003      0.000010      0.000000
    113 O2    c       0.000032     -0.000019      0.000087      0.000000
    114 O2    c      -0.000000     -0.000000      0.000000      0.000000
    115 O3    c       0.000023     -0.000019     -0.000003      0.000000
    116 O2    c      -0.000005      0.000007     -0.000002      0.000000
    117 O2    c       0.000001     -0.000003      0.000007      0.000000
    118 O2    c      -0.000005      0.000004     -0.000007      0.000000
    119 O3    c      -0.000006     -0.000002     -0.000021      0.000000
    120 O2    c       0.000011      0.000006     -0.000003      0.000000
    121 O2    c      -0.000002      0.000007      0.000000      0.000000
    122 O3    c       0.000044     -0.000045      0.000020      0.000000
    123 O2    c      -0.000002     -0.000001     -0.000012      0.000000
    124 O2    c       0.000001     -0.000001      0.000009      0.000000
    125 O2    c      -0.000008      0.000002     -0.000001      0.000000
    126 O2    c      -0.000007      0.000002      0.000004      0.000000
    127 O2    c      -0.000042      0.000022      0.000024      0.000000
    128 O2    c       0.000002     -0.000007      0.000004      0.000000
    129 O2    c      -0.000004     -0.000001     -0.000005      0.000000
    130 O2    c       0.000000      0.000002     -0.000003      0.000000
    131 O2    c       0.000003     -0.000019     -0.000002      0.000000
    132 O2    c       0.000002     -0.000002     -0.000006      0.000000
    133 O2    c      -0.000001     -0.000001     -0.000002      0.000000
    134 O2    c      -0.000006      0.000003      0.000011      0.000000
    135 O2    c      -0.000001      0.000004     -0.000002      0.000000
    136 O2    c       0.000003     -0.000002     -0.000004      0.000000
    137 O2    c       0.000001     -0.000003      0.000003      0.000000
    138 O2    c      -0.000000     -0.000000     -0.000016      0.000000
    139 O3    c      -0.000013      0.000016      0.000159      0.000000
    140 O2    c      -0.000000      0.000001     -0.000000      0.000000
    141 O2    c      -0.000005      0.000002     -0.000008      0.000000
    142 O2    c      -0.000000      0.000002     -0.000002      0.000000
    143 O2    c      -0.000007      0.000004     -0.000010      0.000000
    144 O2    c       0.000005     -0.000007     -0.000007      0.000000
    145 O2    c      -0.000001      0.000000     -0.000005      0.000000
    146 O3    c       0.000029     -0.000026     -0.000056      0.000000
    147 O2    c       0.000003      0.000000      0.000004      0.000000
    148 O3    c       0.000021      0.000001      0.000001      0.000000
    149 O2    c       0.000002     -0.000007     -0.000001      0.000000
    150 O2    c      -0.000008      0.000009      0.000013      0.000000
    151 O3    c       0.000058      0.000023      0.000101      0.000000
    152 O2    c      -0.000001      0.000002      0.000003      0.000000
    153 O2    c       0.000002     -0.000003     -0.000008      0.000000
    154 O2    c      -0.000005     -0.000003     -0.000006      0.000000
    155 O3    c       0.000001     -0.000001      0.000008      0.000000
    156 O2    c      -0.000019      0.000008     -0.000040      0.000000
    157 O2    c      -0.000001     -0.000000     -0.000008      0.000000
    158 O3    c      -0.000001     -0.000008     -0.000064      0.000000
    159 O2    c      -0.000000      0.000001      0.000030      0.000000
    160 O2    c      -0.000015     -0.000002      0.000031      0.000000
    161 O2    c      -0.000004      0.000004     -0.000011      0.000000
    162 O2    c       0.000003     -0.000001      0.000018      0.000000
    163 O2    c       0.000021     -0.000013      0.000055      0.000000
    164 O2    c       0.000001      0.000002     -0.000000      0.000000
    165 O2    c      -0.000007      0.000002      0.000007      0.000000
    166 O2    c      -0.000002      0.000005     -0.000006      0.000000
    167 O2    c       0.000001      0.000002     -0.000004      0.000000
    168 O2    c       0.000010     -0.000007      0.000009      0.000000
    169 O2    c      -0.000007      0.000001      0.000005      0.000000
    170 O2    c       0.000020     -0.000012     -0.000054      0.000000
    171 O2    c       0.000000     -0.000004     -0.000006      0.000000
    172 O2    c       0.000004     -0.000003     -0.000002      0.000000
    173 O2    c      -0.000000     -0.000002      0.000001      0.000000
    174 O2    c       0.000004     -0.000002     -0.000015      0.000000
    175 O2    c       0.000001     -0.000005      0.000014      0.000000
    176 O2    c       0.000006     -0.000003     -0.000008      0.000000
    177 O2    c       0.000013      0.000009     -0.000021      0.000000
    178 O2    c       0.000003      0.000001     -0.000010      0.000000
    179 O2    c       0.000002     -0.000007      0.000042      0.000000
    180 O2    c       0.000002     -0.000003     -0.000003      0.000000
    181 F     c       0.000000      0.000002     -0.000009      0.000000
    182 F     c      -0.000001      0.000000      0.000015      0.000000
    183 F     c       0.000005      0.000014     -0.000048      0.000000
    184 F     c      -0.000002     -0.000002     -0.000001      0.000000
    185 F     c      -0.000007      0.000005      0.000027      0.000000
    186 F     c       0.000001     -0.000001      0.000000      0.000000
    187 O2    s       0.000082     -0.000054      0.000047      0.000000
    188 O2    s       0.000004      0.000002      0.000020      0.000000
    189 O2    s       0.000007     -0.000003     -0.000010      0.000000
    190 O2    s      -0.000000     -0.000001      0.000009      0.000000
    191 O2    s       0.000009     -0.000000      0.000020      0.000000
    192 O2    s      -0.000008     -0.000002     -0.000018      0.000000
    193 O2    s      -0.000012      0.000006      0.000016      0.000000
    194 O2    s       0.000004     -0.000010      0.000012      0.000000
    195 O2    s       0.000033     -0.000001     -0.000064      0.000000
    196 O2    s       0.000001     -0.000004      0.000036      0.000000
    197 O2    s      -0.000011      0.000025     -0.000017      0.000000
    198 O2    s       0.000003     -0.000004      0.000011      0.000000
    199 O2    s      -0.000020     -0.000089     -0.000148      0.000000
    200 O2    s      -0.000016      0.000006     -0.000007      0.000000
    201 O2    s       0.000008      0.000006      0.000004      0.000000
    202 O2    s      -0.000005      0.000007     -0.000011      0.000000
    203 O2    s       0.000014     -0.000009     -0.000016      0.000000
    204 O2    s      -0.000015      0.000003      0.000003      0.000000
    205 O3    s      -0.000055      0.000042      0.000145      0.000000
    206 O2    s       0.000005     -0.000010      0.000022      0.000000
    207 O2    s       0.000004      0.000008      0.000001      0.000000
    208 O2    s       0.000005     -0.000001      0.000025      0.000000
    209 O3    s      -0.000005      0.000013      0.000043      0.000000
    210 O2    s       0.000003     -0.000008      0.000008      0.000000
    211 O2    s       0.000006     -0.000018     -0.000019      0.000000
    212 O3    s       0.000071     -0.000044      0.000006      0.000000
    213 O2    s       0.000001      0.000002      0.000000      0.000000
    214 O2    s      -0.000012      0.000010     -0.000053      0.000000
    215 O2    s       0.000005     -0.000003     -0.000004      0.000000
    216 O2    s      -0.000015      0.000003     -0.000030      0.000000
    217 O2    s      -0.000004     -0.000003      0.000001      0.000000
    218 O2    s      -0.000003      0.000007     -0.000014      0.000000
    219 O2    s       0.000018      0.000006     -0.000195      0.000000
    220 O2    s       0.000008     -0.000004      0.000022      0.000000
    221 O2    s       0.000024     -0.000027     -0.000000      0.000000
    222 O2    s       0.000000     -0.000004      0.000013      0.000000
    223 O2    s       0.000053     -0.000074     -0.000105      0.000000
    224 O2    s       0.000001     -0.000001     -0.000010      0.000000
    225 O2    s      -0.000012      0.000006     -0.000012      0.000000
    226 O2    s      -0.000006     -0.000000     -0.000000      0.000000
    227 O2    s      -0.000003     -0.000012      0.000003      0.000000
    228 O2    s       0.000009     -0.000003      0.000001      0.000000
    229 O2    s      -0.000011      0.000010      0.000032      0.000000
    230 O2    s      -0.000005      0.000028      0.000077      0.000000
    231 O2    s       0.000009     -0.000009      0.000013      0.000000
    232 O2    s      -0.000012      0.000001     -0.000009      0.000000
    233 O2    s      -0.000004      0.000002      0.000017      0.000000
    234 O2    s      -0.000004      0.000020      0.000034      0.000000
    235 O2    s      -0.000001      0.000006     -0.000012      0.000000
    236 O2    s       0.000005     -0.000007     -0.000020      0.000000
    237 O2    s      -0.000004     -0.000008     -0.000008      0.000000
    238 O2    s      -0.000009      0.000010      0.000019      0.000000
    239 O2    s      -0.000038      0.000007      0.000042      0.000000
    240 O2    s      -0.000003      0.000006      0.000014      0.000000
    241 O3    s      -0.000012      0.000026     -0.000011      0.000000
    242 O2    s      -0.000002      0.000001      0.000013      0.000000
    243 O2    s      -0.000006     -0.000002     -0.000014      0.000000
    244 O2    s       0.000002     -0.000006      0.000009      0.000000
    245 O3    s       0.000007     -0.000002      0.000019      0.000000
    246 O2    s       0.000004      0.000002     -0.000004      0.000000
    247 O2    s      -0.000000      0.000002      0.000001      0.000000
    248 O3    s      -0.000039      0.000022     -0.000030      0.000000
    249 O2    s      -0.000007     -0.000006      0.000018      0.000000
    250 O2    s      -0.000001     -0.000016     -0.000001      0.000000
    251 O2    s       0.000005      0.000003     -0.000001      0.000000
    252 O2    s       0.000005     -0.000004     -0.000004      0.000000
    253 O2    s       0.000040     -0.000007     -0.000031      0.000000
    254 O2    s       0.000000      0.000003     -0.000015      0.000000
    255 O2    s      -0.000006      0.000002     -0.000010      0.000000
    256 O2    s      -0.000001     -0.000006     -0.000010      0.000000
    257 O2    s      -0.000009      0.000025     -0.000012      0.000000
    258 O2    s      -0.000006      0.000003      0.000008      0.000000
    259 O2    s       0.000002      0.000001      0.000015      0.000000
    260 O2    s      -0.000019      0.000009      0.000000      0.000000
    261 O2    s       0.000002     -0.000009      0.000010      0.000000
    262 O2    s      -0.000007      0.000001      0.000013      0.000000
    263 O2    s       0.000002      0.000006      0.000001      0.000000
    264 O2    s      -0.000016     -0.000011      0.000045      0.000000
    265 O3    s       0.000006     -0.000006     -0.000122      0.000000
    266 O2    s      -0.000002     -0.000005     -0.000006      0.000000
    267 O2    s       0.000007     -0.000005      0.000001      0.000000
    268 O2    s       0.000001     -0.000002     -0.000002      0.000000
    269 O2    s      -0.000007     -0.000000     -0.000009      0.000000
    270 O2    s      -0.000004      0.000005      0.000011      0.000000
    271 O2    s       0.000006     -0.000003      0.000016      0.000000
    272 O3    s      -0.000057      0.000052      0.000032      0.000000
    273 O2    s      -0.000009      0.000004     -0.000000      0.000000
    274 O3    s      -0.000032      0.000015      0.000035      0.000000
    275 O2    s       0.000001     -0.000002      0.000005      0.000000
    276 O2    s      -0.000013     -0.000002      0.000029      0.000000
    277 O3    s      -0.000072     -0.000006     -0.000154      0.000000
    278 O2    s       0.000002     -0.000002     -0.000010      0.000000
    279 O2    s      -0.000001     -0.000001     -0.000011      0.000000
    280 O2    s       0.000004      0.000003      0.000002      0.000000
    281 O3    s      -0.000007     -0.000002     -0.000005      0.000000
    282 O2    s       0.000017     -0.000013     -0.000011      0.000000
    283 O2    s       0.000002      0.000003      0.000014      0.000000
    284 O3    s       0.000008      0.000017      0.000039      0.000000
    285 O2    s      -0.000001     -0.000004      0.000004      0.000000
    286 O2    s      -0.000000      0.000007     -0.000016      0.000000
    287 O2    s       0.000005     -0.000004      0.000004      0.000000
    288 O2    s      -0.000003      0.000001     -0.000010      0.000000
    289 O2    s      -0.000060      0.000040     -0.000088      0.000000
    290 O2    s      -0.000000     -0.000001      0.000008      0.000000
    291 O2    s       0.000002      0.000002     -0.000013      0.000000
    292 O2    s       0.000000     -0.000005      0.000009      0.000000
    293 O2    s      -0.000005     -0.000002      0.000003      0.000000
    294 O2    s       0.000007      0.000007      0.000002      0.000000
    295 O2    s       0.000002      0.000004     -0.000012      0.000000
    296 O2    s      -0.000057      0.000012      0.000089      0.000000
    297 O2    s      -0.000002     -0.000000      0.000009      0.000000
    298 O2    s       0.000014     -0.000010     -0.000007      0.000000
    299 O2    s       0.000002      0.000002      0.000007      0.000000
    300 O2    s      -0.000001     -0.000002      0.000019      0.000000
    301 O2    s      -0.000000      0.000010      0.000000      0.000000
    302 O2    s      -0.000010      0.000007      0.000018      0.000000
    303 O2    s      -0.000002     -0.000029      0.000025      0.000000
    304 O2    s      -0.000005     -0.000003     -0.000009      0.000000
    305 O2    s       0.000001      0.000005     -0.000023      0.000000
    306 O2    s      -0.000012      0.000013     -0.000003      0.000000
    307 F     s       0.000001     -0.000004      0.000016      0.000000
    308 F     s       0.000001     -0.000002     -0.000031      0.000000
    309 F     s       0.000021      0.000019     -0.000008      0.000000
    310 F     s       0.000006     -0.000000      0.000002      0.000000
    311 F     s       0.000024     -0.000005     -0.000090      0.000000
    312 F     s       0.000001     -0.000002      0.000002      0.000000
--------------------------------------------------------------------------------
  Maximum abs         0.000312      0.000160      0.000408      0.000000
--------------------------------------------------------------------------------


  Time to end of optimisation =      62.4998 seconds


  Peak dynamic memory used =      19.13 MB 


  Timing analysis for GULP :

--------------------------------------------------------------------------------
  Task / Subroutine                                          Time (Seconds)
--------------------------------------------------------------------------------
  Calculation of reciprocal space energy and derivatives          1.8286
  Calculation of real space energy and derivatives               53.4480
  Calculation of three-body energy and derivatives                6.0543
  Calculation of matrix inversion                                 0.7678
--------------------------------------------------------------------------------
  Total CPU time                                                 62.4998
--------------------------------------------------------------------------------


  Dump file written as out.res                                                 
  CIF file written as out.cif                                                 


  Job Finished at 05:12.07 26th November   2016                               

