********************************************************************************
*                       GENERAL UTILITY LATTICE PROGRAM                        *
*                                 Julian Gale                                  *
*                      Nanochemistry Research Institute                        *
*                           Department of Chemistry                            *
*                    Curtin University, Western Australia                      *
********************************************************************************
* Version = 4.2.0 * Last modified =  20th January 2014                         *
********************************************************************************
*  optimise     - perform optimisation run                                     *
*  conp         - constant pressure calculation                                *
*  qok          - running with non charge neutral cell is OK                   *
********************************************************************************

  Job Started  at 22:13.51 24th October    2016                               

  Number of CPUs =     1


  Total number of configurations input =   1

********************************************************************************
*  Input for Configuration =   1                                               *
********************************************************************************

  Formula = Ge3Si57O120F6                                               

  Number of irreducible atoms/shells =     312


  Total number atoms/shells =     312

  Dimensionality = 3               :  Bulk   


  Charge on solid   =  -6.000000 =>neutralising background added


  Cartesian lattice vectors (Angstroms) :

       11.934241    0.000000    0.000000
       -5.982975   10.386244    0.000000
        0.078085   -0.230711   29.506910

  Cell parameters (Angstroms/Degrees):

  a =      11.9342    alpha =  90.4639
  b =      11.9862    beta  =  89.8484
  c =      29.5079    gamma = 119.9440

  Initial cell volume =        3657.438837 Angs**3

  Temperature of configuration =  0.000     K 

  Pressure of configuration =         0.000 GPa 

  Fractional coordinates of asymmetric unit :

--------------------------------------------------------------------------------
   No.  Atomic       x           y          z         Charge      Occupancy
        Label      (Frac)      (Frac)     (Frac)        (e)         (Frac)  
--------------------------------------------------------------------------------
      1 Ge    c    0.699600    0.375700    0.033890     4.00000    1.000000    
      2 Ge    c    0.611913 *  0.332856 *  0.369146 *   4.00000    1.000000    
      3 Si    c    0.679162 *  0.298328 *  0.699323 *   4.00000    1.000000    
      4 Si    c    0.297746 *  0.617570 *  0.531636 *   4.00000    1.000000    
      5 Si    c    0.378904 *  0.674181 *  0.861603 *   4.00000    1.000000    
      6 Si    c    0.324016 *  0.703681 *  0.198972 *   4.00000    1.000000    
      7 Si    c    0.377646 *  0.704204 *  0.298974 *   4.00000    1.000000    
      8 Si    c    0.319230 *  0.621682 *  0.961367 *   4.00000    1.000000    
      9 Si    c    0.302533 *  0.676192 *  0.631866 *   4.00000    1.000000    
     10 Si    c    0.622358 *  0.295913 *  0.799711 *   4.00000    1.000000    
     11 Si    c    0.682319 *  0.371151 *  0.467071 *   4.00000    1.000000    
     12 Si    c    0.684444 *  0.319092 *  0.132726 *   4.00000    1.000000    
     13 Si    c    0.528384 *  0.416708 *  0.966406 *   4.00000    1.000000    
     14 Si    c    0.580164 *  0.119378 *  0.302583 *   4.00000    1.000000    
     15 Si    c    0.891740 *  0.471792 *  0.635855 *   4.00000    1.000000    
     16 Si    c    0.469407 *  0.579931 *  0.465224 *   4.00000    1.000000    
     17 Si    c    0.418122 *  0.884633 *  0.797469 *   4.00000    1.000000    
     18 Ge    c    0.110292 *  0.538657 *  0.130468 *   4.00000    1.000000    
     19 Si    c    0.414618 *  0.527870 *  0.362266 *   4.00000    1.000000    
     20 Si    c    0.105598 *  0.584971 *  0.025213 *   4.00000    1.000000    
     21 Si    c    0.473635 *  0.888900 *  0.696058 *   4.00000    1.000000    
     22 Si    c    0.582636 *  0.468221 *  0.864466 *   4.00000    1.000000    
     23 Si    c    0.890619 *  0.417571 *  0.534528 *   4.00000    1.000000    
     24 Si    c    0.524822 *  0.111886 *  0.200336 *   4.00000    1.000000    
     25 Si    c    0.302038 *  0.396737 *  0.848045 *   4.00000    1.000000    
     26 Si    c    0.600431 *  0.906370 *  0.184091 *   4.00000    1.000000    
     27 Si    c    0.097127 *  0.696295 *  0.517651 *   4.00000    1.000000    
     28 Si    c    0.702787 *  0.603910 *  0.345990 *   4.00000    1.000000    
     29 Si    c    0.401868 *  0.097329 *  0.682932 *   4.00000    1.000000    
     30 Si    c    0.892084 *  0.296254 *  0.011461 *   4.00000    1.000000    
     31 Si    c    0.397652 *  0.294700 *  0.478418 *   4.00000    1.000000    
     32 Si    c    0.887286 *  0.605129 *  0.143707 *   4.00000    1.000000    
     33 Si    c    0.699580 *  0.094307 *  0.812918 *   4.00000    1.000000    
     34 Si    c    0.597172 *  0.698738 *  0.978140 *   4.00000    1.000000    
     35 Si    c    0.101838 *  0.399104 *  0.648133 *   4.00000    1.000000    
     36 Si    c    0.297978 *  0.903223 *  0.313417 *   4.00000    1.000000    
     37 Si    c    0.249259 *  0.341246 *  0.948237 *   4.00000    1.000000    
     38 Si    c    0.657338 *  0.916754 *  0.284650 *   4.00000    1.000000    
     39 Si    c    0.092984 *  0.749253 *  0.618450 *   4.00000    1.000000    
     40 Si    c    0.750823 *  0.655447 *  0.449132 *   4.00000    1.000000    
     41 Si    c    0.341302 *  0.086516 *  0.783307 *   4.00000    1.000000    
     42 Si    c    0.902372 *  0.251511 *  0.114098 *   4.00000    1.000000    
     43 Si    c    0.329488 *  0.242922 *  0.376218 *   4.00000    1.000000    
     44 Si    c    0.897207 *  0.660272 *  0.040554 *   4.00000    1.000000    
     45 Si    c    0.751940 *  0.090234 *  0.712265 *   4.00000    1.000000    
     46 Si    c    0.659466 *  0.746989 *  0.877739 *   4.00000    1.000000    
     47 Si    c    0.091003 *  0.338085 *  0.547482 *   4.00000    1.000000    
     48 Si    c    0.244778 *  0.906869 *  0.212751 *   4.00000    1.000000    
     49 Si    c    0.971852 *  0.121387 *  0.963243 *   4.00000    1.000000    
     50 Si    c    0.875047 *  0.855782 *  0.296931 *   4.00000    1.000000    
     51 Si    c    0.154395 *  0.029121 *  0.631849 *   4.00000    1.000000    
     52 Si    c    0.028321 *  0.874049 *  0.465935 *   4.00000    1.000000    
     53 Si    c    0.122561 *  0.147506 *  0.797743 *   4.00000    1.000000    
     54 Si    c    0.845306 *  0.974069 *  0.130811 *   4.00000    1.000000    
     55 Si    c    0.112898 *  0.966597 *  0.364478 *   4.00000    1.000000    
     56 Si    c    0.844875 *  0.882364 *  0.029224 *   4.00000    1.000000    
     57 Si    c    0.031882 *  0.150518 *  0.697058 *   4.00000    1.000000    
     58 Si    c    0.879008 *  0.024816 *  0.862866 *   4.00000    1.000000    
     59 Si    c    0.150436 *  0.118382 *  0.530860 *   4.00000    1.000000    
     60 Si    c    0.966347 *  0.854953 *  0.195716 *   4.00000    1.000000    
     61 O2    c    0.926640 *  0.005713 *  0.998225 *   0.87073    1.000000    
     62 O2    c    0.992828 *  0.924915 *  0.331559 *   0.87073    1.000000    
     63 O2    c    0.072292 *  0.071789 *  0.663031 *   0.87073    1.000000    
     64 O2    c    0.068941 *  0.997343 *  0.497842 *   0.87073    1.000000    
     65 O2    c    0.000048 *  0.067705 *  0.829783 *   0.87073    1.000000    
     66 O2    c    0.933253 *  0.941234 *  0.163119 *   0.87073    1.000000    
     67 O2    c    0.340050 *  0.581071 *  0.331397 *   0.87073    1.000000    
     68 O2    c    0.427260 *  0.763462 *  0.663460 *   0.87073    1.000000    
     69 O2    c    0.229815 *  0.659542 *  0.992260 *   0.87073    1.000000    
     70 O2    c    0.660465 *  0.417935 *  0.832820 *   0.87073    1.000000    
     71 O2    c    0.574129 *  0.239810 *  0.170129 *   0.87073    1.000000    
     72 O2    c    0.761049 *  0.339464 *  0.504349 *   0.87073    1.000000    
     73 O3    c    0.566491 *  0.336859 *  0.998642 *   1.33043    1.000000    
     74 O2    c    0.766498 *  0.423947 *  0.668185 *   0.87073    1.000000    
     75 O3    c    0.655462 *  0.239669 *  0.334074 *   1.33043    1.000000    
     76 O2    c    0.420348 *  0.654743 *  0.498209 *   0.87073    1.000000    
     77 O3    c    0.240697 *  0.582662 *  0.165823 *   1.33043    1.000000    
     78 O2    c    0.340803 *  0.758237 *  0.828639 *   0.87073    1.000000    
     79 O2    c    0.125780 *  0.213279 *  0.968597 *   0.87073    1.000000    
     80 O2    c    0.786718 *  0.921113 *  0.304167 *   0.87073    1.000000    
     81 O2    c    0.092794 *  0.875739 *  0.638198 *   0.87073    1.000000    
     82 O2    c    0.874059 *  0.780529 *  0.471130 *   0.87073    1.000000    
     83 O2    c    0.213671 *  0.084440 *  0.803359 *   0.87073    1.000000    
     84 O2    c    0.902858 *  0.126996 *  0.134774 *   0.87073    1.000000    
     85 O2    c    0.192352 *  0.121185 *  0.360632 *   0.87073    1.000000    
     86 O2    c    0.912983 *  0.796462 *  0.023734 *   0.87073    1.000000    
     87 O2    c    0.877883 *  0.090018 *  0.691497 *   0.87073    1.000000    
     88 O2    c    0.787181 *  0.871063 *  0.857375 *   0.87073    1.000000    
     89 O2    c    0.087815 *  0.210137 *  0.527218 *   0.87073    1.000000    
     90 O2    c    0.119647 *  0.907890 *  0.191771 *   0.87073    1.000000    
     91 O2    c    0.929352 *  0.871920 *  0.246450 *   0.87073    1.000000    
     92 O2    c    0.141476 *  0.064633 *  0.580730 *   0.87073    1.000000    
     93 O2    c    0.933202 *  0.061998 *  0.913316 *   0.87073    1.000000    
     94 O2    c    0.070095 *  0.132637 *  0.747013 *   0.87073    1.000000    
     95 O2    c    0.853104 *  0.930322 *  0.080450 *   0.87073    1.000000    
     96 O2    c    0.063231 *  0.921887 *  0.415020 *   0.87073    1.000000    
     97 O2    c    0.903440 *  0.205022 *  0.973200 *   0.87073    1.000000    
     98 O2    c    0.790909 *  0.704797 *  0.307553 *   0.87073    1.000000    
     99 O2    c    0.306052 *  0.100491 *  0.644370 *   0.87073    1.000000    
    100 O2    c    0.099242 *  0.794031 *  0.479241 *   0.87073    1.000000    
    101 O2    c    0.204803 *  0.299082 *  0.809369 *   0.87073    1.000000    
    102 O2    c    0.695301 *  0.902467 *  0.145443 *   0.87073    1.000000    
    103 O2    c    0.199813 *  0.902779 *  0.351767 *   0.87073    1.000000    
    104 O2    c    0.693234 *  0.799411 *  0.016403 *   0.87073    1.000000    
    105 O2    c    0.103627 *  0.302844 *  0.686146 *   0.87073    1.000000    
    106 O2    c    0.796813 *  0.094788 *  0.851382 *   0.87073    1.000000    
    107 O2    c    0.301229 *  0.200710 *  0.517211 *   0.87073    1.000000    
    108 O2    c    0.886508 *  0.704657 *  0.181531 *   0.87073    1.000000    
    109 O2    c    0.322187 *  0.643785 *  0.248749 *   0.87073    1.000000    
    110 O2    c    0.358711 *  0.676746 *  0.581240 *   0.87073    1.000000    
    111 O2    c    0.319067 *  0.677085 *  0.911091 *   0.87073    1.000000    
    112 O2    c    0.678868 *  0.354367 *  0.749695 *   0.87073    1.000000    
    113 O3    c    0.614477 *  0.303639 *  0.085151 *   1.33043    1.000000    
    114 O3    c    0.688671 *  0.314529 *  0.419131 *   1.33043    1.000000    
    115 O2    c    0.370850 *  0.332144 *  0.966530 *   0.87073    1.000000    
    116 O2    c    0.665980 *  0.047260 *  0.302879 *   0.87073    1.000000    
    117 O2    c    0.961121 *  0.628008 *  0.637425 *   0.87073    1.000000    
    118 O2    c    0.625617 *  0.662571 *  0.466421 *   0.87073    1.000000    
    119 O2    c    0.330653 *  0.953637 *  0.800555 *   0.87073    1.000000    
    120 O3    c    0.035156 *  0.372043 *  0.130192 *   1.33043    1.000000    
    121 O2    c    0.326836 *  0.372270 *  0.360623 *   0.87073    1.000000    
    122 O2    c    0.030269 *  0.665798 *  0.023658 *   0.87073    1.000000    
    123 O2    c    0.630208 *  0.958439 *  0.693027 *   0.87073    1.000000    
    124 O2    c    0.669398 *  0.623886 *  0.860088 *   0.87073    1.000000    
    125 O2    c    0.958949 *  0.329810 *  0.529488 *   0.87073    1.000000    
    126 O2    c    0.368118 *  0.038679 *  0.195046 *   0.87073    1.000000    
    127 O3    c    0.757818 *  0.287930 *  0.001882 *   1.33043    1.000000    
    128 O3    c    0.707777 *  0.476813 *  0.337073 *   1.33043    1.000000    
    129 O2    c    0.536652 *  0.231148 *  0.675868 *   0.87073    1.000000    
    130 O2    c    0.229231 *  0.691818 *  0.509018 *   0.87073    1.000000    
    131 O2    c    0.304382 *  0.531066 *  0.838736 *   0.87073    1.000000    
    132 O2    c    0.466151 *  0.772989 *  0.175452 *   0.87073    1.000000    
    133 O2    c    0.298615 *  0.769308 *  0.320937 *   0.87073    1.000000    
    134 O2    c    0.461893 *  0.698855 *  0.984632 *   0.87073    1.000000    
    135 O2    c    0.236529 *  0.533579 *  0.654145 *   0.87073    1.000000    
    136 O2    c    0.698036 *  0.227240 *  0.821002 *   0.87073    1.000000    
    137 O2    c    0.532705 *  0.297477 *  0.485682 *   0.87073    1.000000    
    138 O2    c    0.755044 *  0.469231 *  0.150363 *   0.87073    1.000000    
    139 O3    c    0.769889 *  0.545919 *  0.020172 *   1.33043    1.000000    
    140 O3    c    0.443159 *  0.231628 *  0.353884 *   1.33043    1.000000    
    141 O2    c    0.754757 *  0.217765 *  0.693492 *   0.87073    1.000000    
    142 O2    c    0.218733 *  0.461311 *  0.527282 *   0.87073    1.000000    
    143 O2    c    0.535693 *  0.749905 *  0.857177 *   0.87073    1.000000    
    144 O2    c    0.241135 *  0.778358 *  0.192906 *   0.87073    1.000000    
    145 O2    c    0.533816 *  0.788391 *  0.304365 *   0.87073    1.000000    
    146 O2    c    0.245122 *  0.466163 *  0.967255 *   0.87073    1.000000    
    147 O2    c    0.219444 *  0.749190 *  0.637290 *   0.87073    1.000000    
    148 O2    c    0.466016 *  0.211999 *  0.803761 *   0.87073    1.000000    
    149 O2    c    0.746535 *  0.528040 *  0.467825 *   0.87073    1.000000    
    150 O2    c    0.781451 *  0.259987 *  0.134717 *   0.87073    1.000000    
    151 O2    c    0.228183 *  0.323585 *  0.893914 *   0.87073    1.000000    
    152 O2    c    0.674407 *  0.910761 *  0.230458 *   0.87073    1.000000    
    153 O2    c    0.094920 *  0.767452 *  0.564138 *   0.87073    1.000000    
    154 O2    c    0.766704 *  0.670823 *  0.394882 *   0.87073    1.000000    
    155 O2    c    0.325301 *  0.091270 *  0.729016 *   0.87073    1.000000    
    156 O2    c    0.895613 *  0.232666 *  0.059759 *   0.87073    1.000000    
    157 O2    c    0.326698 *  0.229381 *  0.431351 *   0.87073    1.000000    
    158 O2    c    0.895769 *  0.671940 *  0.095806 *   0.87073    1.000000    
    159 O2    c    0.770768 *  0.091068 *  0.766472 *   0.87073    1.000000    
    160 O2    c    0.674432 *  0.767387 *  0.932040 *   0.87073    1.000000    
    161 O2    c    0.094173 *  0.322481 *  0.601662 *   0.87073    1.000000    
    162 O2    c    0.226203 *  0.905676 *  0.267096 *   0.87073    1.000000    
    163 O2    c    0.580029 *  0.559626 *  0.988085 *   0.87073    1.000000    
    164 O2    c    0.436902 *  0.025831 *  0.323438 *   0.87073    1.000000    
    165 O2    c    0.978689 *  0.416861 *  0.657940 *   0.87073    1.000000    
    166 O2    c    0.418335 *  0.437383 *  0.484672 *   0.87073    1.000000    
    167 O2    c    0.559489 *  0.969320 *  0.820626 *   0.87073    1.000000    
    168 O3    c    0.009503 *  0.588531 *  0.153139 *   1.33043    1.000000    
    169 O2    c    0.556422 *  0.579795 *  0.340994 *   0.87073    1.000000    
    170 O2    c    0.016611 *  0.439788 *  0.006370 *   0.87073    1.000000    
    171 O2    c    0.414957 *  0.971602 *  0.672994 *   0.87073    1.000000    
    172 O2    c    0.441420 *  0.408342 *  0.840645 *   0.87073    1.000000    
    173 O2    c    0.969719 *  0.557177 *  0.510059 *   0.87073    1.000000    
    174 O2    c    0.587389 *  0.032678 *  0.176445 *   0.87073    1.000000    
    175 O2    c    0.573778 *  0.164044 *  0.251050 *   0.87073    1.000000    
    176 O2    c    0.838385 *  0.417046 *  0.585301 *   0.87073    1.000000    
    177 O2    c    0.583484 *  0.419712 *  0.915361 *   0.87073    1.000000    
    178 O2    c    0.419267 *  0.833860 *  0.746276 *   0.87073    1.000000    
    179 O3    c    0.158724 *  0.591502 *  0.075868 *   1.33043    1.000000    
    180 O2    c    0.419906 *  0.577368 *  0.414078 *   0.87073    1.000000    
    181 F     c    0.442719 *  0.895941 *  0.247173 *   0.56000    1.000000    
    182 F     c    0.100126 *  0.546501 *  0.581530 *   0.56000    1.000000    
    183 F     c    0.447679 *  0.550604 *  0.911843 *   0.56000    1.000000    
    184 F     c    0.550038 *  0.095555 *  0.746607 *   0.56000    1.000000    
    185 F     c    0.854190 *  0.437125 *  0.070321 *   0.56000    1.000000    
    186 F     c    0.557952 *  0.424476 *  0.405461 *   0.56000    1.000000    
    187 O2    s    0.922503 *  0.004859 *  0.997773 *  -2.87073    1.000000    
    188 O2    s    0.993147 *  0.921740 *  0.331387 *  -2.87073    1.000000    
    189 O2    s    0.077064 *  0.075776 *  0.663306 *  -2.87073    1.000000    
    190 O2    s    0.073444 *  0.997037 *  0.497955 *  -2.87073    1.000000    
    191 O2    s    0.000266 *  0.071867 *  0.829877 *  -2.87073    1.000000    
    192 O2    s    0.927354 *  0.935322 *  0.163196 *  -2.87073    1.000000    
    193 O2    s    0.351704 *  0.587846 *  0.331385 *  -2.87073    1.000000    
    194 O2    s    0.418944 *  0.767126 *  0.663466 *  -2.87073    1.000000    
    195 O2    s    0.225977 *  0.647953 *  0.992536 *  -2.87073    1.000000    
    196 O2    s    0.648544 *  0.410267 *  0.832566 *  -2.87073    1.000000    
    197 O2    s    0.580461 *  0.234647 *  0.169384 *  -2.87073    1.000000    
    198 O2    s    0.766381 *  0.351046 *  0.503576 *  -2.87073    1.000000    
    199 O3    s    0.572249 *  0.348201 *  0.997822 *  -3.33043    1.000000    
    200 O2    s    0.770730 *  0.416225 *  0.667972 *  -2.87073    1.000000    
    201 O3    s    0.644058 *  0.232856 *  0.333048 *  -3.33043    1.000000    
    202 O2    s    0.413272 *  0.643038 *  0.498052 *  -2.87073    1.000000    
    203 O3    s    0.238111 *  0.590640 *  0.166137 *  -3.33043    1.000000    
    204 O2    s    0.352782 *  0.762922 *  0.828734 *  -2.87073    1.000000    
    205 O2    s    0.121851 *  0.216517 *  0.965949 *  -2.87073    1.000000    
    206 O2    s    0.782979 *  0.913592 *  0.301410 *  -2.87073    1.000000    
    207 O2    s    0.099341 *  0.878800 *  0.635490 *  -2.87073    1.000000    
    208 O2    s    0.877466 *  0.777321 *  0.468301 *  -2.87073    1.000000    
    209 O2    s    0.217248 *  0.091372 *  0.800697 *  -2.87073    1.000000    
    210 O2    s    0.896548 *  0.123397 *  0.132211 *  -2.87073    1.000000    
    211 O2    s    0.198056 *  0.117288 *  0.362653 *  -2.87073    1.000000    
    212 O2    s    0.903963 *  0.792012 *  0.026008 *  -2.87073    1.000000    
    213 O2    s    0.881354 *  0.096540 *  0.694212 *  -2.87073    1.000000    
    214 O2    s    0.783872 *  0.874724 *  0.860020 *  -2.87073    1.000000    
    215 O2    s    0.094826 *  0.213518 *  0.529671 *  -2.87073    1.000000    
    216 O2    s    0.116195 *  0.902110 *  0.194336 *  -2.87073    1.000000    
    217 O2    s    0.927381 *  0.868222 *  0.246469 *  -2.87073    1.000000    
    218 O2    s    0.143948 *  0.066803 *  0.580758 *  -2.87073    1.000000    
    219 O2    s    0.931413 *  0.064455 *  0.913208 *  -2.87073    1.000000    
    220 O2    s    0.071621 *  0.136364 *  0.746982 *  -2.87073    1.000000    
    221 O2    s    0.851320 *  0.930037 *  0.080512 *  -2.87073    1.000000    
    222 O2    s    0.064796 *  0.921419 *  0.415190 *  -2.87073    1.000000    
    223 O2    s    0.909797 *  0.205365 *  0.976098 *  -2.87073    1.000000    
    224 O2    s    0.790728 *  0.710594 *  0.310474 *  -2.87073    1.000000    
    225 O2    s    0.299516 *  0.092554 *  0.646913 *  -2.87073    1.000000    
    226 O2    s    0.091528 *  0.792571 *  0.481730 *  -2.87073    1.000000    
    227 O2    s    0.205844 *  0.292731 *  0.812046 *  -2.87073    1.000000    
    228 O2    s    0.701559 *  0.910538 *  0.147873 *  -2.87073    1.000000    
    229 O2    s    0.200458 *  0.909686 *  0.349211 *  -2.87073    1.000000    
    230 O2    s    0.699510 *  0.798004 *  0.013879 *  -2.87073    1.000000    
    231 O2    s    0.095958 *  0.296815 *  0.683380 *  -2.87073    1.000000    
    232 O2    s    0.795493 *  0.087333 *  0.848638 *  -2.87073    1.000000    
    233 O2    s    0.295248 *  0.201759 *  0.514613 *  -2.87073    1.000000    
    234 O2    s    0.894980 *  0.710565 *  0.179237 *  -2.87073    1.000000    
    235 O2    s    0.327989 *  0.655941 *  0.248816 *  -2.87073    1.000000    
    236 O2    s    0.346715 *  0.670549 *  0.581223 *  -2.87073    1.000000    
    237 O2    s    0.325185 *  0.671092 *  0.911183 *  -2.87073    1.000000    
    238 O2    s    0.673126 *  0.342598 *  0.749569 *  -2.87073    1.000000    
    239 O3    s    0.627355 *  0.310110 *  0.086398 *  -3.33043    1.000000    
    240 O3    s    0.683024 *  0.321699 *  0.420923 *  -3.33043    1.000000    
    241 O2    s    0.373323 *  0.341759 *  0.964467 *  -2.87073    1.000000    
    242 O2    s    0.656503 *  0.039937 *  0.300825 *  -2.87073    1.000000    
    243 O2    s    0.967805 *  0.624654 *  0.635267 *  -2.87073    1.000000    
    244 O2    s    0.622233 *  0.653127 *  0.464486 *  -2.87073    1.000000    
    245 O2    s    0.340804 *  0.960523 *  0.798406 *  -2.87073    1.000000    
    246 O3    s    0.027573 *  0.372942 *  0.128580 *  -3.33043    1.000000    
    247 O2    s    0.336227 *  0.375601 *  0.362354 *  -2.87073    1.000000    
    248 O2    s    0.024757 *  0.656697 *  0.025512 *  -2.87073    1.000000    
    249 O2    s    0.626800 *  0.965102 *  0.695369 *  -2.87073    1.000000    
    250 O2    s    0.659422 *  0.620819 *  0.862398 *  -2.87073    1.000000    
    251 O2    s    0.965889 *  0.339728 *  0.531911 *  -2.87073    1.000000    
    252 O2    s    0.371094 *  0.032222 *  0.197453 *  -2.87073    1.000000    
    253 O3    s    0.767916 *  0.294820 *  0.005140 *  -3.33043    1.000000    
    254 O3    s    0.700872 *  0.480904 *  0.340217 *  -3.33043    1.000000    
    255 O2    s    0.537163 *  0.224041 *  0.679034 *  -2.87073    1.000000    
    256 O2    s    0.222498 *  0.684616 *  0.512271 *  -2.87073    1.000000    
    257 O2    s    0.311773 *  0.531661 *  0.842080 *  -2.87073    1.000000    
    258 O2    s    0.465625 *  0.779894 *  0.178816 *  -2.87073    1.000000    
    259 O2    s    0.306646 *  0.776359 *  0.317868 *  -2.87073    1.000000    
    260 O2    s    0.461230 *  0.690966 *  0.981557 *  -2.87073    1.000000    
    261 O2    s    0.229137 *  0.534058 *  0.651187 *  -2.87073    1.000000    
    262 O2    s    0.690397 *  0.220262 *  0.817917 *  -2.87073    1.000000    
    263 O2    s    0.532682 *  0.304348 *  0.483053 *  -2.87073    1.000000    
    264 O2    s    0.761977 *  0.468847 *  0.147904 *  -2.87073    1.000000    
    265 O3    s    0.779518 *  0.547750 *  0.023216 *  -3.33043    1.000000    
    266 O3    s    0.441745 *  0.239527 *  0.357238 *  -3.33043    1.000000    
    267 O2    s    0.746517 *  0.212336 *  0.696082 *  -2.87073    1.000000    
    268 O2    s    0.213301 *  0.464383 *  0.529844 *  -2.87073    1.000000    
    269 O2    s    0.532763 *  0.741648 *  0.859820 *  -2.87073    1.000000    
    270 O2    s    0.249584 *  0.784387 *  0.195500 *  -2.87073    1.000000    
    271 O2    s    0.530588 *  0.793207 *  0.301754 *  -2.87073    1.000000    
    272 O2    s    0.253261 *  0.468973 *  0.964661 *  -2.87073    1.000000    
    273 O2    s    0.214194 *  0.741456 *  0.634691 *  -2.87073    1.000000    
    274 O2    s    0.468836 *  0.207026 *  0.801130 *  -2.87073    1.000000    
    275 O2    s    0.740508 *  0.526497 *  0.465673 *  -2.87073    1.000000    
    276 O2    s    0.784687 *  0.265178 *  0.132295 *  -2.87073    1.000000    
    277 O2    s    0.238103 *  0.333114 *  0.894796 *  -2.87073    1.000000    
    278 O2    s    0.664767 *  0.910875 *  0.231271 *  -2.87073    1.000000    
    279 O2    s    0.094938 *  0.757994 *  0.564941 *  -2.87073    1.000000    
    280 O2    s    0.758716 *  0.662581 *  0.395850 *  -2.87073    1.000000    
    281 O2    s    0.335036 *  0.091412 *  0.729866 *  -2.87073    1.000000    
    282 O2    s    0.895910 *  0.240999 *  0.060678 *  -2.87073    1.000000    
    283 O2    s    0.334737 *  0.237834 *  0.430964 *  -2.87073    1.000000    
    284 O2    s    0.894902 *  0.663459 *  0.095522 *  -2.87073    1.000000    
    285 O2    s    0.761363 *  0.091313 *  0.765548 *  -2.87073    1.000000    
    286 O2    s    0.664829 *  0.758115 *  0.931060 *  -2.87073    1.000000    
    287 O2    s    0.094641 *  0.332129 *  0.600720 *  -2.87073    1.000000    
    288 O2    s    0.235560 *  0.905521 *  0.266153 *  -2.87073    1.000000    
    289 O2    s    0.576389 *  0.560383 *  0.984766 *  -2.87073    1.000000    
    290 O2    s    0.435989 *  0.021413 *  0.320179 *  -2.87073    1.000000    
    291 O2    s    0.983059 *  0.420915 *  0.654561 *  -2.87073    1.000000    
    292 O2    s    0.421710 *  0.437351 *  0.481900 *  -2.87073    1.000000    
    293 O2    s    0.559855 *  0.974167 *  0.817355 *  -2.87073    1.000000    
    294 O3    s    0.005260 *  0.585970 *  0.150299 *  -3.33043    1.000000    
    295 O2    s    0.556004 *  0.576433 *  0.343816 *  -2.87073    1.000000    
    296 O2    s    0.013029 *  0.440433 *  0.008925 *  -2.87073    1.000000    
    297 O2    s    0.419818 *  0.976663 *  0.676442 *  -2.87073    1.000000    
    298 O2    s    0.441057 *  0.413463 *  0.843908 *  -2.87073    1.000000    
    299 O2    s    0.975389 *  0.557754 *  0.513371 *  -2.87073    1.000000    
    300 O2    s    0.582213 *  0.027154 *  0.179698 *  -2.87073    1.000000    
    301 O2    s    0.569047 *  0.153786 *  0.250803 *  -2.87073    1.000000    
    302 O2    s    0.849566 *  0.422875 *  0.585237 *  -2.87073    1.000000    
    303 O2    s    0.577916 *  0.424631 *  0.915059 *  -2.87073    1.000000    
    304 O2    s    0.424855 *  0.844905 *  0.746320 *  -2.87073    1.000000    
    305 O3    s    0.149699 *  0.586587 *  0.075443 *  -3.33043    1.000000    
    306 O2    s    0.424572 *  0.572527 *  0.414161 *  -2.87073    1.000000    
    307 F     s    0.441819 *  0.894426 *  0.246935 *  -1.56000    1.000000    
    308 F     s    0.100624 *  0.546609 *  0.581349 *  -1.56000    1.000000    
    309 F     s    0.447125 *  0.551169 *  0.911682 *  -1.56000    1.000000    
    310 F     s    0.550241 *  0.095976 *  0.746448 *  -1.56000    1.000000    
    311 F     s    0.845247 *  0.433535 *  0.068327 *  -1.56000    1.000000    
    312 F     s    0.561768 *  0.417628 *  0.402861 *  -1.56000    1.000000    
--------------------------------------------------------------------------------



********************************************************************************
*  General input information                                                   *
********************************************************************************

  Species output for all configurations : 

--------------------------------------------------------------------------------
  Species    Type    Atomic    Atomic    Charge       Radii (Angs)     Library
                     Number     Mass       (e)     Cova   Ionic  VDW   Symbol
--------------------------------------------------------------------------------
    Si       Core       14      28.09   4.000000   1.200  0.000  2.100          
    O1       Core        8      16.00   1.733957   0.730  0.000  1.360          
    O1       Shell       8       0.00  -3.733957   0.730  0.000  1.360          
    O2       Core        8      16.00   0.870733   0.730  0.000  1.360          
    O2       Shell       8       0.00  -2.870733   0.730  0.000  1.360          
    O3       Core        8      16.00   1.330431   0.730  0.000  1.360          
    O3       Shell       8       0.00  -3.330431   0.730  0.000  1.360          
    F        Core        9      19.00   0.560000   0.710  0.000  1.300          
    F        Shell       9       0.00  -1.560000   0.710  0.000  1.300          
    Ge       Core       32      72.61   4.000000   1.170  0.000  1.750          
--------------------------------------------------------------------------------


  Lattice summation method               =    Ewald          (3-D)
                                         =    Parry          (2-D)
                                         =    Saunders et al (1-D)
  Accuracy factor for lattice sums       =   12.000


  Time limit = Infinity

  Maximum range for interatomic potentials =        16.000000 Angstroms

  Taper potentials to zero over   1.0000 Angstroms using polynomial

  General interatomic potentials :

--------------------------------------------------------------------------------
Atom  Types   Potential         A         B         C         D     Cutoffs(Ang)
  1     2                                                            Min    Max 
--------------------------------------------------------------------------------
Si   c O1   s Buckingham    0.132E+04 0.318      10.1      0.00     0.000 16.000
Si   c O2   s Buckingham    0.132E+04 0.318      10.1      0.00     0.000 16.000
Si   c O3   s Buckingham    0.132E+04 0.318      10.1      0.00     0.000 16.000
Ge   c O1   s Buckingham    0.150E+04 0.326      16.8      0.00     0.000 16.000
Ge   c O2   s Buckingham    0.150E+04 0.326      16.8      0.00     0.000 16.000
Ge   c O3   s Buckingham    0.150E+04 0.326      16.8      0.00     0.000 16.000
O1   s O1   s Buckingham    0.228E+05 0.149      10.9      0.00     0.000 16.000
O1   s O2   s Buckingham    0.228E+05 0.149      10.9      0.00     0.000 16.000
O1   s O3   s Buckingham    0.228E+05 0.149      10.9      0.00     0.000 16.000
O2   s O2   s Buckingham    0.228E+05 0.149      10.9      0.00     0.000 16.000
O2   s O3   s Buckingham    0.228E+05 0.149      10.9      0.00     0.000 16.000
O3   s O3   s Buckingham    0.228E+05 0.149      10.9      0.00     0.000 16.000
Si   c F    s Buckingham     977.     0.282      0.00      0.00     0.000 16.000
Ge   c F    s Buckingham     681.     0.320      0.00      0.00     0.000 16.000
F    s F    s Buckingham     540.     0.262      0.00      0.00     0.000 16.000
O1   s F    s Buckingham    0.168E+04 0.268      0.00      0.00     0.000 16.000
O2   s F    s Buckingham    0.168E+04 0.268      0.00      0.00     0.000 16.000
O3   s F    s Buckingham    0.168E+04 0.268      0.00      0.00     0.000 16.000
O2   c O2   s Spring (c-s)   76.0      0.00      0.00      0.00     0.000  0.800
O3   c O3   s Spring (c-s)   128.      0.00      0.00      0.00     0.000  0.800
O1   c O1   s Spring (c-s)   180.      0.00      0.00      0.00     0.000  0.800
F    c F    s Spring (c-s)   33.5      0.00      0.00      0.00     0.000  0.800
--------------------------------------------------------------------------------

  General Three-body potentials :

  Harmonic form:

--------------------------------------------------------------------------------
Atom    Atom    Atom           Force Constants            Theta     Cutoffs  
  1       2       3     (eVrad**-2/eVrad**-3/eVrad**-4)   (deg)  1-2  1-3  2-3
--------------------------------------------------------------------------------
Si    c O1    s O1    s  1.261        0.0000    0.0000   109.470 0.00 0.00 0.00
                                                                 1.90 1.90 3.50
Si    c O1    s O2    s  1.261        0.0000    0.0000   109.470 0.00 0.00 0.00
                                                                 1.90 1.90 3.50
Si    c O2    s O2    s  1.261        0.0000    0.0000   109.470 0.00 0.00 0.00
                                                                 1.90 1.90 3.50
--------------------------------------------------------------------------------

********************************************************************************
*  Output for configuration   1                                                *
********************************************************************************


  Components of energy : 

--------------------------------------------------------------------------------
  Interatomic potentials     =        2063.60014512 eV
  Three-body potentials      =           0.44222535 eV
  Monopole - monopole (real) =       -6613.41313262 eV
  Monopole - monopole (recip)=       -3171.16738974 eV
  Monopole - monopole (total)=       -9784.58052236 eV
  Neutralising energy        =          -6.45965893 eV
--------------------------------------------------------------------------------
  Total lattice energy       =       -7726.99781082 eV
--------------------------------------------------------------------------------
  Total lattice energy       =         -745537.1708 kJ/(mole unit cells)
--------------------------------------------------------------------------------


  Number of variables =      939

  Maximum number of calculations  =          5000
  Maximum Hessian update interval =            10
  Maximum step size               =   0.100000000
  Maximum parameter tolerance     =   0.000010000
  Maximum function  tolerance     =   0.000010000
  Maximum gradient  tolerance     =   0.001000000
  Maximum gradient  component     =   0.010000000

  Symmetry not applied to optimisation

  Cell parameters to be optimised using strains

  Newton-Raphson optimiser to be used

  BFGS hessian update to be used

  Dumpfile to be written after every cycle

  Start of bulk optimisation :

  Cycle:      0 Energy:     -7726.997811  Gnorm:      0.004679  CPU:    2.008
  ** Hessian calculated **
  Cycle:      1 Energy:     -7727.024419  Gnorm:      0.004119  CPU:    6.701
  Cycle:      2 Energy:     -7727.055873  Gnorm:      0.003338  CPU:   11.016
  Cycle:      3 Energy:     -7727.089482  Gnorm:      0.002407  CPU:   15.330
  Cycle:      4 Energy:     -7727.107527  Gnorm:      0.001779  CPU:   19.641
  Cycle:      5 Energy:     -7727.111800  Gnorm:      0.001154  CPU:   23.952
  Cycle:      6 Energy:     -7727.112862  Gnorm:      0.000663  CPU:   28.263
  Cycle:      7 Energy:     -7727.113130  Gnorm:      0.000360  CPU:   32.575
  Cycle:      8 Energy:     -7727.113198  Gnorm:      0.000191  CPU:   36.886
  Cycle:      9 Energy:     -7727.113210  Gnorm:      0.000135  CPU:   39.790
  Cycle:     10 Energy:     -7727.113216  Gnorm:      0.000095  CPU:   42.695
  ** Hessian calculated **
  Cycle:     11 Energy:     -7727.113216  Gnorm:      0.000054  CPU:   47.288
  Cycle:     12 Energy:     -7727.113216  Gnorm:      0.000039  CPU:   50.192
  Cycle:     13 Energy:     -7727.113216  Gnorm:      0.000030  CPU:   53.096


  **** Optimisation achieved ****


  Final energy =   -7727.11321572 eV
  Final Gnorm  =       0.00002504

  Components of energy : 

--------------------------------------------------------------------------------
  Interatomic potentials     =        2063.93192799 eV
  Three-body potentials      =           0.45230708 eV
  Monopole - monopole (real) =       -6614.09479303 eV
  Monopole - monopole (recip)=       -3170.94344853 eV
  Monopole - monopole (total)=       -9785.03824156 eV
  Neutralising energy        =          -6.45920924 eV
--------------------------------------------------------------------------------
  Total lattice energy       =       -7727.11321572 eV
--------------------------------------------------------------------------------
  Total lattice energy       =         -745548.3056 kJ/(mole unit cells)
--------------------------------------------------------------------------------

  Final fractional coordinates of atoms :

--------------------------------------------------------------------------------
   No.  Atomic        x           y          z          Radius
        Label       (Frac)      (Frac)     (Frac)       (Angs) 
--------------------------------------------------------------------------------
     1  Ge    c     0.699600    0.375700    0.033890    0.000000
     2  Ge    c     0.592804    0.313943    0.367657    0.000000
     3  Si    c     0.667365    0.284234    0.698390    0.000000
     4  Si    c     0.278975    0.599796    0.529748    0.000000
     5  Si    c     0.367751    0.660523    0.860253    0.000000
     6  Si    c     0.305732    0.688164    0.197548    0.000000
     7  Si    c     0.355045    0.682972    0.297388    0.000000
     8  Si    c     0.308252    0.610663    0.960250    0.000000
     9  Si    c     0.290201    0.662542    0.629991    0.000000
    10  Si    c     0.610407    0.281599    0.798973    0.000000
    11  Si    c     0.664621    0.353811    0.465681    0.000000
    12  Si    c     0.665628    0.305349    0.131876    0.000000
    13  Si    c     0.521348    0.408403    0.966408    0.000000
    14  Si    c     0.555797    0.098135    0.301401    0.000000
    15  Si    c     0.879185    0.458571    0.635069    0.000000
    16  Si    c     0.448677    0.559546    0.463051    0.000000
    17  Si    c     0.407451    0.870253    0.795715    0.000000
    18  Ge    c     0.092212    0.524615    0.129920    0.000000
    19  Si    c     0.393213    0.506240    0.360020    0.000000
    20  Si    c     0.094931    0.574888    0.024642    0.000000
    21  Si    c     0.463579    0.875468    0.694012    0.000000
    22  Si    c     0.572825    0.456201    0.863749    0.000000
    23  Si    c     0.873196    0.401075    0.533553    0.000000
    24  Si    c     0.503374    0.094716    0.198679    0.000000
    25  Si    c     0.292052    0.383847    0.847175    0.000000
    26  Si    c     0.580579    0.889849    0.182373    0.000000
    27  Si    c     0.078792    0.678955    0.516285    0.000000
    28  Si    c     0.681959    0.583484    0.343770    0.000000
    29  Si    c     0.391149    0.083526    0.681263    0.000000
    30  Si    c     0.882026    0.285932    0.009989    0.000000
    31  Si    c     0.378793    0.275387    0.476176    0.000000
    32  Si    c     0.868803    0.590876    0.143421    0.000000
    33  Si    c     0.688092    0.080014    0.811563    0.000000
    34  Si    c     0.586776    0.689664    0.976902    0.000000
    35  Si    c     0.089921    0.386257    0.646861    0.000000
    36  Si    c     0.273986    0.881103    0.311669    0.000000
    37  Si    c     0.241408    0.331440    0.947721    0.000000
    38  Si    c     0.634160    0.896137    0.283285    0.000000
    39  Si    c     0.079605    0.735099    0.617215    0.000000
    40  Si    c     0.730718    0.636626    0.447117    0.000000
    41  Si    c     0.330267    0.072079    0.781828    0.000000
    42  Si    c     0.884972    0.238585    0.113231    0.000000
    43  Si    c     0.309676    0.222328    0.373812    0.000000
    44  Si    c     0.890605    0.656597    0.040295    0.000000
    45  Si    c     0.741163    0.076916    0.710753    0.000000
    46  Si    c     0.648560    0.734551    0.876243    0.000000
    47  Si    c     0.073908    0.321232    0.546190    0.000000
    48  Si    c     0.223727    0.888568    0.210748    0.000000
    49  Si    c     0.963505    0.112209    0.961787    0.000000
    50  Si    c     0.852978    0.836710    0.295996    0.000000
    51  Si    c     0.143050    0.015369    0.630628    0.000000
    52  Si    c     0.007699    0.855788    0.464903    0.000000
    53  Si    c     0.112347    0.134405    0.796680    0.000000
    54  Si    c     0.827905    0.961945    0.130029    0.000000
    55  Si    c     0.091128    0.946809    0.363195    0.000000
    56  Si    c     0.834293    0.875216    0.028231    0.000000
    57  Si    c     0.021910    0.138789    0.695892    0.000000
    58  Si    c     0.868475    0.011773    0.861669    0.000000
    59  Si    c     0.132248    0.100460    0.529470    0.000000
    60  Si    c     0.946322    0.839890    0.194861    0.000000
    61  O2    c     0.917055    0.997843    0.997290    0.000000
    62  O2    c     0.968202    0.904679    0.331668    0.000000
    63  O2    c     0.063143    0.060128    0.662114    0.000000
    64  O2    c     0.047178    0.977648    0.497532    0.000000
    65  O2    c     0.989320    0.054222    0.828471    0.000000
    66  O2    c     0.913937    0.927413    0.162668    0.000000
    67  O2    c     0.318089    0.559551    0.329438    0.000000
    68  O2    c     0.416125    0.750422    0.661040    0.000000
    69  O2    c     0.218548    0.648125    0.991390    0.000000
    70  O2    c     0.648991    0.403361    0.832228    0.000000
    71  O2    c     0.553982    0.223406    0.168728    0.000000
    72  O2    c     0.743124    0.323309    0.503550    0.000000
    73  O3    c     0.563500    0.333337    0.998700    0.000000
    74  O2    c     0.754629    0.410711    0.667727    0.000000
    75  O3    c     0.633166    0.217479    0.333051    0.000000
    76  O2    c     0.400146    0.635302    0.495759    0.000000
    77  O3    c     0.222516    0.566442    0.164826    0.000000
    78  O2    c     0.329851    0.743966    0.826791    0.000000
    79  O2    c     0.117150    0.203308    0.967675    0.000000
    80  O2    c     0.762819    0.900028    0.303243    0.000000
    81  O2    c     0.080973    0.862189    0.637108    0.000000
    82  O2    c     0.853265    0.762286    0.469015    0.000000
    83  O2    c     0.202545    0.070129    0.801878    0.000000
    84  O2    c     0.884098    0.114171    0.134552    0.000000
    85  O2    c     0.172808    0.100711    0.358228    0.000000
    86  O2    c     0.906153    0.792263    0.023884    0.000000
    87  O2    c     0.867969    0.077856    0.690120    0.000000
    88  O2    c     0.776982    0.858319    0.856216    0.000000
    89  O2    c     0.069920    0.192631    0.526206    0.000000
    90  O2    c     0.098961    0.890791    0.190020    0.000000
    91  O2    c     0.910975    0.857468    0.245867    0.000000
    92  O2    c     0.127987    0.049692    0.579539    0.000000
    93  O2    c     0.924170    0.051043    0.912035    0.000000
    94  O2    c     0.060449    0.121721    0.745924    0.000000
    95  O2    c     0.839815    0.922442    0.079404    0.000000
    96  O2    c     0.045295    0.906514    0.414357    0.000000
    97  O2    c     0.895163    0.196251    0.971568    0.000000
    98  O2    c     0.769600    0.685112    0.305414    0.000000
    99  O2    c     0.295004    0.085938    0.642584    0.000000
   100  O2    c     0.078402    0.775410    0.477891    0.000000
   101  O2    c     0.194742    0.285239    0.808781    0.000000
   102  O2    c     0.677206    0.888824    0.143752    0.000000
   103  O2    c     0.174805    0.879748    0.349886    0.000000
   104  O2    c     0.683627    0.791620    0.014753    0.000000
   105  O2    c     0.092993    0.290788    0.684926    0.000000
   106  O2    c     0.785333    0.080705    0.850131    0.000000
   107  O2    c     0.282004    0.180809    0.514690    0.000000
   108  O2    c     0.865446    0.689657    0.181030    0.000000
   109  O2    c     0.301668    0.624493    0.246866    0.000000
   110  O2    c     0.343217    0.660758    0.578927    0.000000
   111  O2    c     0.306929    0.664357    0.909652    0.000000
   112  O2    c     0.666469    0.339735    0.748857    0.000000
   113  O3    c     0.604103    0.296902    0.083536    0.000000
   114  O3    c     0.671797    0.297797    0.417632    0.000000
   115  O2    c     0.363425    0.323689    0.966354    0.000000
   116  O2    c     0.641429    0.025888    0.301314    0.000000
   117  O2    c     0.948256    0.614486    0.636587    0.000000
   118  O2    c     0.604733    0.642627    0.464195    0.000000
   119  O2    c     0.319822    0.939227    0.798760    0.000000
   120  O3    c     0.017066    0.358379    0.129596    0.000000
   121  O2    c     0.305829    0.351008    0.358249    0.000000
   122  O2    c     0.022279    0.658796    0.023786    0.000000
   123  O2    c     0.620238    0.945292    0.691060    0.000000
   124  O2    c     0.658911    0.611515    0.858737    0.000000
   125  O2    c     0.941353    0.313020    0.528635    0.000000
   126  O2    c     0.346823    0.020601    0.193141    0.000000
   127  O3    c     0.750556    0.282746    0.000775    0.000000
   128  O3    c     0.688026    0.456911    0.335052    0.000000
   129  O2    c     0.525482    0.217429    0.674465    0.000000
   130  O2    c     0.210565    0.674153    0.507014    0.000000
   131  O2    c     0.293474    0.517480    0.837449    0.000000
   132  O2    c     0.447062    0.756715    0.173250    0.000000
   133  O2    c     0.274868    0.747420    0.319144    0.000000
   134  O2    c     0.451173    0.689580    0.983238    0.000000
   135  O2    c     0.224780    0.520359    0.652404    0.000000
   136  O2    c     0.685936    0.212392    0.819978    0.000000
   137  O2    c     0.514389    0.279213    0.483739    0.000000
   138  O2    c     0.736331    0.455531    0.149776    0.000000
   139  O3    c     0.764949    0.542596    0.018862    0.000000
   140  O3    c     0.424272    0.212387    0.351667    0.000000
   141  O2    c     0.743835    0.204464    0.692168    0.000000
   142  O2    c     0.200585    0.443718    0.525385    0.000000
   143  O2    c     0.524583    0.736836    0.855483    0.000000
   144  O2    c     0.220372    0.760611    0.190488    0.000000
   145  O2    c     0.510891    0.768046    0.302949    0.000000
   146  O2    c     0.235461    0.455609    0.966560    0.000000
   147  O2    c     0.206606    0.735024    0.635554    0.000000
   148  O2    c     0.454207    0.197098    0.802705    0.000000
   149  O2    c     0.727565    0.510215    0.466175    0.000000
   150  O2    c     0.763485    0.246995    0.133371    0.000000
   151  O2    c     0.219565    0.312220    0.893395    0.000000
   152  O2    c     0.652439    0.891555    0.229020    0.000000
   153  O2    c     0.078535    0.751328    0.562806    0.000000
   154  O2    c     0.745685    0.650497    0.392735    0.000000
   155  O2    c     0.314553    0.077231    0.727462    0.000000
   156  O2    c     0.881317    0.221395    0.058692    0.000000
   157  O2    c     0.308334    0.209802    0.429050    0.000000
   158  O2    c     0.880932    0.660390    0.095614    0.000000
   159  O2    c     0.759532    0.077022    0.765043    0.000000
   160  O2    c     0.663401    0.756550    0.930535    0.000000
   161  O2    c     0.079859    0.308140    0.600461    0.000000
   162  O2    c     0.203768    0.885323    0.265180    0.000000
   163  O2    c     0.570409    0.551671    0.987398    0.000000
   164  O2    c     0.412668    0.003291    0.321949    0.000000
   165  O2    c     0.967505    0.405023    0.657019    0.000000
   166  O2    c     0.398357    0.417440    0.482618    0.000000
   167  O2    c     0.548390    0.954948    0.819070    0.000000
   168  O3    c     0.990092    0.572899    0.152905    0.000000
   169  O2    c     0.534976    0.557878    0.338664    0.000000
   170  O2    c     0.005365    0.430307    0.005759    0.000000
   171  O2    c     0.405120    0.958483    0.671099    0.000000
   172  O2    c     0.431667    0.395871    0.839876    0.000000
   173  O2    c     0.951549    0.540068    0.508923    0.000000
   174  O2    c     0.566931    0.015946    0.175223    0.000000
   175  O2    c     0.548957    0.143572    0.249946    0.000000
   176  O2    c     0.823939    0.402808    0.584681    0.000000
   177  O2    c     0.574901    0.410841    0.914943    0.000000
   178  O2    c     0.409685    0.820433    0.744335    0.000000
   179  O3    c     0.144419    0.578982    0.075619    0.000000
   180  O2    c     0.398495    0.555601    0.411870    0.000000
   181  F     c     0.418135    0.873367    0.244807    0.000000
   182  F     c     0.085813    0.531863    0.579826    0.000000
   183  F     c     0.436696    0.540308    0.910609    0.000000
   184  F     c     0.539537    0.081801    0.744951    0.000000
   185  F     c     0.845764    0.430686    0.070323    0.000000
   186  F     c     0.538117    0.404689    0.403599    0.000000
   187  O2    s     0.912863    0.996835    0.996789    0.000000
   188  O2    s     0.969170    0.901715    0.331214    0.000000
   189  O2    s     0.067583    0.063853    0.662323    0.000000
   190  O2    s     0.052159    0.977696    0.497444    0.000000
   191  O2    s     0.989618    0.058484    0.828613    0.000000
   192  O2    s     0.908132    0.921531    0.162661    0.000000
   193  O2    s     0.329745    0.566409    0.329418    0.000000
   194  O2    s     0.407833    0.753941    0.661137    0.000000
   195  O2    s     0.214746    0.636736    0.991705    0.000000
   196  O2    s     0.637225    0.395980    0.831933    0.000000
   197  O2    s     0.560266    0.218494    0.168022    0.000000
   198  O2    s     0.748507    0.334664    0.502703    0.000000
   199  O3    s     0.568333    0.344610    0.997590    0.000000
   200  O2    s     0.758849    0.402933    0.667415    0.000000
   201  O3    s     0.621761    0.211076    0.331990    0.000000
   202  O2    s     0.393186    0.623619    0.495673    0.000000
   203  O3    s     0.219820    0.574668    0.165100    0.000000
   204  O2    s     0.341821    0.748762    0.826925    0.000000
   205  O2    s     0.113181    0.206498    0.965033    0.000000
   206  O2    s     0.759341    0.892773    0.300426    0.000000
   207  O2    s     0.087382    0.865131    0.634376    0.000000
   208  O2    s     0.856791    0.759051    0.466318    0.000000
   209  O2    s     0.206208    0.077175    0.799264    0.000000
   210  O2    s     0.878059    0.110549    0.131861    0.000000
   211  O2    s     0.178244    0.096869    0.360363    0.000000
   212  O2    s     0.896818    0.787182    0.026038    0.000000
   213  O2    s     0.871333    0.084289    0.692842    0.000000
   214  O2    s     0.773616    0.862029    0.858815    0.000000
   215  O2    s     0.076965    0.196030    0.528583    0.000000
   216  O2    s     0.095552    0.885104    0.192658    0.000000
   217  O2    s     0.908400    0.853185    0.245824    0.000000
   218  O2    s     0.130148    0.051649    0.579541    0.000000
   219  O2    s     0.922326    0.053491    0.911955    0.000000
   220  O2    s     0.061857    0.125109    0.745882    0.000000
   221  O2    s     0.837818    0.921690    0.079487    0.000000
   222  O2    s     0.046129    0.905219    0.414403    0.000000
   223  O2    s     0.901279    0.196534    0.974542    0.000000
   224  O2    s     0.769371    0.690829    0.308446    0.000000
   225  O2    s     0.288477    0.078181    0.645192    0.000000
   226  O2    s     0.070956    0.774136    0.480418    0.000000
   227  O2    s     0.195775    0.279036    0.811381    0.000000
   228  O2    s     0.683322    0.896743    0.146284    0.000000
   229  O2    s     0.175919    0.887099    0.347407    0.000000
   230  O2    s     0.689912    0.790260    0.012370    0.000000
   231  O2    s     0.085265    0.284729    0.682156    0.000000
   232  O2    s     0.784149    0.073335    0.847393    0.000000
   233  O2    s     0.276137    0.182134    0.512228    0.000000
   234  O2    s     0.874305    0.695629    0.178718    0.000000
   235  O2    s     0.307576    0.636919    0.247102    0.000000
   236  O2    s     0.331237    0.654661    0.579031    0.000000
   237  O2    s     0.313222    0.658488    0.909806    0.000000
   238  O2    s     0.660823    0.328031    0.748731    0.000000
   239  O3    s     0.616754    0.302892    0.085361    0.000000
   240  O3    s     0.665980    0.304741    0.419467    0.000000
   241  O2    s     0.365562    0.332987    0.964273    0.000000
   242  O2    s     0.632093    0.018587    0.299299    0.000000
   243  O2    s     0.954913    0.611106    0.634393    0.000000
   244  O2    s     0.601521    0.633259    0.462279    0.000000
   245  O2    s     0.329947    0.946147    0.796646    0.000000
   246  O3    s     0.009424    0.359220    0.127933    0.000000
   247  O2    s     0.315313    0.354422    0.359986    0.000000
   248  O2    s     0.016461    0.649884    0.025545    0.000000
   249  O2    s     0.616692    0.951811    0.693421    0.000000
   250  O2    s     0.649018    0.608506    0.861082    0.000000
   251  O2    s     0.948311    0.322928    0.530987    0.000000
   252  O2    s     0.349937    0.014343    0.195546    0.000000
   253  O3    s     0.761272    0.289338    0.004042    0.000000
   254  O3    s     0.681102    0.461029    0.338192    0.000000
   255  O2    s     0.525926    0.210250    0.677644    0.000000
   256  O2    s     0.203842    0.667019    0.510340    0.000000
   257  O2    s     0.300919    0.518148    0.840824    0.000000
   258  O2    s     0.446698    0.763784    0.176731    0.000000
   259  O2    s     0.282967    0.754542    0.316113    0.000000
   260  O2    s     0.450531    0.681572    0.980223    0.000000
   261  O2    s     0.217331    0.520843    0.649489    0.000000
   262  O2    s     0.678376    0.205528    0.816888    0.000000
   263  O2    s     0.514361    0.286027    0.481142    0.000000
   264  O2    s     0.743416    0.455337    0.147364    0.000000
   265  O3    s     0.774465    0.544100    0.022126    0.000000
   266  O3    s     0.422484    0.220022    0.355034    0.000000
   267  O2    s     0.735542    0.198945    0.694771    0.000000
   268  O2    s     0.195127    0.446743    0.528015    0.000000
   269  O2    s     0.521791    0.728649    0.858178    0.000000
   270  O2    s     0.228864    0.766911    0.193188    0.000000
   271  O2    s     0.507680    0.772760    0.300321    0.000000
   272  O2    s     0.243641    0.458466    0.963952    0.000000
   273  O2    s     0.201396    0.727349    0.632998    0.000000
   274  O2    s     0.457140    0.192277    0.800064    0.000000
   275  O2    s     0.721538    0.508580    0.464012    0.000000
   276  O2    s     0.766754    0.252082    0.131052    0.000000
   277  O2    s     0.229457    0.321790    0.894216    0.000000
   278  O2    s     0.642929    0.891809    0.229815    0.000000
   279  O2    s     0.078676    0.741967    0.563627    0.000000
   280  O2    s     0.737848    0.642439    0.393720    0.000000
   281  O2    s     0.324254    0.077354    0.728303    0.000000
   282  O2    s     0.881732    0.229580    0.059590    0.000000
   283  O2    s     0.316177    0.218182    0.428665    0.000000
   284  O2    s     0.880567    0.652535    0.095222    0.000000
   285  O2    s     0.750142    0.077317    0.764121    0.000000
   286  O2    s     0.653847    0.747265    0.929594    0.000000
   287  O2    s     0.080264    0.317663    0.599488    0.000000
   288  O2    s     0.213141    0.885206    0.264279    0.000000
   289  O2    s     0.567026    0.552607    0.984096    0.000000
   290  O2    s     0.411843    0.999131    0.318693    0.000000
   291  O2    s     0.971654    0.408803    0.653610    0.000000
   292  O2    s     0.401766    0.417412    0.479817    0.000000
   293  O2    s     0.548770    0.959816    0.815799    0.000000
   294  O3    s     0.985954    0.570674    0.150034    0.000000
   295  O2    s     0.534632    0.554730    0.341499    0.000000
   296  O2    s     0.002134    0.430987    0.008238    0.000000
   297  O2    s     0.409859    0.963406    0.674562    0.000000
   298  O2    s     0.431233    0.400978    0.843128    0.000000
   299  O2    s     0.957242    0.540623    0.512236    0.000000
   300  O2    s     0.561700    0.010509    0.178393    0.000000
   301  O2    s     0.544660    0.133646    0.249605    0.000000
   302  O2    s     0.834982    0.408461    0.584519    0.000000
   303  O2    s     0.569385    0.415532    0.914528    0.000000
   304  O2    s     0.415090    0.831336    0.744372    0.000000
   305  O3    s     0.135413    0.574215    0.075061    0.000000
   306  O2    s     0.403260    0.550911    0.411936    0.000000
   307  F     s     0.416918    0.871382    0.244450    0.000000
   308  F     s     0.086433    0.532049    0.579596    0.000000
   309  F     s     0.436034    0.540973    0.910410    0.000000
   310  F     s     0.539782    0.082252    0.744766    0.000000
   311  F     s     0.835533    0.426958    0.067846    0.000000
   312  F     s     0.542123    0.397696    0.400940    0.000000
--------------------------------------------------------------------------------

  Final Cartesian lattice vectors (Angstroms) :

       11.928676    0.007363    0.004591
       -5.973778   10.404936   -0.003918
        0.089258   -0.235750   29.463429


  Final cell parameters and derivatives :

--------------------------------------------------------------------------------
       a           11.928679 Angstrom     dE/de1(xx)     0.000130 eV/strain
       b           11.997863 Angstrom     dE/de2(yy)     0.000368 eV/strain
       c           29.464507 Angstrom     dE/de3(zz)     0.001489 eV/strain
       alpha       90.502702 Degrees      dE/de4(yz)     0.000452 eV/strain
       beta        89.804661 Degrees      dE/de5(xz)    -0.000179 eV/strain
       gamma      119.826029 Degrees      dE/de6(xy)     0.000254 eV/strain
--------------------------------------------------------------------------------

  Primitive cell volume =          3658.202780 Angs**3

  Density of cell =      1.748971 g/cm**3

  Non-primitive cell volume =          3658.202780 Angs**3


  Final internal derivatives :

--------------------------------------------------------------------------------
   No.  Atomic          a             b             c           Radius
        Label          (eV)          (eV)          (eV)        (eV/Angs)
--------------------------------------------------------------------------------
      1 Ge    c       0.000000      0.000000      0.000000      0.000000
      2 Ge    c      -0.000265      0.000221      0.000642      0.000000
      3 Si    c      -0.000250      0.000179      0.000485      0.000000
      4 Si    c       0.000651      0.000112     -0.000433      0.000000
      5 Si    c       0.000178     -0.000017      0.000329      0.000000
      6 Si    c      -0.000148     -0.001911     -0.002882      0.000000
      7 Si    c       0.000829      0.000685     -0.000178      0.000000
      8 Si    c       0.000554     -0.000136      0.000104      0.000000
      9 Si    c       0.000109     -0.000031      0.000351      0.000000
     10 Si    c      -0.000051      0.000386     -0.000183      0.000000
     11 Si    c      -0.000083     -0.000196     -0.000151      0.000000
     12 Si    c       0.001768      0.001071      0.008044      0.000000
     13 Si    c      -0.000437     -0.000769     -0.000092      0.000000
     14 Si    c       0.000427      0.000183      0.000077      0.000000
     15 Si    c      -0.000290     -0.000137     -0.000308      0.000000
     16 Si    c       0.000308      0.000108     -0.000245      0.000000
     17 Si    c       0.000056     -0.000016     -0.000313      0.000000
     18 Ge    c       0.000333     -0.000516     -0.001175      0.000000
     19 Si    c       0.000249      0.000368      0.000304      0.000000
     20 Si    c       0.000975     -0.000186     -0.001030      0.000000
     21 Si    c      -0.000214     -0.000209      0.000471      0.000000
     22 Si    c      -0.000158      0.000049      0.000304      0.000000
     23 Si    c      -0.000204      0.000098      0.000042      0.000000
     24 Si    c      -0.000202     -0.000526      0.001285      0.000000
     25 Si    c      -0.000037     -0.000019      0.000411      0.000000
     26 Si    c       0.000022      0.000103      0.002006      0.000000
     27 Si    c       0.000043     -0.000032      0.000773      0.000000
     28 Si    c       0.000115      0.000415      0.000802      0.000000
     29 Si    c      -0.000260      0.000095      0.000559      0.000000
     30 Si    c       0.002094      0.000199     -0.001549      0.000000
     31 Si    c      -0.000161     -0.000024     -0.000479      0.000000
     32 Si    c       0.000553      0.000376     -0.000452      0.000000
     33 Si    c      -0.000007      0.000018     -0.000188      0.000000
     34 Si    c       0.000094     -0.000042     -0.000190      0.000000
     35 Si    c      -0.000070     -0.000221     -0.000257      0.000000
     36 Si    c       0.000583      0.000457     -0.000721      0.000000
     37 Si    c      -0.000046      0.000007     -0.000229      0.000000
     38 Si    c       0.000010      0.000017     -0.000407      0.000000
     39 Si    c      -0.000179      0.000021     -0.000123      0.000000
     40 Si    c       0.000276      0.000220     -0.000238      0.000000
     41 Si    c      -0.000023      0.000220     -0.000353      0.000000
     42 Si    c       0.001037     -0.000410     -0.000686      0.000000
     43 Si    c      -0.000016      0.000193      0.000384      0.000000
     44 Si    c       0.000294     -0.000204     -0.003052      0.000000
     45 Si    c      -0.000183     -0.000134      0.000492      0.000000
     46 Si    c      -0.000099      0.000286      0.000562      0.000000
     47 Si    c       0.000105      0.000173      0.000276      0.000000
     48 Si    c       0.000786      0.000541      0.001416      0.000000
     49 Si    c      -0.000321      0.000073     -0.000018      0.000000
     50 Si    c      -0.000023      0.000436     -0.000488      0.000000
     51 Si    c      -0.000224      0.000003      0.000673      0.000000
     52 Si    c       0.000148      0.000140      0.000722      0.000000
     53 Si    c      -0.000053      0.000264     -0.000086      0.000000
     54 Si    c      -0.000202     -0.000018      0.000111      0.000000
     55 Si    c       0.000465      0.000043      0.000114      0.000000
     56 Si    c      -0.000429      0.000312     -0.000010      0.000000
     57 Si    c      -0.000209     -0.000211      0.000190      0.000000
     58 Si    c      -0.000064      0.000411      0.000206      0.000000
     59 Si    c       0.000033      0.000399      0.000022      0.000000
     60 Si    c       0.000413     -0.000354      0.000176      0.000000
     61 O2    c      -0.000618      0.000416      0.000019      0.000000
     62 O2    c      -0.000170      0.000438     -0.000418      0.000000
     63 O2    c      -0.000499     -0.000265      0.000343      0.000000
     64 O2    c      -0.000219     -0.000087     -0.000645      0.000000
     65 O2    c       0.000040      0.000374      0.000278      0.000000
     66 O2    c       0.000129     -0.000243      0.000703      0.000000
     67 O2    c       0.000288      0.000245     -0.000478      0.000000
     68 O2    c      -0.000132      0.000039      0.000399      0.000000
     69 O2    c       0.001186      0.000025      0.000246      0.000000
     70 O2    c      -0.000004      0.000252     -0.000433      0.000000
     71 O2    c      -0.000386     -0.000305      0.002261      0.000000
     72 O2    c      -0.000011     -0.000102      0.000210      0.000000
     73 O3    c       0.000297     -0.000762      0.000974      0.000000
     74 O2    c      -0.000086      0.000024     -0.000196      0.000000
     75 O3    c       0.000172      0.000566     -0.000077      0.000000
     76 O2    c       0.000612      0.000134     -0.000032      0.000000
     77 O3    c       0.000550     -0.001368     -0.002178      0.000000
     78 O2    c       0.000060      0.000089      0.000050      0.000000
     79 O2    c      -0.000276      0.000097     -0.000048      0.000000
     80 O2    c       0.000118      0.000722      0.000177      0.000000
     81 O2    c      -0.000080     -0.000179     -0.000085      0.000000
     82 O2    c      -0.000017     -0.000034      0.000111      0.000000
     83 O2    c      -0.000038      0.000050     -0.000187      0.000000
     84 O2    c       0.000296      0.000086      0.000245      0.000000
     85 O2    c       0.000151      0.000920      0.000319      0.000000
     86 O2    c       0.001160      0.000300     -0.001297      0.000000
     87 O2    c      -0.000366     -0.000078      0.000404      0.000000
     88 O2    c      -0.000123      0.000466      0.000364      0.000000
     89 O2    c      -0.000139      0.000479      0.000121      0.000000
     90 O2    c       0.001345      0.000133      0.000773      0.000000
     91 O2    c       0.000304      0.000115     -0.002092      0.000000
     92 O2    c      -0.000516     -0.000160      0.001766      0.000000
     93 O2    c      -0.000439      0.000458      0.000369      0.000000
     94 O2    c      -0.000317     -0.000104      0.000152      0.000000
     95 O2    c      -0.000624     -0.000295     -0.001408      0.000000
     96 O2    c      -0.000325     -0.000034      0.001212      0.000000
     97 O2    c       0.000696     -0.000017     -0.000106      0.000000
     98 O2    c      -0.000114     -0.000098      0.000479      0.000000
     99 O2    c      -0.000191      0.000092      0.000474      0.000000
    100 O2    c       0.000439      0.000109      0.000295      0.000000
    101 O2    c       0.000127      0.000212      0.000111      0.000000
    102 O2    c      -0.000713     -0.000089      0.001014      0.000000
    103 O2    c       0.001205     -0.000440     -0.000673      0.000000
    104 O2    c      -0.000225     -0.000321     -0.000189      0.000000
    105 O2    c      -0.000133     -0.000234     -0.000126      0.000000
    106 O2    c       0.000078      0.000271     -0.000267      0.000000
    107 O2    c       0.000371      0.000244      0.000057      0.000000
    108 O2    c       0.000537     -0.000562      0.000149      0.000000
    109 O2    c       0.000036      0.000461      0.000276      0.000000
    110 O2    c       0.000136      0.000240      0.000239      0.000000
    111 O2    c       0.000577     -0.000017     -0.000096      0.000000
    112 O2    c      -0.000001      0.000102     -0.000198      0.000000
    113 O3    c      -0.001644     -0.001365      0.005620      0.000000
    114 O3    c      -0.000287     -0.000069      0.001166      0.000000
    115 O2    c      -0.000251     -0.000201     -0.000068      0.000000
    116 O2    c       0.000452      0.000423      0.000045      0.000000
    117 O2    c      -0.000023     -0.000127     -0.000175      0.000000
    118 O2    c       0.000281      0.000037     -0.000127      0.000000
    119 O2    c      -0.000086      0.000068     -0.000057      0.000000
    120 O3    c       0.000980     -0.000499      0.000023      0.000000
    121 O2    c       0.000368      0.000418      0.000293      0.000000
    122 O2    c       0.001659      0.000982     -0.001183      0.000000
    123 O2    c      -0.000342      0.000062      0.000454      0.000000
    124 O2    c      -0.000012      0.000231      0.000214      0.000000
    125 O2    c      -0.000065      0.000047     -0.000046      0.000000
    126 O2    c       0.000041      0.000607     -0.000078      0.000000
    127 O3    c       0.001467     -0.000626     -0.001219      0.000000
    128 O3    c      -0.000190      0.000453      0.000606      0.000000
    129 O2    c      -0.000220      0.000008      0.000371      0.000000
    130 O2    c       0.000368      0.000209      0.000376      0.000000
    131 O2    c       0.000122      0.000283      0.000588      0.000000
    132 O2    c       0.000095      0.000064      0.001265      0.000000
    133 O2    c       0.000110      0.000157      0.000810      0.000000
    134 O2    c       0.000686     -0.000360     -0.000054      0.000000
    135 O2    c      -0.000175     -0.000155     -0.000065      0.000000
    136 O2    c      -0.000024      0.000137     -0.000233      0.000000
    137 O2    c      -0.000121     -0.000044     -0.000057      0.000000
    138 O2    c       0.000514      0.000528      0.000667      0.000000
    139 O3    c      -0.000880     -0.000241     -0.000806      0.000000
    140 O3    c      -0.000146      0.000173      0.000999      0.000000
    141 O2    c      -0.000247      0.000041      0.000316      0.000000
    142 O2    c       0.000161      0.000320      0.000259      0.000000
    143 O2    c       0.000147      0.000139      0.000523      0.000000
    144 O2    c       0.000744     -0.000175      0.001360      0.000000
    145 O2    c       0.000620     -0.000082      0.000452      0.000000
    146 O2    c       0.000227     -0.000213     -0.000057      0.000000
    147 O2    c       0.000084      0.000201      0.000044      0.000000
    148 O2    c      -0.000033      0.000069     -0.000407      0.000000
    149 O2    c      -0.000029     -0.000220     -0.000196      0.000000
    150 O2    c       0.000397     -0.000876      0.000424      0.000000
    151 O2    c      -0.000099     -0.000088      0.000083      0.000000
    152 O2    c       0.000674      0.000056      0.000862      0.000000
    153 O2    c       0.000164      0.000273     -0.000173      0.000000
    154 O2    c       0.000196      0.000254      0.000171      0.000000
    155 O2    c      -0.000096      0.000057      0.000189      0.000000
    156 O2    c       0.000525     -0.000387     -0.000036      0.000000
    157 O2    c      -0.000188     -0.000059      0.000335      0.000000
    158 O2    c       0.001132      0.001605      0.005669      0.000000
    159 O2    c      -0.000215      0.000111      0.000071      0.000000
    160 O2    c       0.000074      0.000099     -0.000047      0.000000
    161 O2    c      -0.000101     -0.000205      0.000098      0.000000
    162 O2    c      -0.000378      0.000472      0.000381      0.000000
    163 O2    c       0.000259     -0.000612     -0.000382      0.000000
    164 O2    c       0.000327      0.000214     -0.000220      0.000000
    165 O2    c      -0.000422     -0.000496      0.000101      0.000000
    166 O2    c       0.000030      0.000010     -0.000188      0.000000
    167 O2    c      -0.000060      0.000034     -0.000251      0.000000
    168 O3    c       0.001594      0.000142      0.000031      0.000000
    169 O2    c       0.000193      0.000403      0.000482      0.000000
    170 O2    c       0.001403     -0.000027     -0.000401      0.000000
    171 O2    c      -0.000445     -0.000052      0.000401      0.000000
    172 O2    c      -0.000023      0.000063      0.000225      0.000000
    173 O2    c       0.000005      0.000229      0.000094      0.000000
    174 O2    c       0.000618      0.000803     -0.000946      0.000000
    175 O2    c       0.000843      0.000361      0.000221      0.000000
    176 O2    c      -0.000285     -0.000248      0.000198      0.000000
    177 O2    c      -0.000236     -0.000298      0.000090      0.000000
    178 O2    c      -0.000301     -0.000067      0.000407      0.000000
    179 O3    c       0.001752      0.000309      0.000438      0.000000
    180 O2    c       0.000322      0.000246     -0.000049      0.000000
    181 F     c       0.000126      0.000265      0.001170      0.000000
    182 F     c      -0.000146      0.000046      0.000255      0.000000
    183 F     c       0.000263     -0.000120      0.000081      0.000000
    184 F     c      -0.000256     -0.000007      0.000081      0.000000
    185 F     c      -0.000604      0.000736     -0.002892      0.000000
    186 F     c       0.000044      0.000031     -0.000124      0.000000
    187 O2    s       0.000017     -0.000223     -0.000848      0.000000
    188 O2    s      -0.000089      0.000541     -0.000440      0.000000
    189 O2    s      -0.000527     -0.000291      0.000780      0.000000
    190 O2    s      -0.000128     -0.000091     -0.000643      0.000000
    191 O2    s       0.000145      0.000501      0.000607      0.000000
    192 O2    s       0.000291     -0.000545      0.000278      0.000000
    193 O2    s       0.000021      0.000689      0.000002      0.000000
    194 O2    s      -0.000397      0.000163      0.000559      0.000000
    195 O2    s       0.000666      0.000452     -0.000109      0.000000
    196 O2    s       0.000074      0.000235     -0.000370      0.000000
    197 O2    s       0.001032      0.000161      0.004330      0.000000
    198 O2    s      -0.000098     -0.000234      0.000026      0.000000
    199 O3    s       0.000865     -0.000151     -0.000701      0.000000
    200 O2    s      -0.000072     -0.000101     -0.000179      0.000000
    201 O3    s      -0.000101      0.000429     -0.000497      0.000000
    202 O2    s       0.000527      0.000344     -0.000165      0.000000
    203 O3    s      -0.000028     -0.000210     -0.001469      0.000000
    204 O2    s      -0.000035      0.000132      0.000032      0.000000
    205 O2    s       0.000133     -0.000544     -0.000624      0.000000
    206 O2    s      -0.000018      0.000819      0.000275      0.000000
    207 O2    s      -0.000091     -0.000156      0.000159      0.000000
    208 O2    s       0.000032     -0.000093      0.000331      0.000000
    209 O2    s      -0.000033      0.000074     -0.000263      0.000000
    210 O2    s       0.000820      0.000295      0.000927      0.000000
    211 O2    s       0.000638      0.000893      0.001037      0.000000
    212 O2    s       0.001220      0.000113     -0.003188      0.000000
    213 O2    s      -0.000344     -0.000130      0.000610      0.000000
    214 O2    s       0.000292      0.000225      0.000705      0.000000
    215 O2    s      -0.000074      0.000405      0.000183      0.000000
    216 O2    s       0.000995     -0.000171      0.000552      0.000000
    217 O2    s       0.000522     -0.000067     -0.001219      0.000000
    218 O2    s      -0.000549     -0.000169      0.001222      0.000000
    219 O2    s      -0.000063      0.000149      0.000218      0.000000
    220 O2    s      -0.000492     -0.000103      0.000145      0.000000
    221 O2    s       0.000164     -0.001343     -0.000901      0.000000
    222 O2    s      -0.000041     -0.000197      0.001084      0.000000
    223 O2    s       0.000729      0.000628     -0.000947      0.000000
    224 O2    s       0.000007     -0.000346      0.000862      0.000000
    225 O2    s      -0.000139      0.000038      0.000744      0.000000
    226 O2    s       0.000508      0.000137      0.000568      0.000000
    227 O2    s       0.000054      0.000181      0.000423      0.000000
    228 O2    s      -0.000465     -0.000183      0.001760      0.000000
    229 O2    s       0.001234     -0.000352     -0.000850      0.000000
    230 O2    s       0.000411     -0.001230     -0.000739      0.000000
    231 O2    s      -0.000341     -0.000159      0.000066      0.000000
    232 O2    s       0.000055      0.000425     -0.000740      0.000000
    233 O2    s       0.000499      0.000250     -0.000328      0.000000
    234 O2    s       0.000986     -0.000597      0.000222      0.000000
    235 O2    s      -0.000577      0.001730     -0.002163      0.000000
    236 O2    s       0.000033      0.000536      0.000032      0.000000
    237 O2    s       0.000567      0.000199     -0.000129      0.000000
    238 O2    s       0.000078      0.000172     -0.000005      0.000000
    239 O3    s       0.000485      0.001546      0.001032      0.000000
    240 O3    s      -0.000416     -0.000253      0.000791      0.000000
    241 O2    s      -0.000045     -0.000837     -0.000643      0.000000
    242 O2    s       0.000363      0.000294     -0.000018      0.000000
    243 O2    s       0.000157     -0.000350     -0.000318      0.000000
    244 O2    s       0.000214      0.000097     -0.000192      0.000000
    245 O2    s      -0.000065      0.000062     -0.000307      0.000000
    246 O3    s       0.000252      0.000558      0.000642      0.000000
    247 O2    s       0.000528      0.000339      0.000946      0.000000
    248 O2    s       0.001288      0.000477     -0.002820      0.000000
    249 O2    s      -0.000589      0.000118      0.000906      0.000000
    250 O2    s       0.000147      0.000198      0.000646      0.000000
    251 O2    s      -0.000055      0.000218      0.000320      0.000000
    252 O2    s       0.000798      0.000254      0.000515      0.000000
    253 O3    s       0.002043      0.000021     -0.002109      0.000000
    254 O3    s       0.000066      0.000334      0.001167      0.000000
    255 O2    s      -0.000158     -0.000045      0.000822      0.000000
    256 O2    s       0.000349      0.000153      0.001123      0.000000
    257 O2    s       0.000129      0.000171      0.000739      0.000000
    258 O2    s      -0.001237      0.000190      0.002826      0.000000
    259 O2    s       0.000522      0.000186      0.000043      0.000000
    260 O2    s       0.000441     -0.000373     -0.000372      0.000000
    261 O2    s      -0.000447      0.000149     -0.000206      0.000000
    262 O2    s      -0.000100      0.000212     -0.000711      0.000000
    263 O2    s      -0.000150     -0.000227     -0.000392      0.000000
    264 O2    s       0.001095     -0.000832      0.002200      0.000000
    265 O3    s      -0.000639      0.000304     -0.003375      0.000000
    266 O3    s       0.000285      0.000143      0.001965      0.000000
    267 O2    s      -0.000383      0.000029      0.000756      0.000000
    268 O2    s       0.000171      0.000723      0.000629      0.000000
    269 O2    s       0.000088      0.000157      0.000651      0.000000
    270 O2    s       0.001825     -0.000119      0.003533      0.000000
    271 O2    s       0.000087      0.000396      0.000712      0.000000
    272 O2    s       0.000272     -0.000100     -0.000506      0.000000
    273 O2    s       0.000079      0.000020     -0.000085      0.000000
    274 O2    s       0.000085      0.000192     -0.000682      0.000000
    275 O2    s       0.000061     -0.000157     -0.000477      0.000000
    276 O2    s       0.000341      0.000031      0.002744      0.000000
    277 O2    s       0.000008     -0.000325      0.000064      0.000000
    278 O2    s       0.000582      0.000296      0.000772      0.000000
    279 O2    s       0.000423      0.000050      0.000166      0.000000
    280 O2    s       0.000519      0.000320      0.000428      0.000000
    281 O2    s      -0.000099      0.000022      0.000286      0.000000
    282 O2    s       0.000633      0.000516      0.000427      0.000000
    283 O2    s      -0.000111     -0.000367      0.000395      0.000000
    284 O2    s       0.001727      0.001630      0.003929      0.000000
    285 O2    s      -0.000474      0.000293     -0.000103      0.000000
    286 O2    s       0.000885     -0.000463     -0.000154      0.000000
    287 O2    s      -0.000384      0.000007      0.000159      0.000000
    288 O2    s       0.000611      0.000130      0.000264      0.000000
    289 O2    s       0.000784     -0.000371     -0.000579      0.000000
    290 O2    s       0.000508      0.000417     -0.000890      0.000000
    291 O2    s      -0.000341     -0.000480     -0.000196      0.000000
    292 O2    s       0.000093      0.000023     -0.000426      0.000000
    293 O2    s      -0.000208      0.000235     -0.000739      0.000000
    294 O3    s       0.001593     -0.000530     -0.000241      0.000000
    295 O2    s       0.000277      0.000525      0.001293      0.000000
    296 O2    s       0.001225      0.000175     -0.000815      0.000000
    297 O2    s      -0.000509     -0.000087      0.001009      0.000000
    298 O2    s      -0.000060     -0.000037      0.000337      0.000000
    299 O2    s       0.000112      0.000043      0.000550      0.000000
    300 O2    s       0.000432      0.000613     -0.000030      0.000000
    301 O2    s       0.000876      0.000403     -0.000175      0.000000
    302 O2    s      -0.000306     -0.000509     -0.000015      0.000000
    303 O2    s      -0.000044     -0.000663     -0.000124      0.000000
    304 O2    s      -0.000638      0.000018      0.000180      0.000000
    305 O3    s       0.001095      0.000921      0.001404      0.000000
    306 O2    s       0.000418      0.000540      0.000160      0.000000
    307 F     s       0.000571      0.001478      0.003261      0.000000
    308 F     s      -0.000322      0.000050      0.000573      0.000000
    309 F     s       0.000390     -0.000215     -0.000030      0.000000
    310 F     s      -0.000323     -0.000044      0.000061      0.000000
    311 F     s      -0.000896      0.000051     -0.003566      0.000000
    312 F     s       0.000112     -0.000092     -0.000281      0.000000
--------------------------------------------------------------------------------
  Maximum abs         0.002094      0.001911      0.008044      0.000000
--------------------------------------------------------------------------------


  Time to end of optimisation =      56.0038 seconds


  Peak dynamic memory used =      19.13 MB 


  Timing analysis for GULP :

--------------------------------------------------------------------------------
  Task / Subroutine                                          Time (Seconds)
--------------------------------------------------------------------------------
  Calculation of reciprocal space energy and derivatives          1.4211
  Calculation of real space energy and derivatives               48.9358
  Calculation of three-body energy and derivatives                4.8075
  Calculation of matrix inversion                                 0.7445
  Global summation overhead                                       0.0002
--------------------------------------------------------------------------------
  Total CPU time                                                 56.0039
--------------------------------------------------------------------------------


  Dump file written as out.res                                                 
  CIF file written as out.cif                                                 


  Job Finished at 22:14.47 24th October    2016                               

