********************************************************************************
*                       GENERAL UTILITY LATTICE PROGRAM                        *
*                                 Julian Gale                                  *
*                      Nanochemistry Research Institute                        *
*                           Department of Chemistry                            *
*                    Curtin University, Western Australia                      *
********************************************************************************
* Version = 4.2.0 * Last modified =  20th January 2014                         *
********************************************************************************
*  optimise     - perform optimisation run                                     *
*  conp         - constant pressure calculation                                *
*  qok          - running with non charge neutral cell is OK                   *
********************************************************************************

  Job Started  at 00:52.57 26th October    2016                               

  Number of CPUs =     1


  Total number of configurations input =   1

********************************************************************************
*  Input for Configuration =   1                                               *
********************************************************************************

  Formula = Ge3Si57O120F6                                               

  Number of irreducible atoms/shells =     312


  Total number atoms/shells =     312

  Dimensionality = 3               :  Bulk   


  Charge on solid   =  -6.000000 =>neutralising background added


  Cartesian lattice vectors (Angstroms) :

       11.961897    0.000000    0.000000
       -5.970503   10.378778    0.000000
       -0.290916   -0.297151   29.473876

  Cell parameters (Angstroms/Degrees):

  a =      11.9619    alpha =  90.2187
  b =      11.9736    beta  =  90.5655
  c =      29.4768    gamma = 119.9101

  Initial cell volume =        3659.177978 Angs**3

  Temperature of configuration =  0.000     K 

  Pressure of configuration =         0.000 GPa 

  Fractional coordinates of asymmetric unit :

--------------------------------------------------------------------------------
   No.  Atomic       x           y          z         Charge      Occupancy
        Label      (Frac)      (Frac)     (Frac)        (e)         (Frac)  
--------------------------------------------------------------------------------
      1 Ge    c    0.699600    0.375700    0.033890     4.00000    1.000000    
      2 Si    c    0.614032 *  0.321960 *  0.364175 *   4.00000    1.000000    
      3 Si    c    0.678995 *  0.299484 *  0.693976 *   4.00000    1.000000    
      4 Si    c    0.292733 *  0.623553 *  0.528662 *   4.00000    1.000000    
      5 Ge    c    0.383692 *  0.665032 *  0.867163 *   4.00000    1.000000    
      6 Si    c    0.310747 *  0.698958 *  0.196588 *   4.00000    1.000000    
      7 Si    c    0.368444 *  0.695909 *  0.296811 *   4.00000    1.000000    
      8 Si    c    0.311471 *  0.625805 *  0.964734 *   4.00000    1.000000    
      9 Si    c    0.307023 *  0.685379 *  0.630450 *   4.00000    1.000000    
     10 Si    c    0.621123 *  0.291319 *  0.796143 *   4.00000    1.000000    
     11 Si    c    0.671644 *  0.381007 *  0.464730 *   4.00000    1.000000    
     12 Si    c    0.673279 *  0.311125 *  0.131942 *   4.00000    1.000000    
     13 Si    c    0.529963 *  0.418419 *  0.964472 *   4.00000    1.000000    
     14 Si    c    0.573356 *  0.107778 *  0.300400 *   4.00000    1.000000    
     15 Si    c    0.891936 *  0.475807 *  0.631273 *   4.00000    1.000000    
     16 Si    c    0.462397 *  0.584172 *  0.463062 *   4.00000    1.000000    
     17 Si    c    0.412093 *  0.867961 *  0.797784 *   4.00000    1.000000    
     18 Si    c    0.094882 *  0.524282 *  0.132047 *   4.00000    1.000000    
     19 Si    c    0.409762 *  0.525524 *  0.361384 *   4.00000    1.000000    
     20 Si    c    0.095764 *  0.576722 *  0.029001 *   4.00000    1.000000    
     21 Ge    c    0.475498 *  0.903588 *  0.698371 *   4.00000    1.000000    
     22 Si    c    0.581884 *  0.466695 *  0.861383 *   4.00000    1.000000    
     23 Si    c    0.884510 *  0.421667 *  0.529982 *   4.00000    1.000000    
     24 Si    c    0.515062 *  0.104432 *  0.199110 *   4.00000    1.000000    
     25 Si    c    0.294671 *  0.393068 *  0.844171 *   4.00000    1.000000    
     26 Si    c    0.588309 *  0.898497 *  0.181924 *   4.00000    1.000000    
     27 Si    c    0.090620 *  0.700172 *  0.514850 *   4.00000    1.000000    
     28 Si    c    0.689835 *  0.598000 *  0.347843 *   4.00000    1.000000    
     29 Si    c    0.396579 *  0.097055 *  0.674556 *   4.00000    1.000000    
     30 Si    c    0.886133 *  0.289896 *  0.011315 *   4.00000    1.000000    
     31 Si    c    0.392632 *  0.303785 *  0.477854 *   4.00000    1.000000    
     32 Si    c    0.880040 *  0.595416 *  0.143660 *   4.00000    1.000000    
     33 Si    c    0.699718 *  0.087327 *  0.809539 *   4.00000    1.000000    
     34 Si    c    0.596420 *  0.704515 *  0.975695 *   4.00000    1.000000    
     35 Si    c    0.102924 *  0.405509 *  0.644390 *   4.00000    1.000000    
     36 Si    c    0.291986 *  0.897506 *  0.312558 *   4.00000    1.000000    
     37 Si    c    0.247861 *  0.343370 *  0.946853 *   4.00000    1.000000    
     38 Si    c    0.649448 *  0.905834 *  0.282732 *   4.00000    1.000000    
     39 Si    c    0.092223 *  0.753203 *  0.615828 *   4.00000    1.000000    
     40 Si    c    0.741250 *  0.660923 *  0.448438 *   4.00000    1.000000    
     41 Si    c    0.337951 *  0.074742 *  0.777301 *   4.00000    1.000000    
     42 Si    c    0.891061 *  0.243995 *  0.114639 *   4.00000    1.000000    
     43 Si    c    0.332873 *  0.247975 *  0.377122 *   4.00000    1.000000    
     44 Si    c    0.892790 *  0.659185 *  0.041284 *   4.00000    1.000000    
     45 Si    c    0.754371 *  0.086722 *  0.707331 *   4.00000    1.000000    
     46 Si    c    0.665615 *  0.752424 *  0.873603 *   4.00000    1.000000    
     47 Si    c    0.085347 *  0.343755 *  0.543735 *   4.00000    1.000000    
     48 Si    c    0.236376 *  0.905020 *  0.212065 *   4.00000    1.000000    
     49 Si    c    0.973334 *  0.122044 *  0.961945 *   4.00000    1.000000    
     50 Si    c    0.867810 *  0.844023 *  0.296953 *   4.00000    1.000000    
     51 Si    c    0.149622 *  0.033358 *  0.626778 *   4.00000    1.000000    
     52 Si    c    0.021197 *  0.878562 *  0.462729 *   4.00000    1.000000    
     53 Si    c    0.123419 *  0.139878 *  0.793336 *   4.00000    1.000000    
     54 Si    c    0.834431 *  0.967645 *  0.130370 *   4.00000    1.000000    
     55 Si    c    0.113460 *  0.967219 *  0.362001 *   4.00000    1.000000    
     56 Si    c    0.845179 *  0.884687 *  0.028379 *   4.00000    1.000000    
     57 Si    c    0.037248 *  0.158145 *  0.692977 *   4.00000    1.000000    
     58 Si    c    0.886849 *  0.025416 *  0.860340 *   4.00000    1.000000    
     59 Si    c    0.144378 *  0.124299 *  0.526778 *   4.00000    1.000000    
     60 Si    c    0.956247 *  0.845501 *  0.195490 *   4.00000    1.000000    
     61 O2    c    0.930004 *  0.004552 *  0.996277 *   0.87073    1.000000    
     62 O2    c    0.993721 *  0.926603 *  0.327848 *   0.87073    1.000000    
     63 O2    c    0.070204 *  0.076380 *  0.658387 *   0.87073    1.000000    
     64 O2    c    0.065221 *  0.006458 *  0.492179 *   0.87073    1.000000    
     65 O2    c    0.004202 *  0.064317 *  0.826711 *   0.87073    1.000000    
     66 O2    c    0.917481 *  0.927400 *  0.162393 *   0.87073    1.000000    
     67 O2    c    0.331496 *  0.572741 *  0.328503 *   0.87073    1.000000    
     68 O3    c    0.426987 *  0.767885 *  0.661429 *   1.33043    1.000000    
     69 O2    c    0.227716 *  0.654475 *  0.001273 *   0.87073    1.000000    
     70 O2    c    0.654542 *  0.411210 *  0.829942 *   0.87073    1.000000    
     71 O2    c    0.563961 *  0.232925 *  0.169026 *   0.87073    1.000000    
     72 O2    c    0.756270 *  0.344047 *  0.497935 *   0.87073    1.000000    
     73 O3    c    0.567905 *  0.339596 *  0.997066 *   1.33043    1.000000    
     74 O2    c    0.767472 *  0.426089 *  0.664287 *   0.87073    1.000000    
     75 O2    c    0.651451 *  0.233489 *  0.332696 *   0.87073    1.000000    
     76 O2    c    0.413350 *  0.660882 *  0.494933 *   0.87073    1.000000    
     77 O2    c    0.221189 *  0.574358 *  0.164080 *   0.87073    1.000000    
     78 O3    c    0.341072 *  0.761261 *  0.834557 *   1.33043    1.000000    
     79 O2    c    0.126460 *  0.216822 *  0.968336 *   0.87073    1.000000    
     80 O2    c    0.776211 *  0.906424 *  0.302932 *   0.87073    1.000000    
     81 O2    c    0.094234 *  0.881540 *  0.635274 *   0.87073    1.000000    
     82 O2    c    0.867254 *  0.788408 *  0.468456 *   0.87073    1.000000    
     83 O2    c    0.213215 *  0.075561 *  0.798164 *   0.87073    1.000000    
     84 O2    c    0.893581 *  0.121291 *  0.136283 *   0.87073    1.000000    
     85 O2    c    0.205808 *  0.120961 *  0.357106 *   0.87073    1.000000    
     86 O2    c    0.912209 *  0.797368 *  0.025351 *   0.87073    1.000000    
     87 O2    c    0.885605 *  0.101464 *  0.687619 *   0.87073    1.000000    
     88 O2    c    0.803283 *  0.870668 *  0.857449 *   0.87073    1.000000    
     89 O2    c    0.082427 *  0.216417 *  0.522885 *   0.87073    1.000000    
     90 O2    c    0.110195 *  0.905880 *  0.191641 *   0.87073    1.000000    
     91 O2    c    0.914465 *  0.856285 *  0.245638 *   0.87073    1.000000    
     92 O2    c    0.128212 *  0.062230 *  0.575640 *   0.87073    1.000000    
     93 O2    c    0.941116 *  0.069897 *  0.910954 *   0.87073    1.000000    
     94 O2    c    0.071915 *  0.131476 *  0.742805 *   0.87073    1.000000    
     95 O2    c    0.848909 *  0.934529 *  0.079088 *   0.87073    1.000000    
     96 O2    c    0.057168 *  0.924530 *  0.411473 *   0.87073    1.000000    
     97 O2    c    0.899998 *  0.200213 *  0.973255 *   0.87073    1.000000    
     98 O2    c    0.787927 *  0.693236 *  0.309418 *   0.87073    1.000000    
     99 O2    c    0.302031 *  0.114420 *  0.638596 *   0.87073    1.000000    
    100 O2    c    0.091436 *  0.798609 *  0.476664 *   0.87073    1.000000    
    101 O2    c    0.205216 *  0.289562 *  0.806178 *   0.87073    1.000000    
    102 O2    c    0.683473 *  0.896181 *  0.143171 *   0.87073    1.000000    
    103 O2    c    0.195250 *  0.896634 *  0.350788 *   0.87073    1.000000    
    104 O2    c    0.694892 *  0.802647 *  0.014108 *   0.87073    1.000000    
    105 O2    c    0.109714 *  0.310659 *  0.682755 *   0.87073    1.000000    
    106 O2    c    0.799346 *  0.089343 *  0.847966 *   0.87073    1.000000    
    107 O2    c    0.296537 *  0.207256 *  0.515973 *   0.87073    1.000000    
    108 O2    c    0.884045 *  0.694351 *  0.182068 *   0.87073    1.000000    
    109 O2    c    0.312064 *  0.639658 *  0.246004 *   0.87073    1.000000    
    110 O2    c    0.352527 *  0.681758 *  0.578297 *   0.87073    1.000000    
    111 O3    c    0.302965 *  0.679793 *  0.916935 *   1.33043    1.000000    
    112 O2    c    0.674064 *  0.344799 *  0.745892 *   0.87073    1.000000    
    113 O3    c    0.607322 *  0.300642 *  0.083695 *   1.33043    1.000000    
    114 O2    c    0.672393 *  0.323580 *  0.414422 *   0.87073    1.000000    
    115 O2    c    0.373132 *  0.337319 *  0.962719 *   0.87073    1.000000    
    116 O2    c    0.660476 *  0.038290 *  0.301528 *   0.87073    1.000000    
    117 O2    c    0.959210 *  0.631858 *  0.634285 *   0.87073    1.000000    
    118 O2    c    0.618807 *  0.671731 *  0.465682 *   0.87073    1.000000    
    119 O2    c    0.328599 *  0.943963 *  0.794726 *   0.87073    1.000000    
    120 O2    c    0.022633 *  0.368515 *  0.132735 *   0.87073    1.000000    
    121 O2    c    0.322413 *  0.369356 *  0.357843 *   0.87073    1.000000    
    122 O2    c    0.024350 *  0.660912 *  0.025685 *   0.87073    1.000000    
    123 O3    c    0.642194 *  0.956141 *  0.687586 *   1.33043    1.000000    
    124 O2    c    0.667829 *  0.621986 *  0.858488 *   0.87073    1.000000    
    125 O2    c    0.951932 *  0.333086 *  0.525356 *   0.87073    1.000000    
    126 O2    c    0.358968 *  0.036372 *  0.194080 *   0.87073    1.000000    
    127 O3    c    0.752875 *  0.283166 *  0.001656 *   1.33043    1.000000    
    128 O2    c    0.688918 *  0.463090 *  0.340514 *   0.87073    1.000000    
    129 O2    c    0.534833 *  0.231169 *  0.672352 *   0.87073    1.000000    
    130 O2    c    0.222156 *  0.696492 *  0.506034 *   0.87073    1.000000    
    131 O3    c    0.291813 *  0.520467 *  0.833896 *   1.33043    1.000000    
    132 O2    c    0.452109 *  0.766125 *  0.173176 *   0.87073    1.000000    
    133 O2    c    0.292336 *  0.763441 *  0.318679 *   0.87073    1.000000    
    134 O2    c    0.461895 *  0.703345 *  0.983344 *   0.87073    1.000000    
    135 O2    c    0.236116 *  0.538726 *  0.650458 *   0.87073    1.000000    
    136 O2    c    0.696544 *  0.220805 *  0.815892 *   0.87073    1.000000    
    137 O2    c    0.527635 *  0.305834 *  0.485793 *   0.87073    1.000000    
    138 O2    c    0.747223 *  0.461220 *  0.150105 *   0.87073    1.000000    
    139 O3    c    0.766426 *  0.545839 *  0.019572 *   1.33043    1.000000    
    140 O2    c    0.457711 *  0.245210 *  0.358101 *   0.87073    1.000000    
    141 O2    c    0.745585 *  0.211676 *  0.690766 *   0.87073    1.000000    
    142 O2    c    0.211447 *  0.467353 *  0.523895 *   0.87073    1.000000    
    143 O3    c    0.551967 *  0.763384 *  0.851257 *   1.33043    1.000000    
    144 O2    c    0.232444 *  0.777173 *  0.191919 *   0.87073    1.000000    
    145 O2    c    0.524268 *  0.780321 *  0.301683 *   0.87073    1.000000    
    146 O2    c    0.249346 *  0.469439 *  0.966862 *   0.87073    1.000000    
    147 O2    c    0.216424 *  0.751407 *  0.635533 *   0.87073    1.000000    
    148 O2    c    0.467115 *  0.199158 *  0.796877 *   0.87073    1.000000    
    149 O2    c    0.742428 *  0.536831 *  0.468687 *   0.87073    1.000000    
    150 O2    c    0.767561 *  0.248660 *  0.132970 *   0.87073    1.000000    
    151 O2    c    0.228035 *  0.329615 *  0.892542 *   0.87073    1.000000    
    152 O2    c    0.663807 *  0.902112 *  0.228249 *   0.87073    1.000000    
    153 O2    c    0.091022 *  0.771667 *  0.561483 *   0.87073    1.000000    
    154 O2    c    0.760551 *  0.675213 *  0.394072 *   0.87073    1.000000    
    155 O2    c    0.325705 *  0.083583 *  0.723214 *   0.87073    1.000000    
    156 O2    c    0.890234 *  0.227978 *  0.060277 *   0.87073    1.000000    
    157 O2    c    0.317202 *  0.231876 *  0.431351 *   0.87073    1.000000    
    158 O2    c    0.885792 *  0.665039 *  0.096550 *   0.87073    1.000000    
    159 O2    c    0.766771 *  0.086246 *  0.762556 *   0.87073    1.000000    
    160 O2    c    0.667355 *  0.768724 *  0.928838 *   0.87073    1.000000    
    161 O2    c    0.091136 *  0.326927 *  0.597915 *   0.87073    1.000000    
    162 O2    c    0.220567 *  0.903864 *  0.266358 *   0.87073    1.000000    
    163 O2    c    0.575421 *  0.562767 *  0.982862 *   0.87073    1.000000    
    164 O2    c    0.432447 *  0.020498 *  0.322383 *   0.87073    1.000000    
    165 O2    c    0.977039 *  0.418899 *  0.654166 *   0.87073    1.000000    
    166 O2    c    0.407656 *  0.443751 *  0.485819 *   0.87073    1.000000    
    167 O2    c    0.559039 *  0.967619 *  0.817044 *   0.87073    1.000000    
    168 O2    c    0.001253 *  0.573492 *  0.151445 *   0.87073    1.000000    
    169 O2    c    0.550355 *  0.584170 *  0.338004 *   0.87073    1.000000    
    170 O2    c    0.008991 *  0.435147 *  0.006601 *   0.87073    1.000000    
    171 O3    c    0.403617 *  0.973357 *  0.661930 *   1.33043    1.000000    
    172 O2    c    0.438755 *  0.411169 *  0.840486 *   0.87073    1.000000    
    173 O2    c    0.962745 *  0.561925 *  0.506031 *   0.87073    1.000000    
    174 O2    c    0.575861 *  0.025441 *  0.174185 *   0.87073    1.000000    
    175 O2    c    0.569052 *  0.158541 *  0.249760 *   0.87073    1.000000    
    176 O2    c    0.832022 *  0.419996 *  0.580927 *   0.87073    1.000000    
    177 O2    c    0.581897 *  0.422908 *  0.913149 *   0.87073    1.000000    
    178 O3    c    0.409803 *  0.810415 *  0.748573 *   1.33043    1.000000    
    179 O2    c    0.138351 *  0.572629 *  0.080972 *   0.87073    1.000000    
    180 O2    c    0.409087 *  0.580868 *  0.411717 *   0.87073    1.000000    
    181 F     c    0.438310 *  0.897565 *  0.245292 *   0.56000    1.000000    
    182 F     c    0.087299 *  0.546859 *  0.578000 *   0.56000    1.000000    
    183 F     c    0.437708 *  0.574771 *  0.903768 *   0.56000    1.000000    
    184 F     c    0.530655 *  0.050823 *  0.734833 *   0.56000    1.000000    
    185 F     c    0.847067 *  0.432603 *  0.070214 *   0.56000    1.000000    
    186 F     c    0.540914 *  0.450711 *  0.410943 *   0.56000    1.000000    
    187 O2    s    0.925327 *  0.004259 *  0.996045 *  -2.87073    1.000000    
    188 O2    s    0.992777 *  0.921793 *  0.328146 *  -2.87073    1.000000    
    189 O2    s    0.075569 *  0.080815 *  0.658725 *  -2.87073    1.000000    
    190 O2    s    0.069073 *  0.005152 *  0.492714 *  -2.87073    1.000000    
    191 O2    s    0.004179 *  0.068345 *  0.826809 *  -2.87073    1.000000    
    192 O2    s    0.912533 *  0.922844 *  0.162484 *  -2.87073    1.000000    
    193 O2    s    0.343290 *  0.580907 *  0.328485 *  -2.87073    1.000000    
    194 O3    s    0.416719 *  0.767687 *  0.660418 *  -3.33043    1.000000    
    195 O2    s    0.222118 *  0.643222 *  0.000527 *  -2.87073    1.000000    
    196 O2    s    0.643638 *  0.404371 *  0.829622 *  -2.87073    1.000000    
    197 O2    s    0.570515 *  0.227865 *  0.168196 *  -2.87073    1.000000    
    198 O2    s    0.760287 *  0.355778 *  0.497659 *  -2.87073    1.000000    
    199 O3    s    0.573109 *  0.350836 *  0.996111 *  -3.33043    1.000000    
    200 O2    s    0.770542 *  0.417733 *  0.664143 *  -2.87073    1.000000    
    201 O2    s    0.639500 *  0.229182 *  0.332476 *  -2.87073    1.000000    
    202 O2    s    0.406405 *  0.649076 *  0.494972 *  -2.87073    1.000000    
    203 O2    s    0.216627 *  0.581418 *  0.163905 *  -2.87073    1.000000    
    204 O3    s    0.351752 *  0.765635 *  0.833003 *  -3.33043    1.000000    
    205 O2    s    0.122527 *  0.219668 *  0.965463 *  -2.87073    1.000000    
    206 O2    s    0.772691 *  0.899736 *  0.300211 *  -2.87073    1.000000    
    207 O2    s    0.099887 *  0.884471 *  0.632418 *  -2.87073    1.000000    
    208 O2    s    0.870482 *  0.784730 *  0.465797 *  -2.87073    1.000000    
    209 O2    s    0.216344 *  0.082433 *  0.795512 *  -2.87073    1.000000    
    210 O2    s    0.887063 *  0.117945 *  0.133408 *  -2.87073    1.000000    
    211 O2    s    0.209044 *  0.117665 *  0.359654 *  -2.87073    1.000000    
    212 O2    s    0.902941 *  0.792649 *  0.027306 *  -2.87073    1.000000    
    213 O2    s    0.888476 *  0.106367 *  0.690379 *  -2.87073    1.000000    
    214 O2    s    0.798155 *  0.875169 *  0.859408 *  -2.87073    1.000000    
    215 O2    s    0.089407 *  0.219553 *  0.525415 *  -2.87073    1.000000    
    216 O2    s    0.106772 *  0.899344 *  0.194133 *  -2.87073    1.000000    
    217 O2    s    0.914063 *  0.853678 *  0.245604 *  -2.87073    1.000000    
    218 O2    s    0.132488 *  0.066057 *  0.575862 *  -2.87073    1.000000    
    219 O2    s    0.938740 *  0.070874 *  0.911126 *  -2.87073    1.000000    
    220 O2    s    0.073965 *  0.135426 *  0.743053 *  -2.87073    1.000000    
    221 O2    s    0.846851 *  0.932721 *  0.079246 *  -2.87073    1.000000    
    222 O2    s    0.059642 *  0.924318 *  0.411496 *  -2.87073    1.000000    
    223 O2    s    0.906543 *  0.201128 *  0.976028 *  -2.87073    1.000000    
    224 O2    s    0.786622 *  0.699761 *  0.311931 *  -2.87073    1.000000    
    225 O2    s    0.295478 *  0.104211 *  0.640948 *  -2.87073    1.000000    
    226 O2    s    0.083782 *  0.797294 *  0.479010 *  -2.87073    1.000000    
    227 O2    s    0.205799 *  0.284029 *  0.808887 *  -2.87073    1.000000    
    228 O2    s    0.689822 *  0.903924 *  0.145712 *  -2.87073    1.000000    
    229 O2    s    0.196692 *  0.904164 *  0.347983 *  -2.87073    1.000000    
    230 O2    s    0.700850 *  0.801330 *  0.011674 *  -2.87073    1.000000    
    231 O2    s    0.101395 *  0.303885 *  0.680066 *  -2.87073    1.000000    
    232 O2    s    0.798482 *  0.082414 *  0.845378 *  -2.87073    1.000000    
    233 O2    s    0.290448 *  0.208500 *  0.513172 *  -2.87073    1.000000    
    234 O2    s    0.891260 *  0.699998 *  0.179463 *  -2.87073    1.000000    
    235 O2    s    0.317636 *  0.651495 *  0.246011 *  -2.87073    1.000000    
    236 O2    s    0.341711 *  0.675911 *  0.578093 *  -2.87073    1.000000    
    237 O3    s    0.308971 *  0.673019 *  0.918918 *  -3.33043    1.000000    
    238 O2    s    0.669050 *  0.334728 *  0.745932 *  -2.87073    1.000000    
    239 O3    s    0.620203 *  0.306724 *  0.085239 *  -3.33043    1.000000    
    240 O2    s    0.666281 *  0.329232 *  0.414308 *  -2.87073    1.000000    
    241 O2    s    0.375198 *  0.346258 *  0.961124 *  -2.87073    1.000000    
    242 O2    s    0.650343 *  0.031507 *  0.299421 *  -2.87073    1.000000    
    243 O2    s    0.965812 *  0.628169 *  0.632091 *  -2.87073    1.000000    
    244 O2    s    0.615621 *  0.661600 *  0.463583 *  -2.87073    1.000000    
    245 O2    s    0.337464 *  0.951454 *  0.793045 *  -2.87073    1.000000    
    246 O2    s    0.016453 *  0.371815 *  0.130772 *  -2.87073    1.000000    
    247 O2    s    0.332474 *  0.372771 *  0.360215 *  -2.87073    1.000000    
    248 O2    s    0.018695 *  0.651816 *  0.027598 *  -2.87073    1.000000    
    249 O3    s    0.643263 *  0.966834 *  0.690480 *  -3.33043    1.000000    
    250 O2    s    0.658587 *  0.618657 *  0.860303 *  -2.87073    1.000000    
    251 O2    s    0.958916 *  0.343317 *  0.527757 *  -2.87073    1.000000    
    252 O2    s    0.362078 *  0.029509 *  0.196492 *  -2.87073    1.000000    
    253 O3    s    0.763461 *  0.289970 *  0.004861 *  -3.33043    1.000000    
    254 O2    s    0.681386 *  0.462770 *  0.343710 *  -2.87073    1.000000    
    255 O2    s    0.536177 *  0.224964 *  0.674869 *  -2.87073    1.000000    
    256 O2    s    0.215509 *  0.689410 *  0.509296 *  -2.87073    1.000000    
    257 O3    s    0.298241 *  0.516363 *  0.837263 *  -3.33043    1.000000    
    258 O2    s    0.451697 *  0.772901 *  0.176491 *  -2.87073    1.000000    
    259 O2    s    0.300139 *  0.770639 *  0.315734 *  -2.87073    1.000000    
    260 O2    s    0.461480 *  0.696043 *  0.980736 *  -2.87073    1.000000    
    261 O2    s    0.228366 *  0.538436 *  0.647776 *  -2.87073    1.000000    
    262 O2    s    0.689017 *  0.214652 *  0.813183 *  -2.87073    1.000000    
    263 O2    s    0.528148 *  0.313350 *  0.482747 *  -2.87073    1.000000    
    264 O2    s    0.754183 *  0.460929 *  0.147607 *  -2.87073    1.000000    
    265 O3    s    0.776132 *  0.547747 *  0.022756 *  -3.33043    1.000000    
    266 O2    s    0.460418 *  0.253481 *  0.360723 *  -2.87073    1.000000    
    267 O2    s    0.739054 *  0.208314 *  0.692809 *  -2.87073    1.000000    
    268 O2    s    0.206187 *  0.470205 *  0.526494 *  -2.87073    1.000000    
    269 O3    s    0.553781 *  0.755858 *  0.854649 *  -3.33043    1.000000    
    270 O2    s    0.240985 *  0.782712 *  0.194506 *  -2.87073    1.000000    
    271 O2    s    0.521564 *  0.785272 *  0.299118 *  -2.87073    1.000000    
    272 O2    s    0.255430 *  0.471424 *  0.964497 *  -2.87073    1.000000    
    273 O2    s    0.211312 *  0.744822 *  0.632852 *  -2.87073    1.000000    
    274 O2    s    0.470266 *  0.196068 *  0.794756 *  -2.87073    1.000000    
    275 O2    s    0.734733 *  0.534028 *  0.466071 *  -2.87073    1.000000    
    276 O2    s    0.771804 *  0.254549 *  0.130825 *  -2.87073    1.000000    
    277 O2    s    0.236721 *  0.337393 *  0.893543 *  -2.87073    1.000000    
    278 O2    s    0.654348 *  0.902111 *  0.229077 *  -2.87073    1.000000    
    279 O2    s    0.091086 *  0.762132 *  0.562230 *  -2.87073    1.000000    
    280 O2    s    0.751057 *  0.665565 *  0.394893 *  -2.87073    1.000000    
    281 O2    s    0.333947 *  0.083923 *  0.724314 *  -2.87073    1.000000    
    282 O2    s    0.889888 *  0.235796 *  0.061231 *  -2.87073    1.000000    
    283 O2    s    0.326737 *  0.241099 *  0.430385 *  -2.87073    1.000000    
    284 O2    s    0.885811 *  0.656831 *  0.096176 *  -2.87073    1.000000    
    285 O2    s    0.758347 *  0.086396 *  0.762085 *  -2.87073    1.000000    
    286 O2    s    0.659546 *  0.760256 *  0.928391 *  -2.87073    1.000000    
    287 O2    s    0.091705 *  0.336774 *  0.596975 *  -2.87073    1.000000    
    288 O2    s    0.229657 *  0.903336 *  0.265323 *  -2.87073    1.000000    
    289 O2    s    0.572834 *  0.563390 *  0.980142 *  -2.87073    1.000000    
    290 O2    s    0.432097 *  0.016203 *  0.318996 *  -2.87073    1.000000    
    291 O2    s    0.981543 *  0.423517 *  0.650766 *  -2.87073    1.000000    
    292 O2    s    0.411952 *  0.443311 *  0.482550 *  -2.87073    1.000000    
    293 O2    s    0.561003 *  0.971944 *  0.814318 *  -2.87073    1.000000    
    294 O2    s    0.998198 *  0.570437 *  0.148528 *  -2.87073    1.000000    
    295 O2    s    0.550740 *  0.579422 *  0.341465 *  -2.87073    1.000000    
    296 O2    s    0.005636 *  0.435514 *  0.009459 *  -2.87073    1.000000    
    297 O3    s    0.407664 *  0.982629 *  0.665644 *  -3.33043    1.000000    
    298 O2    s    0.439649 *  0.415460 *  0.843125 *  -2.87073    1.000000    
    299 O2    s    0.968500 *  0.562252 *  0.509435 *  -2.87073    1.000000    
    300 O2    s    0.570816 *  0.019843 *  0.177548 *  -2.87073    1.000000    
    301 O2    s    0.563745 *  0.147454 *  0.249688 *  -2.87073    1.000000    
    302 O2    s    0.843568 *  0.425890 *  0.580864 *  -2.87073    1.000000    
    303 O2    s    0.576735 *  0.427104 *  0.912818 *  -2.87073    1.000000    
    304 O3    s    0.414529 *  0.822559 *  0.750085 *  -3.33043    1.000000    
    305 O2    s    0.129147 *  0.567829 *  0.081020 *  -2.87073    1.000000    
    306 O2    s    0.414638 *  0.575432 *  0.411740 *  -2.87073    1.000000    
    307 F     s    0.437930 *  0.897102 *  0.245021 *  -1.56000    1.000000    
    308 F     s    0.086589 *  0.546379 *  0.577778 *  -1.56000    1.000000    
    309 F     s    0.433739 *  0.581631 *  0.901141 *  -1.56000    1.000000    
    310 F     s    0.526818 *  0.040861 *  0.732250 *  -1.56000    1.000000    
    311 F     s    0.836473 *  0.428603 *  0.067669 *  -1.56000    1.000000    
    312 F     s    0.541097 *  0.450447 *  0.410702 *  -1.56000    1.000000    
--------------------------------------------------------------------------------



********************************************************************************
*  General input information                                                   *
********************************************************************************

  Species output for all configurations : 

--------------------------------------------------------------------------------
  Species    Type    Atomic    Atomic    Charge       Radii (Angs)     Library
                     Number     Mass       (e)     Cova   Ionic  VDW   Symbol
--------------------------------------------------------------------------------
    Si       Core       14      28.09   4.000000   1.200  0.000  2.100          
    O1       Core        8      16.00   1.733957   0.730  0.000  1.360          
    O1       Shell       8       0.00  -3.733957   0.730  0.000  1.360          
    O2       Core        8      16.00   0.870733   0.730  0.000  1.360          
    O2       Shell       8       0.00  -2.870733   0.730  0.000  1.360          
    O3       Core        8      16.00   1.330431   0.730  0.000  1.360          
    O3       Shell       8       0.00  -3.330431   0.730  0.000  1.360          
    F        Core        9      19.00   0.560000   0.710  0.000  1.300          
    F        Shell       9       0.00  -1.560000   0.710  0.000  1.300          
    Ge       Core       32      72.61   4.000000   1.170  0.000  1.750          
--------------------------------------------------------------------------------


  Lattice summation method               =    Ewald          (3-D)
                                         =    Parry          (2-D)
                                         =    Saunders et al (1-D)
  Accuracy factor for lattice sums       =   12.000


  Time limit = Infinity

  Maximum range for interatomic potentials =        16.000000 Angstroms

  Taper potentials to zero over   1.0000 Angstroms using polynomial

  General interatomic potentials :

--------------------------------------------------------------------------------
Atom  Types   Potential         A         B         C         D     Cutoffs(Ang)
  1     2                                                            Min    Max 
--------------------------------------------------------------------------------
Si   c O1   s Buckingham    0.132E+04 0.318      10.1      0.00     0.000 16.000
Si   c O2   s Buckingham    0.132E+04 0.318      10.1      0.00     0.000 16.000
Si   c O3   s Buckingham    0.132E+04 0.318      10.1      0.00     0.000 16.000
Ge   c O1   s Buckingham    0.150E+04 0.326      16.8      0.00     0.000 16.000
Ge   c O2   s Buckingham    0.150E+04 0.326      16.8      0.00     0.000 16.000
Ge   c O3   s Buckingham    0.150E+04 0.326      16.8      0.00     0.000 16.000
O1   s O1   s Buckingham    0.228E+05 0.149      10.9      0.00     0.000 16.000
O1   s O2   s Buckingham    0.228E+05 0.149      10.9      0.00     0.000 16.000
O1   s O3   s Buckingham    0.228E+05 0.149      10.9      0.00     0.000 16.000
O2   s O2   s Buckingham    0.228E+05 0.149      10.9      0.00     0.000 16.000
O2   s O3   s Buckingham    0.228E+05 0.149      10.9      0.00     0.000 16.000
O3   s O3   s Buckingham    0.228E+05 0.149      10.9      0.00     0.000 16.000
Si   c F    s Buckingham     977.     0.282      0.00      0.00     0.000 16.000
Ge   c F    s Buckingham     681.     0.320      0.00      0.00     0.000 16.000
F    s F    s Buckingham     540.     0.262      0.00      0.00     0.000 16.000
O1   s F    s Buckingham    0.168E+04 0.268      0.00      0.00     0.000 16.000
O2   s F    s Buckingham    0.168E+04 0.268      0.00      0.00     0.000 16.000
O3   s F    s Buckingham    0.168E+04 0.268      0.00      0.00     0.000 16.000
O2   c O2   s Spring (c-s)   76.0      0.00      0.00      0.00     0.000  0.800
O3   c O3   s Spring (c-s)   128.      0.00      0.00      0.00     0.000  0.800
O1   c O1   s Spring (c-s)   180.      0.00      0.00      0.00     0.000  0.800
F    c F    s Spring (c-s)   33.5      0.00      0.00      0.00     0.000  0.800
--------------------------------------------------------------------------------

  General Three-body potentials :

  Harmonic form:

--------------------------------------------------------------------------------
Atom    Atom    Atom           Force Constants            Theta     Cutoffs  
  1       2       3     (eVrad**-2/eVrad**-3/eVrad**-4)   (deg)  1-2  1-3  2-3
--------------------------------------------------------------------------------
Si    c O1    s O1    s  1.261        0.0000    0.0000   109.470 0.00 0.00 0.00
                                                                 1.90 1.90 3.50
Si    c O1    s O2    s  1.261        0.0000    0.0000   109.470 0.00 0.00 0.00
                                                                 1.90 1.90 3.50
Si    c O2    s O2    s  1.261        0.0000    0.0000   109.470 0.00 0.00 0.00
                                                                 1.90 1.90 3.50
--------------------------------------------------------------------------------

********************************************************************************
*  Output for configuration   1                                                *
********************************************************************************


  Components of energy : 

--------------------------------------------------------------------------------
  Interatomic potentials     =        2066.55960621 eV
  Three-body potentials      =           0.46895710 eV
  Monopole - monopole (real) =       -6617.62597625 eV
  Monopole - monopole (recip)=       -3170.65772441 eV
  Monopole - monopole (total)=       -9788.28370066 eV
  Neutralising energy        =          -6.45863538 eV
--------------------------------------------------------------------------------
  Total lattice energy       =       -7727.71377273 eV
--------------------------------------------------------------------------------
  Total lattice energy       =         -745606.2501 kJ/(mole unit cells)
--------------------------------------------------------------------------------


  Number of variables =      939

  Maximum number of calculations  =          5000
  Maximum Hessian update interval =            10
  Maximum step size               =   0.100000000
  Maximum parameter tolerance     =   0.000010000
  Maximum function  tolerance     =   0.000010000
  Maximum gradient  tolerance     =   0.001000000
  Maximum gradient  component     =   0.010000000

  Symmetry not applied to optimisation

  Cell parameters to be optimised using strains

  Newton-Raphson optimiser to be used

  BFGS hessian update to be used

  Dumpfile to be written after every cycle

  Start of bulk optimisation :

  Cycle:      0 Energy:     -7727.713773  Gnorm:      0.000489  CPU:    2.009
  ** Hessian calculated **
  Cycle:      1 Energy:     -7727.726358  Gnorm:      0.000458  CPU:    6.604
  Cycle:      2 Energy:     -7727.740921  Gnorm:      0.000582  CPU:   10.823
  Cycle:      3 Energy:     -7727.755770  Gnorm:      0.000987  CPU:   15.042
  Cycle:      4 Energy:     -7727.761615  Gnorm:      0.000972  CPU:   19.261
  Cycle:      5 Energy:     -7727.763071  Gnorm:      0.000636  CPU:   23.480
  Cycle:      6 Energy:     -7727.763439  Gnorm:      0.000362  CPU:   27.699
  Cycle:      7 Energy:     -7727.763532  Gnorm:      0.000194  CPU:   31.916
  Cycle:      8 Energy:     -7727.763548  Gnorm:      0.000138  CPU:   34.764
  Cycle:      9 Energy:     -7727.763556  Gnorm:      0.000097  CPU:   37.612
  Cycle:     10 Energy:     -7727.763560  Gnorm:      0.000068  CPU:   40.458
  ** Hessian calculated **
  Cycle:     11 Energy:     -7727.763560  Gnorm:      0.000034  CPU:   44.989


  **** Optimisation achieved ****


  Final energy =   -7727.76355973 eV
  Final Gnorm  =       0.00002577

  Components of energy : 

--------------------------------------------------------------------------------
  Interatomic potentials     =        2066.58093103 eV
  Three-body potentials      =           0.46776684 eV
  Monopole - monopole (real) =       -6618.94008047 eV
  Monopole - monopole (recip)=       -3169.41607011 eV
  Monopole - monopole (total)=       -9788.35615058 eV
  Neutralising energy        =          -6.45610701 eV
--------------------------------------------------------------------------------
  Total lattice energy       =       -7727.76355973 eV
--------------------------------------------------------------------------------
  Total lattice energy       =         -745611.0538 kJ/(mole unit cells)
--------------------------------------------------------------------------------

  Final fractional coordinates of atoms :

--------------------------------------------------------------------------------
   No.  Atomic        x           y          z          Radius
        Label       (Frac)      (Frac)     (Frac)       (Angs) 
--------------------------------------------------------------------------------
     1  Ge    c     0.699600    0.375700    0.033890    0.000000
     2  Si    c     0.594389    0.309241    0.364220    0.000000
     3  Si    c     0.660651    0.283584    0.693782    0.000000
     4  Si    c     0.274130    0.609706    0.529579    0.000000
     5  Ge    c     0.371126    0.653591    0.868391    0.000000
     6  Si    c     0.295583    0.688140    0.198009    0.000000
     7  Si    c     0.351722    0.685331    0.298243    0.000000
     8  Si    c     0.302821    0.614143    0.966348    0.000000
     9  Si    c     0.287729    0.671237    0.631371    0.000000
    10  Si    c     0.605347    0.278458    0.796091    0.000000
    11  Si    c     0.652563    0.366546    0.464821    0.000000
    12  Si    c     0.660330    0.301616    0.131455    0.000000
    13  Si    c     0.521610    0.407479    0.964335    0.000000
    14  Si    c     0.555447    0.096728    0.300037    0.000000
    15  Si    c     0.872819    0.460879    0.631081    0.000000
    16  Si    c     0.443903    0.569988    0.464276    0.000000
    17  Si    c     0.396405    0.855651    0.799149    0.000000
    18  Si    c     0.081556    0.512539    0.133964    0.000000
    19  Si    c     0.390945    0.513023    0.362609    0.000000
    20  Si    c     0.089854    0.569793    0.031092    0.000000
    21  Ge    c     0.457642    0.888652    0.699491    0.000000
    22  Si    c     0.569396    0.456270    0.860887    0.000000
    23  Si    c     0.865932    0.407279    0.529808    0.000000
    24  Si    c     0.498849    0.093570    0.198448    0.000000
    25  Si    c     0.282316    0.382395    0.844652    0.000000
    26  Si    c     0.572060    0.886955    0.182419    0.000000
    27  Si    c     0.072074    0.685896    0.515231    0.000000
    28  Si    c     0.670568    0.585704    0.348391    0.000000
    29  Si    c     0.378170    0.081431    0.675160    0.000000
    30  Si    c     0.880867    0.284014    0.011941    0.000000
    31  Si    c     0.373950    0.289398    0.478479    0.000000
    32  Si    c     0.867687    0.584766    0.144991    0.000000
    33  Si    c     0.683844    0.074797    0.810311    0.000000
    34  Si    c     0.587776    0.693058    0.976055    0.000000
    35  Si    c     0.083693    0.391022    0.644668    0.000000
    36  Si    c     0.274571    0.886737    0.312951    0.000000
    37  Si    c     0.239343    0.332100    0.947625    0.000000
    38  Si    c     0.632076    0.894866    0.283362    0.000000
    39  Si    c     0.072670    0.738373    0.616169    0.000000
    40  Si    c     0.722484    0.646880    0.449085    0.000000
    41  Si    c     0.322083    0.062047    0.778117    0.000000
    42  Si    c     0.878056    0.233470    0.115302    0.000000
    43  Si    c     0.313669    0.235345    0.377741    0.000000
    44  Si    c     0.890220    0.656602    0.042938    0.000000
    45  Si    c     0.736486    0.071458    0.707991    0.000000
    46  Si    c     0.653178    0.741543    0.873726    0.000000
    47  Si    c     0.066927    0.329642    0.544045    0.000000
    48  Si    c     0.220470    0.893754    0.212258    0.000000
    49  Si    c     0.963874    0.113187    0.962326    0.000000
    50  Si    c     0.849616    0.832075    0.297578    0.000000
    51  Si    c     0.131080    0.018598    0.627458    0.000000
    52  Si    c     0.002449    0.864482    0.463354    0.000000
    53  Si    c     0.109351    0.129614    0.794023    0.000000
    54  Si    c     0.818566    0.956200    0.131135    0.000000
    55  Si    c     0.094945    0.954915    0.362659    0.000000
    56  Si    c     0.835463    0.876398    0.029316    0.000000
    57  Si    c     0.019706    0.144231    0.693722    0.000000
    58  Si    c     0.872791    0.015134    0.861037    0.000000
    59  Si    c     0.125695    0.109888    0.527378    0.000000
    60  Si    c     0.940135    0.833528    0.196371    0.000000
    61  O2    c     0.918247    0.996482    0.997152    0.000000
    62  O2    c     0.974891    0.913586    0.328708    0.000000
    63  O2    c     0.052994    0.062265    0.659423    0.000000
    64  O2    c     0.045954    0.991671    0.493073    0.000000
    65  O2    c     0.990430    0.055563    0.827538    0.000000
    66  O2    c     0.900350    0.914265    0.163058    0.000000
    67  O2    c     0.313615    0.562155    0.330107    0.000000
    68  O3    c     0.407097    0.752522    0.662657    0.000000
    69  O2    c     0.222535    0.645018    0.003703    0.000000
    70  O2    c     0.640591    0.400007    0.829131    0.000000
    71  O2    c     0.548500    0.221283    0.167709    0.000000
    72  O2    c     0.738044    0.329701    0.497690    0.000000
    73  O3    c     0.566395    0.334266    0.996615    0.000000
    74  O2    c     0.747913    0.410029    0.663858    0.000000
    75  O2    c     0.632524    0.222365    0.332267    0.000000
    76  O2    c     0.395411    0.646879    0.496218    0.000000
    77  O2    c     0.206512    0.561715    0.166407    0.000000
    78  O3    c     0.326856    0.749633    0.836311    0.000000
    79  O2    c     0.117455    0.204441    0.968438    0.000000
    80  O2    c     0.758964    0.895540    0.303433    0.000000
    81  O2    c     0.074402    0.866460    0.635627    0.000000
    82  O2    c     0.848625    0.773951    0.469026    0.000000
    83  O2    c     0.198027    0.064093    0.798977    0.000000
    84  O2    c     0.878122    0.109721    0.137181    0.000000
    85  O2    c     0.186354    0.108729    0.357827    0.000000
    86  O2    c     0.909041    0.794846    0.027590    0.000000
    87  O2    c     0.867817    0.085677    0.688637    0.000000
    88  O2    c     0.790434    0.860532    0.857670    0.000000
    89  O2    c     0.064427    0.202585    0.523235    0.000000
    90  O2    c     0.093980    0.894507    0.192110    0.000000
    91  O2    c     0.897788    0.844548    0.246424    0.000000
    92  O2    c     0.109602    0.048690    0.576449    0.000000
    93  O2    c     0.927333    0.059447    0.911652    0.000000
    94  O2    c     0.056973    0.120616    0.743602    0.000000
    95  O2    c     0.833706    0.924811    0.079733    0.000000
    96  O2    c     0.038823    0.911366    0.412152    0.000000
    97  O2    c     0.895198    0.195645    0.973665    0.000000
    98  O2    c     0.768420    0.681289    0.309950    0.000000
    99  O2    c     0.283382    0.098199    0.639150    0.000000
   100  O2    c     0.072916    0.784579    0.477060    0.000000
   101  O2    c     0.192081    0.279176    0.806777    0.000000
   102  O2    c     0.667601    0.884812    0.143786    0.000000
   103  O2    c     0.177671    0.885653    0.351120    0.000000
   104  O2    c     0.686647    0.790178    0.014391    0.000000
   105  O2    c     0.090543    0.296275    0.683069    0.000000
   106  O2    c     0.784030    0.077769    0.848734    0.000000
   107  O2    c     0.277739    0.192055    0.516466    0.000000
   108  O2    c     0.869235    0.682198    0.183453    0.000000
   109  O2    c     0.296254    0.628936    0.247504    0.000000
   110  O2    c     0.333424    0.667931    0.579212    0.000000
   111  O3    c     0.291982    0.667733    0.918689    0.000000
   112  O2    c     0.656768    0.329928    0.745550    0.000000
   113  O3    c     0.601113    0.297107    0.082685    0.000000
   114  O2    c     0.652655    0.309669    0.414392    0.000000
   115  O2    c     0.364599    0.325659    0.963377    0.000000
   116  O2    c     0.642835    0.027584    0.301580    0.000000
   117  O2    c     0.939538    0.616762    0.634371    0.000000
   118  O2    c     0.600209    0.657254    0.466712    0.000000
   119  O2    c     0.312686    0.931425    0.795913    0.000000
   120  O2    c     0.008947    0.356854    0.134206    0.000000
   121  O2    c     0.303168    0.357043    0.358721    0.000000
   122  O2    c     0.021296    0.656969    0.027714    0.000000
   123  O3    c     0.624126    0.940591    0.688624    0.000000
   124  O2    c     0.655444    0.611571    0.858040    0.000000
   125  O2    c     0.933841    0.319124    0.525416    0.000000
   126  O2    c     0.342696    0.024857    0.193771    0.000000
   127  O3    c     0.749966    0.280976    0.001744    0.000000
   128  O2    c     0.669210    0.450781    0.340840    0.000000
   129  O2    c     0.516447    0.215032    0.672365    0.000000
   130  O2    c     0.203873    0.682655    0.506636    0.000000
   131  O3    c     0.278501    0.509615    0.835049    0.000000
   132  O2    c     0.436203    0.754454    0.174061    0.000000
   133  O2    c     0.275479    0.753163    0.319659    0.000000
   134  O2    c     0.453505    0.691722    0.984245    0.000000
   135  O2    c     0.216421    0.524177    0.651036    0.000000
   136  O2    c     0.680918    0.208426    0.816161    0.000000
   137  O2    c     0.508886    0.291153    0.486131    0.000000
   138  O2    c     0.734360    0.450911    0.150494    0.000000
   139  O3    c     0.765107    0.544398    0.019957    0.000000
   140  O2    c     0.438154    0.232630    0.358346    0.000000
   141  O2    c     0.727328    0.195777    0.690739    0.000000
   142  O2    c     0.193170    0.453652    0.524552    0.000000
   143  O3    c     0.538954    0.752573    0.851977    0.000000
   144  O2    c     0.216594    0.765678    0.192467    0.000000
   145  O2    c     0.507438    0.770036    0.302968    0.000000
   146  O2    c     0.240890    0.457655    0.968219    0.000000
   147  O2    c     0.196680    0.736725    0.636107    0.000000
   148  O2    c     0.451453    0.186464    0.797356    0.000000
   149  O2    c     0.723421    0.522223    0.468933    0.000000
   150  O2    c     0.753941    0.238299    0.132694    0.000000
   151  O2    c     0.218447    0.318844    0.893366    0.000000
   152  O2    c     0.646752    0.890530    0.228919    0.000000
   153  O2    c     0.071858    0.757134    0.561808    0.000000
   154  O2    c     0.741145    0.661898    0.394697    0.000000
   155  O2    c     0.308718    0.069612    0.724005    0.000000
   156  O2    c     0.881217    0.219908    0.060920    0.000000
   157  O2    c     0.298275    0.218341    0.431973    0.000000
   158  O2    c     0.877930    0.657570    0.098053    0.000000
   159  O2    c     0.749629    0.072360    0.763210    0.000000
   160  O2    c     0.656884    0.757479    0.928985    0.000000
   161  O2    c     0.072212    0.312624    0.598242    0.000000
   162  O2    c     0.203956    0.892757    0.266526    0.000000
   163  O2    c     0.566891    0.551526    0.982863    0.000000
   164  O2    c     0.414836    0.009986    0.322227    0.000000
   165  O2    c     0.957537    0.403878    0.654233    0.000000
   166  O2    c     0.389208    0.429255    0.486878    0.000000
   167  O2    c     0.543214    0.955697    0.818172    0.000000
   168  O2    c     0.987643    0.561386    0.153306    0.000000
   169  O2    c     0.531096    0.571902    0.338910    0.000000
   170  O2    c     0.003625    0.429442    0.008051    0.000000
   171  O3    c     0.384791    0.957353    0.662972    0.000000
   172  O2    c     0.426424    0.401448    0.840083    0.000000
   173  O2    c     0.944573    0.547829    0.506059    0.000000
   174  O2    c     0.559348    0.013594    0.174234    0.000000
   175  O2    c     0.551720    0.147254    0.249212    0.000000
   176  O2    c     0.813284    0.405485    0.580715    0.000000
   177  O2    c     0.570145    0.411870    0.912482    0.000000
   178  O3    c     0.393249    0.796900    0.750094    0.000000
   179  O2    c     0.128534    0.563157    0.083288    0.000000
   180  O2    c     0.390276    0.567329    0.413053    0.000000
   181  F     c     0.421151    0.885525    0.245639    0.000000
   182  F     c     0.068327    0.532756    0.578321    0.000000
   183  F     c     0.426674    0.563344    0.904308    0.000000
   184  F     c     0.513391    0.036626    0.735457    0.000000
   185  F     c     0.842499    0.428072    0.071222    0.000000
   186  F     c     0.521137    0.436821    0.411580    0.000000
   187  O2    s     0.913991    0.996012    0.996883    0.000000
   188  O2    s     0.974068    0.908974    0.328959    0.000000
   189  O2    s     0.058174    0.066649    0.659686    0.000000
   190  O2    s     0.049924    0.990494    0.493543    0.000000
   191  O2    s     0.990330    0.059273    0.827612    0.000000
   192  O2    s     0.895631    0.910034    0.163177    0.000000
   193  O2    s     0.325467    0.570146    0.330034    0.000000
   194  O3    s     0.397060    0.752488    0.661604    0.000000
   195  O2    s     0.216411    0.633783    0.002861    0.000000
   196  O2    s     0.629641    0.393072    0.828921    0.000000
   197  O2    s     0.555132    0.216499    0.167063    0.000000
   198  O2    s     0.741941    0.341394    0.497460    0.000000
   199  O3    s     0.570520    0.345385    0.995555    0.000000
   200  O2    s     0.751184    0.401790    0.663756    0.000000
   201  O2    s     0.620596    0.217897    0.332100    0.000000
   202  O2    s     0.388347    0.635069    0.496210    0.000000
   203  O2    s     0.201963    0.569036    0.166074    0.000000
   204  O3    s     0.337486    0.753975    0.834671    0.000000
   205  O2    s     0.113485    0.207728    0.965674    0.000000
   206  O2    s     0.755348    0.888744    0.300742    0.000000
   207  O2    s     0.080216    0.869460    0.632807    0.000000
   208  O2    s     0.851808    0.770347    0.466382    0.000000
   209  O2    s     0.201216    0.070961    0.796314    0.000000
   210  O2    s     0.871820    0.106489    0.134266    0.000000
   211  O2    s     0.189698    0.105372    0.360352    0.000000
   212  O2    s     0.899208    0.789319    0.029358    0.000000
   213  O2    s     0.870686    0.090832    0.691323    0.000000
   214  O2    s     0.785231    0.864952    0.859668    0.000000
   215  O2    s     0.071283    0.205641    0.525785    0.000000
   216  O2    s     0.090603    0.887936    0.194610    0.000000
   217  O2    s     0.897288    0.841902    0.246382    0.000000
   218  O2    s     0.113880    0.052281    0.576628    0.000000
   219  O2    s     0.925452    0.060652    0.911815    0.000000
   220  O2    s     0.058836    0.124297    0.743831    0.000000
   221  O2    s     0.832196    0.922953    0.079923    0.000000
   222  O2    s     0.041233    0.911154    0.412170    0.000000
   223  O2    s     0.901213    0.196013    0.976491    0.000000
   224  O2    s     0.767270    0.687770    0.312478    0.000000
   225  O2    s     0.276847    0.088185    0.641521    0.000000
   226  O2    s     0.065239    0.783244    0.479425    0.000000
   227  O2    s     0.192634    0.273627    0.809470    0.000000
   228  O2    s     0.673925    0.892532    0.146327    0.000000
   229  O2    s     0.179037    0.893091    0.348353    0.000000
   230  O2    s     0.692540    0.789456    0.012025    0.000000
   231  O2    s     0.082345    0.289504    0.680407    0.000000
   232  O2    s     0.783261    0.070890    0.846152    0.000000
   233  O2    s     0.271679    0.193461    0.513694    0.000000
   234  O2    s     0.876563    0.688003    0.180790    0.000000
   235  O2    s     0.301864    0.640877    0.247511    0.000000
   236  O2    s     0.322655    0.662062    0.579006    0.000000
   237  O3    s     0.298138    0.661044    0.920611    0.000000
   238  O2    s     0.651778    0.319903    0.745640    0.000000
   239  O3    s     0.613661    0.302674    0.084590    0.000000
   240  O2    s     0.646629    0.315387    0.414308    0.000000
   241  O2    s     0.366609    0.334599    0.961731    0.000000
   242  O2    s     0.632718    0.020745    0.299491    0.000000
   243  O2    s     0.946219    0.613136    0.632174    0.000000
   244  O2    s     0.597042    0.647212    0.464592    0.000000
   245  O2    s     0.321553    0.938882    0.794214    0.000000
   246  O2    s     0.002894    0.360287    0.132205    0.000000
   247  O2    s     0.313266    0.360404    0.361098    0.000000
   248  O2    s     0.015298    0.647822    0.029596    0.000000
   249  O3    s     0.625206    0.951301    0.691470    0.000000
   250  O2    s     0.646226    0.608218    0.859899    0.000000
   251  O2    s     0.940724    0.329286    0.527815    0.000000
   252  O2    s     0.345898    0.018175    0.196183    0.000000
   253  O3    s     0.760664    0.287582    0.005022    0.000000
   254  O2    s     0.661727    0.450440    0.344035    0.000000
   255  O2    s     0.517784    0.208889    0.674920    0.000000
   256  O2    s     0.197171    0.675540    0.509902    0.000000
   257  O3    s     0.285068    0.505461    0.838344    0.000000
   258  O2    s     0.435918    0.761403    0.177388    0.000000
   259  O2    s     0.283252    0.760296    0.316698    0.000000
   260  O2    s     0.452980    0.684392    0.981636    0.000000
   261  O2    s     0.208756    0.523933    0.648354    0.000000
   262  O2    s     0.673351    0.202185    0.813470    0.000000
   263  O2    s     0.509389    0.298713    0.483097    0.000000
   264  O2    s     0.741481    0.450835    0.148034    0.000000
   265  O3    s     0.774436    0.545654    0.023274    0.000000
   266  O2    s     0.440903    0.240883    0.360986    0.000000
   267  O2    s     0.720848    0.192477    0.692827    0.000000
   268  O2    s     0.187835    0.456404    0.527141    0.000000
   269  O3    s     0.540904    0.745030    0.855329    0.000000
   270  O2    s     0.225143    0.771357    0.195092    0.000000
   271  O2    s     0.504699    0.774881    0.300353    0.000000
   272  O2    s     0.246915    0.459689    0.965831    0.000000
   273  O2    s     0.191663    0.730156    0.633429    0.000000
   274  O2    s     0.454545    0.183346    0.795217    0.000000
   275  O2    s     0.715755    0.519510    0.466346    0.000000
   276  O2    s     0.758384    0.244220    0.130634    0.000000
   277  O2    s     0.226991    0.326596    0.894325    0.000000
   278  O2    s     0.637335    0.890600    0.229717    0.000000
   279  O2    s     0.071950    0.747606    0.562570    0.000000
   280  O2    s     0.731729    0.652277    0.395511    0.000000
   281  O2    s     0.316952    0.069931    0.725083    0.000000
   282  O2    s     0.880833    0.227670    0.061867    0.000000
   283  O2    s     0.307812    0.227576    0.431005    0.000000
   284  O2    s     0.878016    0.649566    0.097593    0.000000
   285  O2    s     0.741253    0.072517    0.762754    0.000000
   286  O2    s     0.649040    0.748992    0.928571    0.000000
   287  O2    s     0.072804    0.322475    0.597289    0.000000
   288  O2    s     0.213071    0.892249    0.265538    0.000000
   289  O2    s     0.564345    0.552355    0.980164    0.000000
   290  O2    s     0.414460    0.005592    0.318873    0.000000
   291  O2    s     0.962135    0.408559    0.650826    0.000000
   292  O2    s     0.393473    0.428861    0.483585    0.000000
   293  O2    s     0.545193    0.959924    0.815426    0.000000
   294  O2    s     0.984695    0.558540    0.150335    0.000000
   295  O2    s     0.531568    0.567141    0.342363    0.000000
   296  O2    s     0.000260    0.429723    0.010905    0.000000
   297  O3    s     0.388947    0.966738    0.666644    0.000000
   298  O2    s     0.427257    0.405561    0.842799    0.000000
   299  O2    s     0.950220    0.548072    0.509481    0.000000
   300  O2    s     0.554345    0.008175    0.177584    0.000000
   301  O2    s     0.546497    0.136291    0.249138    0.000000
   302  O2    s     0.824825    0.411356    0.580647    0.000000
   303  O2    s     0.565232    0.416172    0.912182    0.000000
   304  O3    s     0.397986    0.809061    0.751539    0.000000
   305  O2    s     0.119323    0.558396    0.083215    0.000000
   306  O2    s     0.395874    0.561914    0.413045    0.000000
   307  F     s     0.420694    0.884895    0.245354    0.000000
   308  F     s     0.067629    0.532316    0.578102    0.000000
   309  F     s     0.422596    0.570228    0.901716    0.000000
   310  F     s     0.509510    0.026617    0.732908    0.000000
   311  F     s     0.831811    0.424326    0.068445    0.000000
   312  F     s     0.521249    0.436526    0.411339    0.000000
--------------------------------------------------------------------------------

  Final Cartesian lattice vectors (Angstroms) :

       11.969359    0.004963   -0.000137
       -5.969922   10.383284    0.012117
       -0.291558   -0.263256   29.469998


  Final cell parameters and derivatives :

--------------------------------------------------------------------------------
       a           11.969360 Angstrom     dE/de1(xx)     0.002511 eV/strain
       b           11.977174 Angstrom     dE/de2(yy)     0.001619 eV/strain
       c           29.472616 Angstrom     dE/de3(zz)     0.003189 eV/strain
       alpha       90.103199 Degrees      dE/de4(yz)    -0.000355 eV/strain
       beta        90.567676 Degrees      dE/de5(xz)     0.000166 eV/strain
       gamma      119.873196 Degrees      dE/de6(xy)     0.000346 eV/strain
--------------------------------------------------------------------------------

  Primitive cell volume =          3663.478726 Angs**3

  Density of cell =      1.746453 g/cm**3

  Non-primitive cell volume =          3663.478726 Angs**3


  Final internal derivatives :

--------------------------------------------------------------------------------
   No.  Atomic          a             b             c           Radius
        Label          (eV)          (eV)          (eV)        (eV/Angs)
--------------------------------------------------------------------------------
      1 Ge    c       0.000000      0.000000      0.000000      0.000000
      2 Si    c       0.000012      0.000204      0.000587      0.000000
      3 Si    c      -0.000010      0.000029     -0.000638      0.000000
      4 Si    c       0.000182      0.000012      0.000169      0.000000
      5 Ge    c       0.000163      0.000044     -0.000169      0.000000
      6 Si    c       0.000462     -0.000161      0.001011      0.000000
      7 Si    c       0.000331      0.000179     -0.000299      0.000000
      8 Si    c       0.000637     -0.000255     -0.000775      0.000000
      9 Si    c       0.000093      0.000011     -0.000458      0.000000
     10 Si    c      -0.000115     -0.000346     -0.000462      0.000000
     11 Si    c       0.000104      0.000016      0.000100      0.000000
     12 Si    c       0.000782     -0.000414      0.009533      0.000000
     13 Si    c      -0.002466      0.002408     -0.006853      0.000000
     14 Si    c      -0.000028     -0.000014     -0.000198      0.000000
     15 Si    c      -0.000011     -0.000110     -0.000243      0.000000
     16 Si    c       0.000183      0.000078     -0.000096      0.000000
     17 Si    c       0.000109      0.000113      0.000207      0.000000
     18 Si    c       0.000554      0.000054      0.002065      0.000000
     19 Si    c       0.000249      0.000221      0.000289      0.000000
     20 Si    c      -0.000536     -0.000373     -0.001207      0.000000
     21 Ge    c       0.000262      0.000079      0.000109      0.000000
     22 Si    c      -0.000373      0.000376     -0.000468      0.000000
     23 Si    c      -0.000006      0.000013      0.000024      0.000000
     24 Si    c      -0.000154      0.000015      0.001172      0.000000
     25 Si    c       0.000177     -0.000236     -0.000501      0.000000
     26 Si    c       0.000377     -0.000134      0.000226      0.000000
     27 Si    c       0.000113      0.000170     -0.000044      0.000000
     28 Si    c       0.000201      0.000293     -0.000059      0.000000
     29 Si    c      -0.000096      0.000031     -0.000382      0.000000
     30 Si    c       0.000997      0.000113     -0.002172      0.000000
     31 Si    c       0.000115     -0.000099      0.000058      0.000000
     32 Si    c       0.000564      0.000377      0.002510      0.000000
     33 Si    c       0.000019     -0.000126      0.000223      0.000000
     34 Si    c      -0.000234      0.000076     -0.000540      0.000000
     35 Si    c       0.000078     -0.000149     -0.000219      0.000000
     36 Si    c       0.000108      0.000248     -0.000176      0.000000
     37 Si    c      -0.000003      0.000180     -0.000296      0.000000
     38 Si    c       0.000194     -0.000012     -0.000295      0.000000
     39 Si    c       0.000106     -0.000032     -0.000397      0.000000
     40 Si    c       0.000159      0.000201     -0.000173      0.000000
     41 Si    c      -0.000015      0.000133      0.000308      0.000000
     42 Si    c       0.001098     -0.000582      0.001618      0.000000
     43 Si    c       0.000187     -0.000040      0.000306      0.000000
     44 Si    c      -0.000089     -0.000396     -0.004930      0.000000
     45 Si    c       0.000048     -0.000158     -0.000122      0.000000
     46 Si    c       0.000159      0.000140     -0.000236      0.000000
     47 Si    c       0.000073      0.000007      0.000252      0.000000
     48 Si    c      -0.000018      0.000212      0.000459      0.000000
     49 Si    c       0.000221     -0.000453      0.000655      0.000000
     50 Si    c       0.000254      0.000094      0.000066      0.000000
     51 Si    c       0.000158      0.000150     -0.000258      0.000000
     52 Si    c       0.000087      0.000019     -0.000348      0.000000
     53 Si    c       0.000214     -0.000003      0.000495      0.000000
     54 Si    c      -0.000148      0.000258      0.001157      0.000000
     55 Si    c       0.000062      0.000109      0.000226      0.000000
     56 Si    c      -0.000058      0.001759     -0.001337      0.000000
     57 Si    c       0.000071      0.000064     -0.001080      0.000000
     58 Si    c       0.000266      0.000149     -0.000452      0.000000
     59 Si    c       0.000233      0.000058      0.000211      0.000000
     60 Si    c       0.000187      0.000229      0.000244      0.000000
     61 O2    c       0.000396     -0.000132     -0.000185      0.000000
     62 O2    c       0.000224      0.000048     -0.000029      0.000000
     63 O2    c      -0.000021      0.000008      0.000010      0.000000
     64 O2    c       0.000187      0.000047      0.000085      0.000000
     65 O2    c       0.000086     -0.000177      0.000045      0.000000
     66 O2    c       0.000126      0.000265      0.000203      0.000000
     67 O2    c       0.000136      0.000213     -0.000307      0.000000
     68 O3    c      -0.000088     -0.000197     -0.000285      0.000000
     69 O2    c       0.000140      0.000652      0.000279      0.000000
     70 O2    c       0.000062      0.000347      0.000441      0.000000
     71 O2    c      -0.000660     -0.000317      0.001818      0.000000
     72 O2    c       0.000261      0.000128      0.000128      0.000000
     73 O3    c      -0.000512     -0.004505      0.003556      0.000000
     74 O2    c       0.000198     -0.000094     -0.000000      0.000000
     75 O2    c       0.000194     -0.000045     -0.000212      0.000000
     76 O2    c       0.000142     -0.000087     -0.000039      0.000000
     77 O2    c       0.000147     -0.000346     -0.000947      0.000000
     78 O3    c      -0.000101      0.000311     -0.000498      0.000000
     79 O2    c       0.001311      0.000049      0.000349      0.000000
     80 O2    c       0.000093      0.000114     -0.000180      0.000000
     81 O2    c       0.000127     -0.000241     -0.000176      0.000000
     82 O2    c       0.000281      0.000018     -0.000200      0.000000
     83 O2    c       0.000056      0.000090     -0.000269      0.000000
     84 O2    c       0.000267     -0.000318      0.000179      0.000000
     85 O2    c       0.000234      0.000115      0.000171      0.000000
     86 O2    c       0.003397     -0.003153     -0.001434      0.000000
     87 O2    c      -0.000225     -0.000009     -0.000081      0.000000
     88 O2    c       0.000110     -0.000116      0.000158      0.000000
     89 O2    c       0.000182      0.000065      0.000182      0.000000
     90 O2    c       0.000205      0.000005      0.000487      0.000000
     91 O2    c       0.000246      0.000004     -0.000245      0.000000
     92 O2    c       0.000099      0.000075     -0.000058      0.000000
     93 O2    c       0.000187     -0.000428     -0.003853      0.000000
     94 O2    c       0.000309     -0.000283      0.001594      0.000000
     95 O2    c      -0.000327      0.001137      0.006258      0.000000
     96 O2    c       0.000166      0.000045      0.000147      0.000000
     97 O2    c      -0.001684      0.001262      0.000179      0.000000
     98 O2    c       0.000094     -0.000007      0.000441      0.000000
     99 O2    c       0.000094     -0.000074      0.000232      0.000000
    100 O2    c       0.000054     -0.000010      0.000368      0.000000
    101 O2    c       0.000131     -0.000069     -0.000165      0.000000
    102 O2    c       0.000249      0.000242      0.000201      0.000000
    103 O2    c       0.000381      0.000011     -0.000327      0.000000
    104 O2    c      -0.003262      0.000711     -0.001071      0.000000
    105 O2    c       0.000033      0.000224     -0.000520      0.000000
    106 O2    c      -0.000068      0.000059     -0.000274      0.000000
    107 O2    c       0.000040      0.000135     -0.000333      0.000000
    108 O2    c       0.000182      0.000104      0.000772      0.000000
    109 O2    c       0.000134      0.000221      0.000037      0.000000
    110 O2    c      -0.000037     -0.000054      0.000112      0.000000
    111 O3    c       0.000002      0.000149     -0.000607      0.000000
    112 O2    c       0.000093      0.000073     -0.000562      0.000000
    113 O3    c      -0.004263     -0.001047     -0.002562      0.000000
    114 O2    c       0.000039      0.000175     -0.000149      0.000000
    115 O2    c      -0.001633      0.000436     -0.000257      0.000000
    116 O2    c       0.000104      0.000211      0.000076      0.000000
    117 O2    c       0.000168     -0.000018     -0.000203      0.000000
    118 O2    c       0.000049     -0.000030     -0.000106      0.000000
    119 O2    c       0.000108      0.000047     -0.000073      0.000000
    120 O2    c       0.000737      0.000132      0.000558      0.000000
    121 O2    c       0.000243     -0.000004      0.000136      0.000000
    122 O2    c      -0.000033      0.000849     -0.000785      0.000000
    123 O3    c      -0.000089      0.000083      0.000251      0.000000
    124 O2    c       0.000018     -0.000172      0.000305      0.000000
    125 O2    c       0.000219      0.000115      0.000198      0.000000
    126 O2    c       0.000146     -0.000042      0.000285      0.000000
    127 O3    c      -0.000714     -0.000154     -0.000828      0.000000
    128 O2    c       0.000088      0.000140      0.000157      0.000000
    129 O2    c       0.000196     -0.000037      0.000244      0.000000
    130 O2    c       0.000015     -0.000021      0.000269      0.000000
    131 O3    c      -0.000062      0.000563     -0.000130      0.000000
    132 O2    c       0.000215      0.000174      0.000165      0.000000
    133 O2    c       0.000251      0.000073     -0.000023      0.000000
    134 O2    c       0.000585     -0.000190     -0.000075      0.000000
    135 O2    c       0.000013     -0.000005     -0.000208      0.000000
    136 O2    c       0.000099     -0.000009     -0.000038      0.000000
    137 O2    c       0.000196      0.000180     -0.000338      0.000000
    138 O2    c      -0.000261      0.000364      0.000468      0.000000
    139 O3    c      -0.001531     -0.001524     -0.002231      0.000000
    140 O2    c       0.000257      0.000172      0.000160      0.000000
    141 O2    c      -0.000074      0.000139     -0.000002      0.000000
    142 O2    c       0.000057      0.000030      0.000169      0.000000
    143 O3    c      -0.000036     -0.000039      0.000065      0.000000
    144 O2    c       0.000029      0.000287      0.000160      0.000000
    145 O2    c       0.000035      0.000121      0.000032      0.000000
    146 O2    c       0.000195     -0.000071     -0.000025      0.000000
    147 O2    c      -0.000052      0.000015     -0.000211      0.000000
    148 O2    c       0.000087      0.000033     -0.000128      0.000000
    149 O2    c       0.000090      0.000025     -0.000111      0.000000
    150 O2    c       0.000169     -0.000256      0.000717      0.000000
    151 O2    c       0.000094     -0.000144      0.001329      0.000000
    152 O2    c       0.000045      0.000168     -0.000130      0.000000
    153 O2    c       0.000109     -0.000150      0.000366      0.000000
    154 O2    c       0.000067     -0.000028      0.000051      0.000000
    155 O2    c       0.000045      0.000018      0.000289      0.000000
    156 O2    c       0.000676     -0.000755     -0.001289      0.000000
    157 O2    c       0.000240      0.000158     -0.000229      0.000000
    158 O2    c      -0.000177      0.001103      0.001664      0.000000
    159 O2    c      -0.000007      0.000032     -0.000035      0.000000
    160 O2    c       0.000071     -0.000035      0.000391      0.000000
    161 O2    c       0.000062      0.000142     -0.000320      0.000000
    162 O2    c       0.000218      0.000087     -0.000297      0.000000
    163 O2    c      -0.000132      0.000916      0.000149      0.000000
    164 O2    c       0.000324      0.000096     -0.000100      0.000000
    165 O2    c       0.000145      0.000009     -0.000342      0.000000
    166 O2    c       0.000135      0.000248     -0.000196      0.000000
    167 O2    c       0.000040      0.000056     -0.000271      0.000000
    168 O2    c       0.000547     -0.000077      0.000654      0.000000
    169 O2    c       0.000243     -0.000036      0.000356      0.000000
    170 O2    c       0.000460     -0.000218     -0.000634      0.000000
    171 O3    c       0.000039     -0.000009      0.000078      0.000000
    172 O2    c       0.000625     -0.000116      0.000482      0.000000
    173 O2    c       0.000161     -0.000065      0.000283      0.000000
    174 O2    c       0.000271     -0.000052      0.000143      0.000000
    175 O2    c       0.000156     -0.000010     -0.000068      0.000000
    176 O2    c       0.000255      0.000029     -0.000059      0.000000
    177 O2    c       0.000078      0.000440     -0.003534      0.000000
    178 O3    c       0.000048      0.000032     -0.000069      0.000000
    179 O2    c       0.000839     -0.000014      0.000198      0.000000
    180 O2    c       0.000256     -0.000021      0.000265      0.000000
    181 F     c       0.000204      0.000086     -0.000094      0.000000
    182 F     c       0.000058     -0.000021     -0.000053      0.000000
    183 F     c       0.000300     -0.000171      0.000255      0.000000
    184 F     c       0.000083     -0.000006      0.000031      0.000000
    185 F     c       0.000527      0.000256     -0.000510      0.000000
    186 F     c       0.000176      0.000095     -0.000023      0.000000
    187 O2    s       0.000950      0.000088     -0.000551      0.000000
    188 O2    s       0.000272      0.000102      0.000111      0.000000
    189 O2    s       0.000048     -0.000014     -0.000528      0.000000
    190 O2    s       0.000322     -0.000027      0.000015      0.000000
    191 O2    s       0.000038      0.000113     -0.000168      0.000000
    192 O2    s       0.000261      0.000114      0.000243      0.000000
    193 O2    s       0.000454      0.000107     -0.000307      0.000000
    194 O3    s      -0.000124      0.000323     -0.000168      0.000000
    195 O2    s       0.000121      0.000121     -0.000633      0.000000
    196 O2    s       0.000111      0.000108      0.000733      0.000000
    197 O2    s       0.000093     -0.000244      0.002897      0.000000
    198 O2    s       0.000097      0.000154      0.000098      0.000000
    199 O3    s       0.001228      0.002837      0.002574      0.000000
    200 O2    s       0.000227     -0.000236     -0.000014      0.000000
    201 O2    s       0.000112      0.000067     -0.000212      0.000000
    202 O2    s       0.000153      0.000042     -0.000146      0.000000
    203 O2    s       0.000305      0.000125      0.000036      0.000000
    204 O3    s       0.000115      0.000068     -0.000269      0.000000
    205 O2    s       0.001295      0.000196      0.000285      0.000000
    206 O2    s       0.000146      0.000126     -0.000324      0.000000
    207 O2    s       0.000226     -0.000168     -0.000329      0.000000
    208 O2    s       0.000295     -0.000027     -0.000320      0.000000
    209 O2    s       0.000106      0.000037     -0.000031      0.000000
    210 O2    s       0.000226     -0.000150      0.001355      0.000000
    211 O2    s       0.000274      0.000068      0.000197      0.000000
    212 O2    s       0.002513     -0.001261     -0.003173      0.000000
    213 O2    s      -0.000230     -0.000006     -0.000318      0.000000
    214 O2    s       0.000040      0.000133      0.000043      0.000000
    215 O2    s       0.000212      0.000013      0.000349      0.000000
    216 O2    s       0.000202      0.000128      0.000200      0.000000
    217 O2    s       0.000234      0.000244     -0.000079      0.000000
    218 O2    s       0.000174      0.000062     -0.000162      0.000000
    219 O2    s      -0.000075     -0.000483     -0.002149      0.000000
    220 O2    s       0.000180      0.000019      0.000787      0.000000
    221 O2    s       0.000222      0.001248      0.003694      0.000000
    222 O2    s       0.000259     -0.000046      0.000076      0.000000
    223 O2    s      -0.001225      0.001062      0.000421      0.000000
    224 O2    s       0.000093      0.000143      0.000509      0.000000
    225 O2    s       0.000130     -0.000098      0.000086      0.000000
    226 O2    s       0.000090      0.000060      0.000199      0.000000
    227 O2    s      -0.000119      0.000128     -0.000487      0.000000
    228 O2    s       0.000149      0.000070      0.000605      0.000000
    229 O2    s       0.000205      0.000165     -0.000173      0.000000
    230 O2    s      -0.002307      0.000444     -0.002438      0.000000
    231 O2    s      -0.000085      0.000249     -0.000672      0.000000
    232 O2    s       0.000012      0.000092     -0.000161      0.000000
    233 O2    s       0.000119      0.000086     -0.000179      0.000000
    234 O2    s       0.000232      0.000345      0.001173      0.000000
    235 O2    s       0.000311      0.000254     -0.000095      0.000000
    236 O2    s      -0.000120      0.000109     -0.000005      0.000000
    237 O3    s       0.000191      0.000082     -0.000864      0.000000
    238 O2    s       0.000213     -0.000136     -0.000497      0.000000
    239 O3    s       0.002314      0.001289     -0.002059      0.000000
    240 O2    s       0.000046      0.000232      0.000115      0.000000
    241 O2    s      -0.000386      0.000393     -0.000173      0.000000
    242 O2    s       0.000176      0.000198     -0.000126      0.000000
    243 O2    s       0.000316     -0.000220     -0.000283      0.000000
    244 O2    s       0.000157      0.000077     -0.000176      0.000000
    245 O2    s       0.000176      0.000053     -0.000336      0.000000
    246 O2    s       0.000036      0.000425      0.000786      0.000000
    247 O2    s       0.000449     -0.000029      0.000219      0.000000
    248 O2    s       0.000376     -0.000152     -0.000795      0.000000
    249 O3    s       0.000037      0.000130      0.000122      0.000000
    250 O2    s       0.000288     -0.000202     -0.000337      0.000000
    251 O2    s       0.000096      0.000118      0.000428      0.000000
    252 O2    s       0.000458      0.000042      0.000460      0.000000
    253 O3    s       0.000460      0.000027      0.000067      0.000000
    254 O2    s       0.000060      0.000223      0.000259      0.000000
    255 O2    s       0.000188     -0.000078      0.000121      0.000000
    256 O2    s       0.000095     -0.000020      0.000513      0.000000
    257 O3    s      -0.000168      0.000219     -0.000896      0.000000
    258 O2    s       0.000244      0.000311      0.000592      0.000000
    259 O2    s       0.000245      0.000123     -0.000266      0.000000
    260 O2    s       0.000143      0.000054      0.000256      0.000000
    261 O2    s      -0.000160      0.000087     -0.000232      0.000000
    262 O2    s       0.000032     -0.000084     -0.000193      0.000000
    263 O2    s       0.000102      0.000111     -0.000180      0.000000
    264 O2    s       0.000310     -0.000155      0.000810      0.000000
    265 O3    s       0.000396     -0.000953      0.001910      0.000000
    266 O2    s       0.000120      0.000236      0.000312      0.000000
    267 O2    s      -0.000089      0.000112      0.000087      0.000000
    268 O2    s      -0.000031      0.000154      0.000431      0.000000
    269 O3    s       0.000136      0.000161     -0.000327      0.000000
    270 O2    s       0.000385      0.000406      0.000444      0.000000
    271 O2    s       0.000208     -0.000033     -0.000247      0.000000
    272 O2    s       0.000203      0.000298     -0.000461      0.000000
    273 O2    s       0.000041     -0.000212     -0.000651      0.000000
    274 O2    s       0.000197     -0.000333     -0.000136      0.000000
    275 O2    s       0.000149      0.000052     -0.000161      0.000000
    276 O2    s      -0.000314      0.000101      0.001406      0.000000
    277 O2    s      -0.000167      0.000167      0.000567      0.000000
    278 O2    s       0.000166      0.000133     -0.000126      0.000000
    279 O2    s       0.000305     -0.000213      0.000044      0.000000
    280 O2    s       0.000114      0.000051     -0.000073      0.000000
    281 O2    s       0.000285     -0.000139      0.000113      0.000000
    282 O2    s      -0.000506      0.000566     -0.000126      0.000000
    283 O2    s       0.000314      0.000142     -0.000123      0.000000
    284 O2    s       0.000299     -0.000131      0.001278      0.000000
    285 O2    s      -0.000036      0.000038     -0.000005      0.000000
    286 O2    s       0.000093     -0.000057      0.000108      0.000000
    287 O2    s      -0.000067      0.000196     -0.000003      0.000000
    288 O2    s       0.000480      0.000126     -0.000174      0.000000
    289 O2    s       0.000135     -0.000511     -0.000577      0.000000
    290 O2    s       0.000183      0.000204     -0.000368      0.000000
    291 O2    s       0.000067      0.000010     -0.000560      0.000000
    292 O2    s       0.000237      0.000083     -0.000370      0.000000
    293 O2    s       0.000080      0.000092     -0.000156      0.000000
    294 O2    s       0.000499     -0.000097      0.000019      0.000000
    295 O2    s       0.000282      0.000050      0.000407      0.000000
    296 O2    s      -0.000420      0.000171      0.000186      0.000000
    297 O3    s       0.000119     -0.000049      0.000123      0.000000
    298 O2    s       0.000498     -0.000225     -0.000581      0.000000
    299 O2    s       0.000258     -0.000048      0.000473      0.000000
    300 O2    s       0.000217      0.000106      0.000298      0.000000
    301 O2    s       0.000257     -0.000010     -0.000087      0.000000
    302 O2    s       0.000299     -0.000097      0.000038      0.000000
    303 O2    s       0.000872      0.000087     -0.001854      0.000000
    304 O3    s       0.000016      0.000255      0.000196      0.000000
    305 O2    s      -0.000243      0.000202      0.001154      0.000000
    306 O2    s       0.000400      0.000021      0.000070      0.000000
    307 F     s       0.000214      0.000151     -0.000112      0.000000
    308 F     s       0.000074     -0.000023      0.000011      0.000000
    309 F     s       0.000129      0.000070      0.000208      0.000000
    310 F     s       0.000024     -0.000063     -0.000053      0.000000
    311 F     s      -0.000358     -0.000169     -0.000476      0.000000
    312 F     s       0.000182      0.000075     -0.000065      0.000000
--------------------------------------------------------------------------------
  Maximum abs         0.004263      0.004505      0.009533      0.000000
--------------------------------------------------------------------------------


  Time to end of optimisation =      47.8395 seconds


  Peak dynamic memory used =      19.13 MB 


  Timing analysis for GULP :

--------------------------------------------------------------------------------
  Task / Subroutine                                          Time (Seconds)
--------------------------------------------------------------------------------
  Calculation of reciprocal space energy and derivatives          1.3015
  Calculation of real space energy and derivatives               41.5029
  Calculation of three-body energy and derivatives                4.2043
  Calculation of matrix inversion                                 0.7438
--------------------------------------------------------------------------------
  Total CPU time                                                 47.8395
--------------------------------------------------------------------------------


  Dump file written as out.res                                                 
  CIF file written as out.cif                                                 


  Job Finished at 00:53.45 26th October    2016                               

