********************************************************************************
*                       GENERAL UTILITY LATTICE PROGRAM                        *
*                                 Julian Gale                                  *
*                      Nanochemistry Research Institute                        *
*                           Department of Chemistry                            *
*                    Curtin University, Western Australia                      *
********************************************************************************
* Version = 4.2.0 * Last modified =  20th January 2014                         *
********************************************************************************
*  optimise     - perform optimisation run                                     *
*  conp         - constant pressure calculation                                *
*  qok          - running with non charge neutral cell is OK                   *
********************************************************************************

  Job Started  at 06:24.53 26th October    2016                               

  Number of CPUs =     1


  Total number of configurations input =   1

********************************************************************************
*  Input for Configuration =   1                                               *
********************************************************************************

  Formula = Ge3Si57O120F6                                               

  Number of irreducible atoms/shells =     312


  Total number atoms/shells =     312

  Dimensionality = 3               :  Bulk   


  Charge on solid   =  -6.000000 =>neutralising background added


  Cartesian lattice vectors (Angstroms) :

       11.919283    0.000000    0.000000
       -5.899281   10.401812    0.000000
       -0.247194   -0.294924   29.504541

  Cell parameters (Angstroms/Degrees):

  a =      11.9193    alpha =  90.2613
  b =      11.9582    beta  =  90.4800
  c =      29.5071    gamma = 119.5593

  Initial cell volume =        3658.036213 Angs**3

  Temperature of configuration =  0.000     K 

  Pressure of configuration =         0.000 GPa 

  Fractional coordinates of asymmetric unit :

--------------------------------------------------------------------------------
   No.  Atomic       x           y          z         Charge      Occupancy
        Label      (Frac)      (Frac)     (Frac)        (e)         (Frac)  
--------------------------------------------------------------------------------
      1 Ge    c    0.699600    0.375700    0.033890     4.00000    1.000000    
      2 Si    c    0.619194 *  0.325296 *  0.363557 *   4.00000    1.000000    
      3 Si    c    0.672360 *  0.284793 *  0.697369 *   4.00000    1.000000    
      4 Si    c    0.297606 *  0.623528 *  0.529871 *   4.00000    1.000000    
      5 Ge    c    0.386721 *  0.664414 *  0.865957 *   4.00000    1.000000    
      6 Si    c    0.315251 *  0.701687 *  0.196549 *   4.00000    1.000000    
      7 Si    c    0.373464 *  0.700222 *  0.296838 *   4.00000    1.000000    
      8 Si    c    0.313683 *  0.628402 *  0.963334 *   4.00000    1.000000    
      9 Si    c    0.305489 *  0.676353 *  0.632966 *   4.00000    1.000000    
     10 Si    c    0.622249 *  0.290054 *  0.797198 *   4.00000    1.000000    
     11 Si    c    0.674973 *  0.382695 *  0.463879 *   4.00000    1.000000    
     12 Si    c    0.678465 *  0.315209 *  0.132181 *   4.00000    1.000000    
     13 Si    c    0.532115 *  0.420969 *  0.964357 *   4.00000    1.000000    
     14 Si    c    0.577735 *  0.110772 *  0.300268 *   4.00000    1.000000    
     15 Si    c    0.878480 *  0.465780 *  0.633575 *   4.00000    1.000000    
     16 Si    c    0.466718 *  0.583496 *  0.463413 *   4.00000    1.000000    
     17 Si    c    0.423663 *  0.876497 *  0.799280 *   4.00000    1.000000    
     18 Si    c    0.100416 *  0.527141 *  0.131414 *   4.00000    1.000000    
     19 Si    c    0.414335 *  0.529974 *  0.361809 *   4.00000    1.000000    
     20 Si    c    0.098798 *  0.577966 *  0.028457 *   4.00000    1.000000    
     21 Si    c    0.479092 *  0.879516 *  0.697373 *   4.00000    1.000000    
     22 Si    c    0.585473 *  0.468024 *  0.861293 *   4.00000    1.000000    
     23 Si    c    0.884436 *  0.419953 *  0.529675 *   4.00000    1.000000    
     24 Si    c    0.520073 *  0.109077 *  0.199218 *   4.00000    1.000000    
     25 Si    c    0.296724 *  0.392403 *  0.843754 *   4.00000    1.000000    
     26 Si    c    0.593077 *  0.901758 *  0.182169 *   4.00000    1.000000    
     27 Si    c    0.094280 *  0.703538 *  0.512624 *   4.00000    1.000000    
     28 Si    c    0.695503 *  0.601941 *  0.348035 *   4.00000    1.000000    
     29 Si    c    0.397237 *  0.081931 *  0.680633 *   4.00000    1.000000    
     30 Si    c    0.889108 *  0.291780 *  0.011541 *   4.00000    1.000000    
     31 Si    c    0.395316 *  0.303101 *  0.477716 *   4.00000    1.000000    
     32 Si    c    0.884409 *  0.598453 *  0.143385 *   4.00000    1.000000    
     33 Si    c    0.704042 *  0.092222 *  0.811938 *   4.00000    1.000000    
     34 Si    c    0.598780 *  0.706853 *  0.975435 *   4.00000    1.000000    
     35 Si    c    0.096025 *  0.396027 *  0.647233 *   4.00000    1.000000    
     36 Si    c    0.297252 *  0.902447 *  0.312975 *   4.00000    1.000000    
     37 Si    c    0.249706 *  0.345256 *  0.946393 *   4.00000    1.000000    
     38 Si    c    0.653689 *  0.908477 *  0.282749 *   4.00000    1.000000    
     39 Ge    c    0.088565 *  0.728427 *  0.612684 *   4.00000    1.000000    
     40 Si    c    0.746497 *  0.662805 *  0.448742 *   4.00000    1.000000    
     41 Si    c    0.344199 *  0.077615 *  0.781298 *   4.00000    1.000000    
     42 Si    c    0.896580 *  0.247416 *  0.114734 *   4.00000    1.000000    
     43 Si    c    0.337201 *  0.251819 *  0.376834 *   4.00000    1.000000    
     44 Si    c    0.893542 *  0.658986 *  0.041121 *   4.00000    1.000000    
     45 Si    c    0.755304 *  0.084427 *  0.711746 *   4.00000    1.000000    
     46 Si    c    0.669133 *  0.753585 *  0.873486 *   4.00000    1.000000    
     47 Si    c    0.086477 *  0.338460 *  0.544923 *   4.00000    1.000000    
     48 Si    c    0.241840 *  0.909589 *  0.212592 *   4.00000    1.000000    
     49 Si    c    0.976682 *  0.123307 *  0.962618 *   4.00000    1.000000    
     50 Si    c    0.872912 *  0.847151 *  0.296919 *   4.00000    1.000000    
     51 Si    c    0.148281 *  0.014700 *  0.628449 *   4.00000    1.000000    
     52 Si    c    0.025855 *  0.880319 *  0.461937 *   4.00000    1.000000    
     53 Si    c    0.125648 *  0.138088 *  0.794560 *   4.00000    1.000000    
     54 Si    c    0.839121 *  0.970643 *  0.130297 *   4.00000    1.000000    
     55 Si    c    0.118069 *  0.972959 *  0.361966 *   4.00000    1.000000    
     56 Si    c    0.847130 *  0.885844 *  0.028358 *   4.00000    1.000000    
     57 Si    c    0.033413 *  0.144789 *  0.694074 *   4.00000    1.000000    
     58 Si    c    0.889373 *  0.026636 *  0.861599 *   4.00000    1.000000    
     59 Si    c    0.151616 *  0.120665 *  0.529068 *   4.00000    1.000000    
     60 Si    c    0.961165 *  0.848527 *  0.195435 *   4.00000    1.000000    
     61 O2    c    0.934471 *  0.007371 *  0.997554 *   0.87073    1.000000    
     62 O2    c    0.998769 *  0.930430 *  0.327586 *   0.87073    1.000000    
     63 O2    c    0.076576 *  0.072364 *  0.659099 *   0.87073    1.000000    
     64 O2    c    0.072003 *  0.002702 *  0.494630 *   0.87073    1.000000    
     65 O2    c    0.007262 *  0.066543 *  0.828211 *   0.87073    1.000000    
     66 O2    c    0.922536 *  0.930927 *  0.162576 *   0.87073    1.000000    
     67 O2    c    0.336407 *  0.577676 *  0.328977 *   0.87073    1.000000    
     68 O2    c    0.433343 *  0.752911 *  0.664935 *   0.87073    1.000000    
     69 O2    c    0.229112 *  0.656452 *  0.000037 *   0.87073    1.000000    
     70 O2    c    0.658953 *  0.413187 *  0.830244 *   0.87073    1.000000    
     71 O2    c    0.569086 *  0.237420 *  0.169399 *   0.87073    1.000000    
     72 O2    c    0.759192 *  0.343573 *  0.496829 *   0.87073    1.000000    
     73 O3    c    0.568589 *  0.341021 *  0.997411 *   1.33043    1.000000    
     74 O2    c    0.750789 *  0.405781 *  0.663938 *   0.87073    1.000000    
     75 O2    c    0.656812 *  0.236809 *  0.332245 *   0.87073    1.000000    
     76 O2    c    0.417496 *  0.658648 *  0.496544 *   0.87073    1.000000    
     77 O2    c    0.226625 *  0.578243 *  0.163776 *   0.87073    1.000000    
     78 O3    c    0.345888 *  0.758022 *  0.830621 *   1.33043    1.000000    
     79 O2    c    0.129474 *  0.219646 *  0.968577 *   0.87073    1.000000    
     80 O2    c    0.780532 *  0.909052 *  0.303180 *   0.87073    1.000000    
     81 O3    c    0.080854 *  0.866138 *  0.633469 *   1.33043    1.000000    
     82 O2    c    0.871630 *  0.790956 *  0.468344 *   0.87073    1.000000    
     83 O2    c    0.215320 *  0.073690 *  0.801081 *   0.87073    1.000000    
     84 O2    c    0.899007 *  0.124212 *  0.136135 *   0.87073    1.000000    
     85 O2    c    0.210510 *  0.126270 *  0.356358 *   0.87073    1.000000    
     86 O2    c    0.912817 *  0.796897 *  0.024963 *   0.87073    1.000000    
     87 O2    c    0.879319 *  0.083678 *  0.689958 *   0.87073    1.000000    
     88 O2    c    0.806310 *  0.872281 *  0.857734 *   0.87073    1.000000    
     89 O2    c    0.088139 *  0.213541 *  0.524850 *   0.87073    1.000000    
     90 O2    c    0.115422 *  0.909972 *  0.192028 *   0.87073    1.000000    
     91 O2    c    0.918577 *  0.858028 *  0.245660 *   0.87073    1.000000    
     92 O2    c    0.143154 *  0.066280 *  0.578311 *   0.87073    1.000000    
     93 O2    c    0.944055 *  0.067574 *  0.912306 *   0.87073    1.000000    
     94 O2    c    0.072818 *  0.124183 *  0.743860 *   0.87073    1.000000    
     95 O2    c    0.851089 *  0.934493 *  0.079315 *   0.87073    1.000000    
     96 O2    c    0.060577 *  0.935278 *  0.411592 *   0.87073    1.000000    
     97 O2    c    0.902239 *  0.201299 *  0.973649 *   0.87073    1.000000    
     98 O2    c    0.793899 *  0.696860 *  0.309894 *   0.87073    1.000000    
     99 O2    c    0.300925 *  0.079789 *  0.641354 *   0.87073    1.000000    
    100 O2    c    0.092546 *  0.793049 *  0.470957 *   0.87073    1.000000    
    101 O2    c    0.208071 *  0.288956 *  0.805653 *   0.87073    1.000000    
    102 O2    c    0.688314 *  0.899887 *  0.143410 *   0.87073    1.000000    
    103 O2    c    0.200808 *  0.902143 *  0.351547 *   0.87073    1.000000    
    104 O2    c    0.696965 *  0.805822 *  0.013749 *   0.87073    1.000000    
    105 O2    c    0.099176 *  0.298034 *  0.684162 *   0.87073    1.000000    
    106 O2    c    0.803446 *  0.093292 *  0.850519 *   0.87073    1.000000    
    107 O2    c    0.301840 *  0.206012 *  0.515898 *   0.87073    1.000000    
    108 O2    c    0.889968 *  0.697960 *  0.181946 *   0.87073    1.000000    
    109 O2    c    0.316947 *  0.643398 *  0.246187 *   0.87073    1.000000    
    110 O2    c    0.352203 *  0.675769 *  0.580613 *   0.87073    1.000000    
    111 O3    c    0.306602 *  0.683254 *  0.915556 *   1.33043    1.000000    
    112 O2    c    0.676840 *  0.348130 *  0.747124 *   0.87073    1.000000    
    113 O3    c    0.610013 *  0.303014 *  0.084395 *   1.33043    1.000000    
    114 O2    c    0.676755 *  0.325623 *  0.413786 *   0.87073    1.000000    
    115 O2    c    0.375462 *  0.340681 *  0.963090 *   0.87073    1.000000    
    116 O2    c    0.664998 *  0.040920 *  0.301782 *   0.87073    1.000000    
    117 O3    c    0.940810 *  0.617406 *  0.638067 *   1.33043    1.000000    
    118 O2    c    0.622697 *  0.671246 *  0.466779 *   0.87073    1.000000    
    119 O2    c    0.337611 *  0.948672 *  0.799712 *   0.87073    1.000000    
    120 O2    c    0.028370 *  0.371634 *  0.132679 *   0.87073    1.000000    
    121 O2    c    0.326881 *  0.374283 *  0.358613 *   0.87073    1.000000    
    122 O2    c    0.026042 *  0.661385 *  0.025896 *   0.87073    1.000000    
    123 O2    c    0.634963 *  0.950397 *  0.693903 *   0.87073    1.000000    
    124 O2    c    0.672129 *  0.623221 *  0.858970 *   0.87073    1.000000    
    125 O2    c    0.956156 *  0.334573 *  0.526977 *   0.87073    1.000000    
    126 O2    c    0.363833 *  0.040652 *  0.194633 *   0.87073    1.000000    
    127 O3    c    0.754726 *  0.283909 *  0.002174 *   1.33043    1.000000    
    128 O2    c    0.694422 *  0.466883 *  0.340682 *   0.87073    1.000000    
    129 O2    c    0.530086 *  0.216482 *  0.673892 *   0.87073    1.000000    
    130 O2    c    0.227225 *  0.697052 *  0.507759 *   0.87073    1.000000    
    131 O3    c    0.292050 *  0.519325 *  0.833742 *   1.33043    1.000000    
    132 O2    c    0.457280 *  0.769625 *  0.173693 *   0.87073    1.000000    
    133 O2    c    0.297578 *  0.768188 *  0.319095 *   0.87073    1.000000    
    134 O2    c    0.463208 *  0.704826 *  0.982791 *   0.87073    1.000000    
    135 O2    c    0.230286 *  0.529723 *  0.652107 *   0.87073    1.000000    
    136 O2    c    0.701748 *  0.225644 *  0.819940 *   0.87073    1.000000    
    137 O2    c    0.531988 *  0.307718 *  0.485529 *   0.87073    1.000000    
    138 O2    c    0.752233 *  0.464697 *  0.150629 *   0.87073    1.000000    
    139 O3    c    0.767339 *  0.546038 *  0.019723 *   1.33043    1.000000    
    140 O2    c    0.463051 *  0.250906 *  0.357530 *   0.87073    1.000000    
    141 O2    c    0.754509 *  0.209842 *  0.692013 *   0.87073    1.000000    
    142 O2    c    0.208409 *  0.468766 *  0.527607 *   0.87073    1.000000    
    143 O3    c    0.554788 *  0.763003 *  0.850664 *   1.33043    1.000000    
    144 O2    c    0.238348 *  0.781741 *  0.192621 *   0.87073    1.000000    
    145 O2    c    0.529320 *  0.782738 *  0.301792 *   0.87073    1.000000    
    146 O2    c    0.250053 *  0.472017 *  0.965318 *   0.87073    1.000000    
    147 O3    c    0.232238 *  0.756287 *  0.640339 *   1.33043    1.000000    
    148 O2    c    0.466320 *  0.207340 *  0.801367 *   0.87073    1.000000    
    149 O2    c    0.748810 *  0.538522 *  0.468693 *   0.87073    1.000000    
    150 O2    c    0.773083 *  0.252390 *  0.133592 *   0.87073    1.000000    
    151 O2    c    0.230449 *  0.328851 *  0.892174 *   0.87073    1.000000    
    152 O2    c    0.668749 *  0.904904 *  0.228397 *   0.87073    1.000000    
    153 O3    c    0.091928 *  0.781361 *  0.555799 *   1.33043    1.000000    
    154 O2    c    0.765196 *  0.677600 *  0.394462 *   0.87073    1.000000    
    155 O2    c    0.324418 *  0.078830 *  0.727073 *   0.87073    1.000000    
    156 O2    c    0.894947 *  0.230939 *  0.060528 *   0.87073    1.000000    
    157 O2    c    0.321500 *  0.232848 *  0.430966 *   0.87073    1.000000    
    158 O2    c    0.887357 *  0.666756 *  0.096407 *   0.87073    1.000000    
    159 O2    c    0.776872 *  0.088800 *  0.766081 *   0.87073    1.000000    
    160 O2    c    0.669535 *  0.770392 *  0.928669 *   0.87073    1.000000    
    161 O2    c    0.087393 *  0.327764 *  0.598958 *   0.87073    1.000000    
    162 O2    c    0.225706 *  0.909025 *  0.266882 *   0.87073    1.000000    
    163 O2    c    0.578514 *  0.565346 *  0.982938 *   0.87073    1.000000    
    164 O2    c    0.437311 *  0.025357 *  0.322890 *   0.87073    1.000000    
    165 O2    c    0.973980 *  0.416357 *  0.654526 *   0.87073    1.000000    
    166 O2    c    0.407354 *  0.442241 *  0.485815 *   0.87073    1.000000    
    167 O2    c    0.566582 *  0.968555 *  0.821197 *   0.87073    1.000000    
    168 O2    c    0.006833 *  0.577300 *  0.150660 *   0.87073    1.000000    
    169 O2    c    0.555259 *  0.587499 *  0.338776 *   0.87073    1.000000    
    170 O2    c    0.011583 *  0.436343 *  0.006583 *   0.87073    1.000000    
    171 O2    c    0.419181 *  0.960512 *  0.673457 *   0.87073    1.000000    
    172 O2    c    0.442617 *  0.415071 *  0.840304 *   0.87073    1.000000    
    173 O2    c    0.970377 *  0.560009 *  0.507152 *   0.87073    1.000000    
    174 O2    c    0.579997 *  0.028518 *  0.174599 *   0.87073    1.000000    
    175 O2    c    0.573681 *  0.162351 *  0.249899 *   0.87073    1.000000    
    176 O2    c    0.835290 *  0.419628 *  0.580571 *   0.87073    1.000000    
    177 O2    c    0.583871 *  0.424270 *  0.913294 *   0.87073    1.000000    
    178 O2    c    0.428861 *  0.828245 *  0.747780 *   0.87073    1.000000    
    179 O2    c    0.143622 *  0.574091 *  0.080274 *   0.87073    1.000000    
    180 O2    c    0.413795 *  0.584440 *  0.412440 *   0.87073    1.000000    
    181 F     c    0.444263 *  0.901998 *  0.246661 *   0.56000    1.000000    
    182 F     c    0.091479 *  0.582762 *  0.585272 *   0.56000    1.000000    
    183 F     c    0.439833 *  0.575464 *  0.903478 *   0.56000    1.000000    
    184 F     c    0.558518 *  0.095787 *  0.746557 *   0.56000    1.000000    
    185 F     c    0.848648 *  0.433605 *  0.070397 *   0.56000    1.000000    
    186 F     c    0.545859 *  0.454045 *  0.412420 *   0.56000    1.000000    
    187 O2    s    0.929331 *  0.006594 *  0.997148 *  -2.87073    1.000000    
    188 O2    s    0.997871 *  0.925780 *  0.327963 *  -2.87073    1.000000    
    189 O2    s    0.079183 *  0.074708 *  0.659918 *  -2.87073    1.000000    
    190 O2    s    0.075625 *  0.002038 *  0.494767 *  -2.87073    1.000000    
    191 O2    s    0.007185 *  0.070109 *  0.828222 *  -2.87073    1.000000    
    192 O2    s    0.917580 *  0.926160 *  0.162653 *  -2.87073    1.000000    
    193 O2    s    0.348214 *  0.585530 *  0.328980 *  -2.87073    1.000000    
    194 O2    s    0.424883 *  0.757553 *  0.664863 *  -2.87073    1.000000    
    195 O2    s    0.223643 *  0.645161 *  0.999387 *  -2.87073    1.000000    
    196 O2    s    0.647514 *  0.406554 *  0.830177 *  -2.87073    1.000000    
    197 O2    s    0.575431 *  0.232076 *  0.168614 *  -2.87073    1.000000    
    198 O2    s    0.763454 *  0.355568 *  0.496800 *  -2.87073    1.000000    
    199 O3    s    0.574237 *  0.352170 *  0.996523 *  -3.33043    1.000000    
    200 O2    s    0.756525 *  0.399821 *  0.664101 *  -2.87073    1.000000    
    201 O2    s    0.644731 *  0.232714 *  0.332118 *  -2.87073    1.000000    
    202 O2    s    0.410081 *  0.647216 *  0.496605 *  -2.87073    1.000000    
    203 O2    s    0.222202 *  0.585209 *  0.163659 *  -2.87073    1.000000    
    204 O3    s    0.357325 *  0.764238 *  0.829741 *  -3.33043    1.000000    
    205 O2    s    0.125428 *  0.222202 *  0.965689 *  -2.87073    1.000000    
    206 O2    s    0.777138 *  0.902354 *  0.300400 *  -2.87073    1.000000    
    207 O3    s    0.089011 *  0.873926 *  0.631567 *  -3.33043    1.000000    
    208 O2    s    0.874696 *  0.786958 *  0.465666 *  -2.87073    1.000000    
    209 O2    s    0.218692 *  0.081094 *  0.798378 *  -2.87073    1.000000    
    210 O2    s    0.892424 *  0.120905 *  0.133302 *  -2.87073    1.000000    
    211 O2    s    0.213803 *  0.123035 *  0.359029 *  -2.87073    1.000000    
    212 O2    s    0.903658 *  0.792393 *  0.026985 *  -2.87073    1.000000    
    213 O2    s    0.883026 *  0.090371 *  0.692643 *  -2.87073    1.000000    
    214 O2    s    0.801065 *  0.876559 *  0.859765 *  -2.87073    1.000000    
    215 O2    s    0.094417 *  0.217408 *  0.527390 *  -2.87073    1.000000    
    216 O2    s    0.112048 *  0.903348 *  0.194509 *  -2.87073    1.000000    
    217 O2    s    0.918290 *  0.855711 *  0.245711 *  -2.87073    1.000000    
    218 O2    s    0.144680 *  0.067350 *  0.577700 *  -2.87073    1.000000    
    219 O2    s    0.941768 *  0.069470 *  0.912498 *  -2.87073    1.000000    
    220 O2    s    0.074354 *  0.128096 *  0.743997 *  -2.87073    1.000000    
    221 O2    s    0.849270 *  0.933259 *  0.079531 *  -2.87073    1.000000    
    222 O2    s    0.063270 *  0.933462 *  0.411525 *  -2.87073    1.000000    
    223 O2    s    0.908956 *  0.202409 *  0.976468 *  -2.87073    1.000000    
    224 O2    s    0.792307 *  0.703160 *  0.312379 *  -2.87073    1.000000    
    225 O2    s    0.295626 *  0.073452 *  0.644163 *  -2.87073    1.000000    
    226 O2    s    0.085712 *  0.793459 *  0.474022 *  -2.87073    1.000000    
    227 O2    s    0.208545 *  0.283452 *  0.808536 *  -2.87073    1.000000    
    228 O2    s    0.694478 *  0.907507 *  0.145983 *  -2.87073    1.000000    
    229 O2    s    0.202005 *  0.909627 *  0.348678 *  -2.87073    1.000000    
    230 O2    s    0.703011 *  0.804317 *  0.011414 *  -2.87073    1.000000    
    231 O2    s    0.092182 *  0.292781 *  0.681306 *  -2.87073    1.000000    
    232 O2    s    0.802729 *  0.086072 *  0.847853 *  -2.87073    1.000000    
    233 O2    s    0.295795 *  0.207219 *  0.513265 *  -2.87073    1.000000    
    234 O2    s    0.896950 *  0.703615 *  0.179359 *  -2.87073    1.000000    
    235 O2    s    0.322474 *  0.655104 *  0.246200 *  -2.87073    1.000000    
    236 O2    s    0.341957 *  0.670367 *  0.580350 *  -2.87073    1.000000    
    237 O3    s    0.312326 *  0.676212 *  0.917578 *  -3.33043    1.000000    
    238 O2    s    0.670865 *  0.335886 *  0.747219 *  -2.87073    1.000000    
    239 O3    s    0.622969 *  0.309101 *  0.085860 *  -3.33043    1.000000    
    240 O2    s    0.670619 *  0.331459 *  0.413725 *  -2.87073    1.000000    
    241 O2    s    0.377524 *  0.349443 *  0.961351 *  -2.87073    1.000000    
    242 O2    s    0.654752 *  0.034189 *  0.299608 *  -2.87073    1.000000    
    243 O3    s    0.944966 *  0.609721 *  0.635772 *  -3.33043    1.000000    
    244 O2    s    0.619487 *  0.661267 *  0.464529 *  -2.87073    1.000000    
    245 O2    s    0.346981 *  0.955837 *  0.797604 *  -2.87073    1.000000    
    246 O2    s    0.022250 *  0.374995 *  0.130694 *  -2.87073    1.000000    
    247 O2    s    0.336962 *  0.377531 *  0.360855 *  -2.87073    1.000000    
    248 O2    s    0.020401 *  0.652221 *  0.027710 *  -2.87073    1.000000    
    249 O2    s    0.631487 *  0.957230 *  0.696168 *  -2.87073    1.000000    
    250 O2    s    0.662815 *  0.620190 *  0.860684 *  -2.87073    1.000000    
    251 O2    s    0.962607 *  0.343711 *  0.529149 *  -2.87073    1.000000    
    252 O2    s    0.367000 *  0.033827 *  0.197006 *  -2.87073    1.000000    
    253 O3    s    0.765211 *  0.290879 *  0.005353 *  -3.33043    1.000000    
    254 O2    s    0.686824 *  0.466482 *  0.343818 *  -2.87073    1.000000    
    255 O2    s    0.531004 *  0.209512 *  0.677081 *  -2.87073    1.000000    
    256 O2    s    0.221117 *  0.690052 *  0.510583 *  -2.87073    1.000000    
    257 O3    s    0.298872 *  0.515447 *  0.837020 *  -3.33043    1.000000    
    258 O2    s    0.456681 *  0.776254 *  0.176936 *  -2.87073    1.000000    
    259 O2    s    0.305355 *  0.775360 *  0.316111 *  -2.87073    1.000000    
    260 O2    s    0.462993 *  0.697731 *  0.980140 *  -2.87073    1.000000    
    261 O2    s    0.223537 *  0.530236 *  0.649630 *  -2.87073    1.000000    
    262 O2    s    0.693927 *  0.218421 *  0.816771 *  -2.87073    1.000000    
    263 O2    s    0.532348 *  0.315050 *  0.482404 *  -2.87073    1.000000    
    264 O2    s    0.759075 *  0.464359 *  0.148024 *  -2.87073    1.000000    
    265 O3    s    0.777114 *  0.548046 *  0.022881 *  -3.33043    1.000000    
    266 O2    s    0.465632 *  0.258777 *  0.360193 *  -2.87073    1.000000    
    267 O2    s    0.746098 *  0.204021 *  0.694665 *  -2.87073    1.000000    
    268 O2    s    0.204490 *  0.470924 *  0.529713 *  -2.87073    1.000000    
    269 O3    s    0.556517 *  0.755522 *  0.854083 *  -3.33043    1.000000    
    270 O2    s    0.246789 *  0.787043 *  0.195135 *  -2.87073    1.000000    
    271 O2    s    0.526455 *  0.787840 *  0.299220 *  -2.87073    1.000000    
    272 O2    s    0.256386 *  0.473924 *  0.963086 *  -2.87073    1.000000    
    273 O3    s    0.228851 *  0.745952 *  0.637572 *  -3.33043    1.000000    
    274 O2    s    0.469669 *  0.202219 *  0.798839 *  -2.87073    1.000000    
    275 O2    s    0.740807 *  0.535778 *  0.466069 *  -2.87073    1.000000    
    276 O2    s    0.777219 *  0.258264 *  0.131364 *  -2.87073    1.000000    
    277 O2    s    0.238981 *  0.336854 *  0.893195 *  -2.87073    1.000000    
    278 O2    s    0.659199 *  0.904929 *  0.229269 *  -2.87073    1.000000    
    279 O3    s    0.091966 *  0.769604 *  0.555133 *  -3.33043    1.000000    
    280 O2    s    0.755848 *  0.668035 *  0.395276 *  -2.87073    1.000000    
    281 O2    s    0.334122 *  0.079057 *  0.727929 *  -2.87073    1.000000    
    282 O2    s    0.894513 *  0.238700 *  0.061538 *  -2.87073    1.000000    
    283 O2    s    0.330906 *  0.242226 *  0.430082 *  -2.87073    1.000000    
    284 O2    s    0.887574 *  0.658437 *  0.096117 *  -2.87073    1.000000    
    285 O2    s    0.767156 *  0.088714 *  0.765078 *  -2.87073    1.000000    
    286 O2    s    0.661808 *  0.761895 *  0.928300 *  -2.87073    1.000000    
    287 O2    s    0.088186 *  0.336128 *  0.598060 *  -2.87073    1.000000    
    288 O2    s    0.234840 *  0.908408 *  0.265889 *  -2.87073    1.000000    
    289 O2    s    0.575772 *  0.565945 *  0.980180 *  -2.87073    1.000000    
    290 O2    s    0.436945 *  0.020892 *  0.319447 *  -2.87073    1.000000    
    291 O2    s    0.978115 *  0.419221 *  0.651635 *  -2.87073    1.000000    
    292 O2    s    0.412384 *  0.442110 *  0.482595 *  -2.87073    1.000000    
    293 O2    s    0.567325 *  0.973187 *  0.817929 *  -2.87073    1.000000    
    294 O2    s    0.003691 *  0.574047 *  0.147811 *  -2.87073    1.000000    
    295 O2    s    0.555678 *  0.582908 *  0.342158 *  -2.87073    1.000000    
    296 O2    s    0.008277 *  0.436768 *  0.009426 *  -2.87073    1.000000    
    297 O2    s    0.423334 *  0.965369 *  0.676746 *  -2.87073    1.000000    
    298 O2    s    0.442995 *  0.418622 *  0.842935 *  -2.87073    1.000000    
    299 O2    s    0.974273 *  0.560112 *  0.510096 *  -2.87073    1.000000    
    300 O2    s    0.575059 *  0.023095 *  0.177938 *  -2.87073    1.000000    
    301 O2    s    0.568387 *  0.151222 *  0.249851 *  -2.87073    1.000000    
    302 O2    s    0.844764 *  0.424173 *  0.580268 *  -2.87073    1.000000    
    303 O2    s    0.578794 *  0.428505 *  0.913108 *  -2.87073    1.000000    
    304 O2    s    0.433739 *  0.838559 *  0.747539 *  -2.87073    1.000000    
    305 O2    s    0.134298 *  0.569398 *  0.080450 *  -2.87073    1.000000    
    306 O2    s    0.419301 *  0.578740 *  0.412478 *  -2.87073    1.000000    
    307 F     s    0.443998 *  0.901618 *  0.246533 *  -1.56000    1.000000    
    308 F     s    0.091539 *  0.591351 *  0.586712 *  -1.56000    1.000000    
    309 F     s    0.435780 *  0.582369 *  0.900785 *  -1.56000    1.000000    
    310 F     s    0.559536 *  0.097232 *  0.746476 *  -1.56000    1.000000    
    311 F     s    0.838390 *  0.429678 *  0.068016 *  -1.56000    1.000000    
    312 F     s    0.546103 *  0.453881 *  0.412354 *  -1.56000    1.000000    
--------------------------------------------------------------------------------



********************************************************************************
*  General input information                                                   *
********************************************************************************

  Species output for all configurations : 

--------------------------------------------------------------------------------
  Species    Type    Atomic    Atomic    Charge       Radii (Angs)     Library
                     Number     Mass       (e)     Cova   Ionic  VDW   Symbol
--------------------------------------------------------------------------------
    Si       Core       14      28.09   4.000000   1.200  0.000  2.100          
    O1       Core        8      16.00   1.733957   0.730  0.000  1.360          
    O1       Shell       8       0.00  -3.733957   0.730  0.000  1.360          
    O2       Core        8      16.00   0.870733   0.730  0.000  1.360          
    O2       Shell       8       0.00  -2.870733   0.730  0.000  1.360          
    O3       Core        8      16.00   1.330431   0.730  0.000  1.360          
    O3       Shell       8       0.00  -3.330431   0.730  0.000  1.360          
    F        Core        9      19.00   0.560000   0.710  0.000  1.300          
    F        Shell       9       0.00  -1.560000   0.710  0.000  1.300          
    Ge       Core       32      72.61   4.000000   1.170  0.000  1.750          
--------------------------------------------------------------------------------


  Lattice summation method               =    Ewald          (3-D)
                                         =    Parry          (2-D)
                                         =    Saunders et al (1-D)
  Accuracy factor for lattice sums       =   12.000


  Time limit = Infinity

  Maximum range for interatomic potentials =        16.000000 Angstroms

  Taper potentials to zero over   1.0000 Angstroms using polynomial

  General interatomic potentials :

--------------------------------------------------------------------------------
Atom  Types   Potential         A         B         C         D     Cutoffs(Ang)
  1     2                                                            Min    Max 
--------------------------------------------------------------------------------
Si   c O1   s Buckingham    0.132E+04 0.318      10.1      0.00     0.000 16.000
Si   c O2   s Buckingham    0.132E+04 0.318      10.1      0.00     0.000 16.000
Si   c O3   s Buckingham    0.132E+04 0.318      10.1      0.00     0.000 16.000
Ge   c O1   s Buckingham    0.150E+04 0.326      16.8      0.00     0.000 16.000
Ge   c O2   s Buckingham    0.150E+04 0.326      16.8      0.00     0.000 16.000
Ge   c O3   s Buckingham    0.150E+04 0.326      16.8      0.00     0.000 16.000
O1   s O1   s Buckingham    0.228E+05 0.149      10.9      0.00     0.000 16.000
O1   s O2   s Buckingham    0.228E+05 0.149      10.9      0.00     0.000 16.000
O1   s O3   s Buckingham    0.228E+05 0.149      10.9      0.00     0.000 16.000
O2   s O2   s Buckingham    0.228E+05 0.149      10.9      0.00     0.000 16.000
O2   s O3   s Buckingham    0.228E+05 0.149      10.9      0.00     0.000 16.000
O3   s O3   s Buckingham    0.228E+05 0.149      10.9      0.00     0.000 16.000
Si   c F    s Buckingham     977.     0.282      0.00      0.00     0.000 16.000
Ge   c F    s Buckingham     681.     0.320      0.00      0.00     0.000 16.000
F    s F    s Buckingham     540.     0.262      0.00      0.00     0.000 16.000
O1   s F    s Buckingham    0.168E+04 0.268      0.00      0.00     0.000 16.000
O2   s F    s Buckingham    0.168E+04 0.268      0.00      0.00     0.000 16.000
O3   s F    s Buckingham    0.168E+04 0.268      0.00      0.00     0.000 16.000
O2   c O2   s Spring (c-s)   76.0      0.00      0.00      0.00     0.000  0.800
O3   c O3   s Spring (c-s)   128.      0.00      0.00      0.00     0.000  0.800
O1   c O1   s Spring (c-s)   180.      0.00      0.00      0.00     0.000  0.800
F    c F    s Spring (c-s)   33.5      0.00      0.00      0.00     0.000  0.800
--------------------------------------------------------------------------------

  General Three-body potentials :

  Harmonic form:

--------------------------------------------------------------------------------
Atom    Atom    Atom           Force Constants            Theta     Cutoffs  
  1       2       3     (eVrad**-2/eVrad**-3/eVrad**-4)   (deg)  1-2  1-3  2-3
--------------------------------------------------------------------------------
Si    c O1    s O1    s  1.261        0.0000    0.0000   109.470 0.00 0.00 0.00
                                                                 1.90 1.90 3.50
Si    c O1    s O2    s  1.261        0.0000    0.0000   109.470 0.00 0.00 0.00
                                                                 1.90 1.90 3.50
Si    c O2    s O2    s  1.261        0.0000    0.0000   109.470 0.00 0.00 0.00
                                                                 1.90 1.90 3.50
--------------------------------------------------------------------------------

********************************************************************************
*  Output for configuration   1                                                *
********************************************************************************


  Components of energy : 

--------------------------------------------------------------------------------
  Interatomic potentials     =        2065.65452766 eV
  Three-body potentials      =           0.47838012 eV
  Monopole - monopole (real) =       -6616.10608381 eV
  Monopole - monopole (recip)=       -3170.98430010 eV
  Monopole - monopole (total)=       -9787.09038391 eV
  Neutralising energy        =          -6.45930727 eV
--------------------------------------------------------------------------------
  Total lattice energy       =       -7727.41678341 eV
--------------------------------------------------------------------------------
  Total lattice energy       =         -745577.5952 kJ/(mole unit cells)
--------------------------------------------------------------------------------


  Number of variables =      939

  Maximum number of calculations  =          5000
  Maximum Hessian update interval =            10
  Maximum step size               =   0.100000000
  Maximum parameter tolerance     =   0.000010000
  Maximum function  tolerance     =   0.000010000
  Maximum gradient  tolerance     =   0.001000000
  Maximum gradient  component     =   0.010000000

  Symmetry not applied to optimisation

  Cell parameters to be optimised using strains

  Newton-Raphson optimiser to be used

  BFGS hessian update to be used

  Dumpfile to be written after every cycle

  Start of bulk optimisation :

  Cycle:      0 Energy:     -7727.416783  Gnorm:      0.002832  CPU:    2.020
  ** Hessian calculated **
  Cycle:      1 Energy:     -7727.434318  Gnorm:      0.002519  CPU:    6.676
  Cycle:      2 Energy:     -7727.455367  Gnorm:      0.002129  CPU:   10.956
  Cycle:      3 Energy:     -7727.478768  Gnorm:      0.001815  CPU:   15.236
  Cycle:      4 Energy:     -7727.493929  Gnorm:      0.001766  CPU:   19.517
  Cycle:      5 Energy:     -7727.497670  Gnorm:      0.001256  CPU:   23.797
  Cycle:      6 Energy:     -7727.498620  Gnorm:      0.000742  CPU:   28.078
  Cycle:      7 Energy:     -7727.498863  Gnorm:      0.000408  CPU:   32.359
  Cycle:      8 Energy:     -7727.498925  Gnorm:      0.000215  CPU:   36.641
  Cycle:      9 Energy:     -7727.498935  Gnorm:      0.000153  CPU:   39.526
  Cycle:     10 Energy:     -7727.498941  Gnorm:      0.000107  CPU:   42.411
  ** Hessian calculated **
  Cycle:     11 Energy:     -7727.498941  Gnorm:      0.000057  CPU:   46.984
  Cycle:     12 Energy:     -7727.498941  Gnorm:      0.000043  CPU:   49.868
  Cycle:     13 Energy:     -7727.498941  Gnorm:      0.000031  CPU:   52.752


  **** Optimisation achieved ****


  Final energy =   -7727.49894071 eV
  Final Gnorm  =       0.00002463

  Components of energy : 

--------------------------------------------------------------------------------
  Interatomic potentials     =        2065.95045072 eV
  Three-body potentials      =           0.47876738 eV
  Monopole - monopole (real) =       -6617.49767368 eV
  Monopole - monopole (recip)=       -3169.97323541 eV
  Monopole - monopole (total)=       -9787.47090910 eV
  Neutralising energy        =          -6.45724971 eV
--------------------------------------------------------------------------------
  Total lattice energy       =       -7727.49894071 eV
--------------------------------------------------------------------------------
  Total lattice energy       =         -745585.5221 kJ/(mole unit cells)
--------------------------------------------------------------------------------

  Final fractional coordinates of atoms :

--------------------------------------------------------------------------------
   No.  Atomic        x           y          z          Radius
        Label       (Frac)      (Frac)     (Frac)       (Angs) 
--------------------------------------------------------------------------------
     1  Ge    c     0.699600    0.375700    0.033890    0.000000
     2  Si    c     0.595426    0.309789    0.363307    0.000000
     3  Si    c     0.652743    0.266178    0.696915    0.000000
     4  Si    c     0.276984    0.607413    0.530978    0.000000
     5  Ge    c     0.371880    0.650407    0.867183    0.000000
     6  Si    c     0.294291    0.686251    0.198235    0.000000
     7  Si    c     0.351604    0.686379    0.298541    0.000000
     8  Si    c     0.302691    0.613986    0.965042    0.000000
     9  Si    c     0.284466    0.659610    0.634138    0.000000
    10  Si    c     0.605855    0.275709    0.796816    0.000000
    11  Si    c     0.653645    0.365429    0.463658    0.000000
    12  Si    c     0.660056    0.301833    0.131418    0.000000
    13  Si    c     0.523045    0.408504    0.963897    0.000000
    14  Si    c     0.554208    0.096525    0.299453    0.000000
    15  Si    c     0.857515    0.448225    0.633102    0.000000
    16  Si    c     0.445689    0.566492    0.464827    0.000000
    17  Si    c     0.407674    0.862477    0.800695    0.000000
    18  Si    c     0.081856    0.510689    0.133710    0.000000
    19  Si    c     0.391453    0.514748    0.363286    0.000000
    20  Si    c     0.090682    0.568256    0.030960    0.000000
    21  Si    c     0.460051    0.861846    0.698590    0.000000
    22  Si    c     0.571819    0.455958    0.860414    0.000000
    23  Si    c     0.864131    0.402897    0.529166    0.000000
    24  Si    c     0.497513    0.093703    0.198036    0.000000
    25  Si    c     0.282903    0.379586    0.844031    0.000000
    26  Si    c     0.570615    0.885596    0.182463    0.000000
    27  Si    c     0.073586    0.686773    0.512889    0.000000
    28  Si    c     0.672009    0.586819    0.348600    0.000000
    29  Si    c     0.377678    0.063632    0.681053    0.000000
    30  Si    c     0.881629    0.283254    0.012068    0.000000
    31  Si    c     0.374451    0.285996    0.478317    0.000000
    32  Si    c     0.867043    0.583611    0.144999    0.000000
    33  Si    c     0.687818    0.078182    0.812480    0.000000
    34  Si    c     0.588362    0.693627    0.975322    0.000000
    35  Si    c     0.075121    0.378993    0.647532    0.000000
    36  Si    c     0.274456    0.888433    0.313128    0.000000
    37  Si    c     0.240074    0.331738    0.947032    0.000000
    38  Si    c     0.630860    0.894164    0.283221    0.000000
    39  Ge    c     0.067294    0.711007    0.612983    0.000000
    40  Si    c     0.725088    0.645961    0.449358    0.000000
    41  Si    c     0.327842    0.063087    0.781894    0.000000
    42  Si    c     0.878178    0.232613    0.115381    0.000000
    43  Si    c     0.313943    0.236393    0.377487    0.000000
    44  Si    c     0.889885    0.655467    0.043143    0.000000
    45  Si    c     0.736234    0.066604    0.712160    0.000000
    46  Si    c     0.654783    0.740867    0.873083    0.000000
    47  Si    c     0.066312    0.321926    0.545226    0.000000
    48  Si    c     0.219918    0.893728    0.212523    0.000000
    49  Si    c     0.966013    0.112331    0.962965    0.000000
    50  Si    c     0.849828    0.832535    0.297596    0.000000
    51  Si    c     0.128437    0.997339    0.629096    0.000000
    52  Si    c     0.004324    0.863583    0.462635    0.000000
    53  Si    c     0.110586    0.125478    0.795199    0.000000
    54  Si    c     0.817196    0.954851    0.131054    0.000000
    55  Si    c     0.094882    0.958142    0.362591    0.000000
    56  Si    c     0.835280    0.875832    0.029275    0.000000
    57  Si    c     0.014673    0.128403    0.694811    0.000000
    58  Si    c     0.874355    0.014304    0.862208    0.000000
    59  Si    c     0.131129    0.103599    0.529675    0.000000
    60  Si    c     0.939094    0.832077    0.196349    0.000000
    61  O2    c     0.921665    0.997960    0.998719    0.000000
    62  O2    c     0.974829    0.915288    0.328597    0.000000
    63  O2    c     0.058770    0.056136    0.660182    0.000000
    64  O2    c     0.050316    0.985254    0.495588    0.000000
    65  O2    c     0.993169    0.055489    0.829266    0.000000
    66  O2    c     0.898706    0.912634    0.163219    0.000000
    67  O2    c     0.313935    0.564363    0.331055    0.000000
    68  O2    c     0.411853    0.734599    0.666379    0.000000
    69  O2    c     0.221896    0.643804    0.002879    0.000000
    70  O2    c     0.643975    0.400439    0.829012    0.000000
    71  O2    c     0.547201    0.221030    0.167396    0.000000
    72  O2    c     0.739315    0.326719    0.496153    0.000000
    73  O3    c     0.567204    0.335059    0.996666    0.000000
    74  O2    c     0.729296    0.386540    0.663073    0.000000
    75  O2    c     0.632826    0.222706    0.331211    0.000000
    76  O2    c     0.397554    0.642122    0.498084    0.000000
    77  O2    c     0.206149    0.560244    0.166713    0.000000
    78  O3    c     0.330391    0.745101    0.832606    0.000000
    79  O2    c     0.119386    0.204837    0.968485    0.000000
    80  O2    c     0.758076    0.895264    0.303531    0.000000
    81  O3    c     0.059842    0.848737    0.633825    0.000000
    82  O2    c     0.850293    0.773468    0.469020    0.000000
    83  O2    c     0.199659    0.060398    0.801744    0.000000
    84  O2    c     0.877189    0.108140    0.137239    0.000000
    85  O2    c     0.186680    0.111511    0.357162    0.000000
    86  O2    c     0.908756    0.793545    0.027748    0.000000
    87  O2    c     0.860442    0.065337    0.690771    0.000000
    88  O2    c     0.791567    0.860301    0.857504    0.000000
    89  O2    c     0.068766    0.197449    0.525236    0.000000
    90  O2    c     0.093101    0.893778    0.192164    0.000000
    91  O2    c     0.897213    0.843341    0.246529    0.000000
    92  O2    c     0.123046    0.049967    0.579094    0.000000
    93  O2    c     0.928401    0.054034    0.913098    0.000000
    94  O2    c     0.056160    0.110604    0.744685    0.000000
    95  O2    c     0.831038    0.921897    0.079883    0.000000
    96  O2    c     0.038336    0.919510    0.412340    0.000000
    97  O2    c     0.896347    0.194869    0.973917    0.000000
    98  O2    c     0.769811    0.682293    0.310433    0.000000
    99  O2    c     0.280863    0.060450    0.641776    0.000000
   100  O2    c     0.071685    0.776666    0.471265    0.000000
   101  O2    c     0.193619    0.276286    0.806069    0.000000
   102  O2    c     0.666164    0.883783    0.143786    0.000000
   103  O2    c     0.178031    0.888244    0.351628    0.000000
   104  O2    c     0.687235    0.791751    0.013430    0.000000
   105  O2    c     0.078360    0.281074    0.684517    0.000000
   106  O2    c     0.788252    0.080845    0.851039    0.000000
   107  O2    c     0.281247    0.187779    0.516357    0.000000
   108  O2    c     0.869201    0.681071    0.183705    0.000000
   109  O2    c     0.295723    0.628749    0.248046    0.000000
   110  O2    c     0.331237    0.659685    0.581704    0.000000
   111  O3    c     0.292806    0.668111    0.917367    0.000000
   112  O2    c     0.658767    0.331318    0.746371    0.000000
   113  O3    c     0.600871    0.297930    0.082851    0.000000
   114  O2    c     0.653878    0.308885    0.413326    0.000000
   115  O2    c     0.366167    0.327329    0.963577    0.000000
   116  O2    c     0.641728    0.026979    0.301419    0.000000
   117  O3    c     0.918901    0.599569    0.637852    0.000000
   118  O2    c     0.601536    0.653838    0.467907    0.000000
   119  O2    c     0.321600    0.934682    0.800817    0.000000
   120  O2    c     0.009123    0.355320    0.134386    0.000000
   121  O2    c     0.303591    0.359319    0.359695    0.000000
   122  O2    c     0.021651    0.655653    0.028491    0.000000
   123  O2    c     0.615802    0.932282    0.694687    0.000000
   124  O2    c     0.658502    0.611110    0.858204    0.000000
   125  O2    c     0.936215    0.317765    0.526802    0.000000
   126  O2    c     0.341214    0.024417    0.193844    0.000000
   127  O3    c     0.750460    0.280549    0.002076    0.000000
   128  O2    c     0.670412    0.451789    0.340746    0.000000
   129  O2    c     0.510365    0.197485    0.673681    0.000000
   130  O2    c     0.207057    0.681091    0.508465    0.000000
   131  O3    c     0.276500    0.506019    0.834839    0.000000
   132  O2    c     0.435305    0.753161    0.174633    0.000000
   133  O2    c     0.275558    0.754862    0.320179    0.000000
   134  O2    c     0.452804    0.690825    0.983533    0.000000
   135  O2    c     0.209014    0.512470    0.652781    0.000000
   136  O2    c     0.685611    0.211760    0.819781    0.000000
   137  O2    c     0.511133    0.290225    0.485638    0.000000
   138  O2    c     0.734097    0.450318    0.150992    0.000000
   139  O3    c     0.765430    0.544065    0.020048    0.000000
   140  O2    c     0.439322    0.235587    0.357669    0.000000
   141  O2    c     0.735105    0.191305    0.691714    0.000000
   142  O2    c     0.188102    0.452810    0.528366    0.000000
   143  O3    c     0.539338    0.749324    0.850839    0.000000
   144  O2    c     0.216378    0.765363    0.193143    0.000000
   145  O2    c     0.507329    0.769435    0.303173    0.000000
   146  O2    c     0.239824    0.457594    0.966656    0.000000
   147  O3    c     0.210296    0.738645    0.641185    0.000000
   148  O2    c     0.450197    0.193086    0.801432    0.000000
   149  O2    c     0.727465    0.521020    0.468658    0.000000
   150  O2    c     0.753806    0.237868    0.132971    0.000000
   151  O2    c     0.219812    0.315884    0.892837    0.000000
   152  O2    c     0.645723    0.889207    0.228892    0.000000
   153  O3    c     0.070173    0.763964    0.556042    0.000000
   154  O2    c     0.742371    0.661541    0.395025    0.000000
   155  O2    c     0.306484    0.062472    0.727673    0.000000
   156  O2    c     0.881989    0.219346    0.061134    0.000000
   157  O2    c     0.299550    0.216739    0.431645    0.000000
   158  O2    c     0.876033    0.656288    0.098253    0.000000
   159  O2    c     0.758960    0.072691    0.766489    0.000000
   160  O2    c     0.656608    0.757733    0.928296    0.000000
   161  O2    c     0.066557    0.310813    0.599286    0.000000
   162  O2    c     0.203216    0.893938    0.266801    0.000000
   163  O2    c     0.569252    0.552778    0.982397    0.000000
   164  O2    c     0.414178    0.011888    0.322344    0.000000
   165  O2    c     0.953028    0.399290    0.654490    0.000000
   166  O2    c     0.386761    0.424966    0.487059    0.000000
   167  O2    c     0.550615    0.955144    0.822322    0.000000
   168  O2    c     0.987935    0.560526    0.152872    0.000000
   169  O2    c     0.531764    0.572610    0.339802    0.000000
   170  O2    c     0.003932    0.428175    0.008312    0.000000
   171  O2    c     0.399389    0.941956    0.674458    0.000000
   172  O2    c     0.429062    0.403906    0.839551    0.000000
   173  O2    c     0.950554    0.543203    0.506903    0.000000
   174  O2    c     0.556977    0.011842    0.174274    0.000000
   175  O2    c     0.550117    0.147093    0.248795    0.000000
   176  O2    c     0.815006    0.402537    0.580055    0.000000
   177  O2    c     0.570909    0.411419    0.912221    0.000000
   178  O2    c     0.411811    0.812412    0.749368    0.000000
   179  O2    c     0.130157    0.560668    0.083125    0.000000
   180  O2    c     0.391636    0.568056    0.414097    0.000000
   181  F     c     0.420884    0.885854    0.246827    0.000000
   182  F     c     0.070989    0.566189    0.585569    0.000000
   183  F     c     0.427038    0.561963    0.903899    0.000000
   184  F     c     0.540725    0.079263    0.746805    0.000000
   185  F     c     0.841959    0.427092    0.071620    0.000000
   186  F     c     0.523064    0.437485    0.412975    0.000000
   187  O2    s     0.916795    0.996862    0.998207    0.000000
   188  O2    s     0.974140    0.910751    0.328896    0.000000
   189  O2    s     0.061057    0.058327    0.660911    0.000000
   190  O2    s     0.054070    0.984704    0.495653    0.000000
   191  O2    s     0.992854    0.058746    0.829186    0.000000
   192  O2    s     0.894125    0.908360    0.163331    0.000000
   193  O2    s     0.325800    0.571995    0.330957    0.000000
   194  O2    s     0.403720    0.739472    0.666261    0.000000
   195  O2    s     0.215851    0.632643    0.002109    0.000000
   196  O2    s     0.632540    0.393690    0.829056    0.000000
   197  O2    s     0.553742    0.216113    0.166848    0.000000
   198  O2    s     0.743364    0.338601    0.496186    0.000000
   199  O3    s     0.571583    0.346117    0.995641    0.000000
   200  O2    s     0.735349    0.380839    0.663308    0.000000
   201  O2    s     0.620806    0.218442    0.331184    0.000000
   202  O2    s     0.389951    0.630662    0.498084    0.000000
   203  O2    s     0.201801    0.567629    0.166380    0.000000
   204  O3    s     0.341804    0.751090    0.831617    0.000000
   205  O2    s     0.115254    0.207856    0.965730    0.000000
   206  O2    s     0.754592    0.888440    0.300800    0.000000
   207  O3    s     0.068102    0.856535    0.631951    0.000000
   208  O2    s     0.853310    0.769603    0.466340    0.000000
   209  O2    s     0.203023    0.067752    0.799033    0.000000
   210  O2    s     0.870959    0.104987    0.134321    0.000000
   211  O2    s     0.190085    0.108198    0.359791    0.000000
   212  O2    s     0.898893    0.788040    0.029512    0.000000
   213  O2    s     0.864136    0.072271    0.693400    0.000000
   214  O2    s     0.786351    0.864483    0.859604    0.000000
   215  O2    s     0.074847    0.201177    0.527789    0.000000
   216  O2    s     0.089804    0.887180    0.194700    0.000000
   217  O2    s     0.896663    0.840841    0.246559    0.000000
   218  O2    s     0.124552    0.050837    0.578445    0.000000
   219  O2    s     0.926797    0.056384    0.913249    0.000000
   220  O2    s     0.057648    0.114310    0.744797    0.000000
   221  O2    s     0.829928    0.920563    0.080141    0.000000
   222  O2    s     0.041007    0.917701    0.412254    0.000000
   223  O2    s     0.902391    0.195341    0.976810    0.000000
   224  O2    s     0.768384    0.688539    0.312941    0.000000
   225  O2    s     0.275639    0.054418    0.644610    0.000000
   226  O2    s     0.064818    0.777016    0.474357    0.000000
   227  O2    s     0.194097    0.270797    0.808952    0.000000
   228  O2    s     0.672327    0.891420    0.146381    0.000000
   229  O2    s     0.179191    0.895666    0.348814    0.000000
   230  O2    s     0.693180    0.790824    0.011238    0.000000
   231  O2    s     0.071529    0.275834    0.681683    0.000000
   232  O2    s     0.787471    0.073489    0.848404    0.000000
   233  O2    s     0.275192    0.189221    0.513758    0.000000
   234  O2    s     0.876381    0.686952    0.181021    0.000000
   235  O2    s     0.301290    0.640578    0.248039    0.000000
   236  O2    s     0.321028    0.654220    0.581434    0.000000
   237  O3    s     0.298729    0.661228    0.919353    0.000000
   238  O2    s     0.652771    0.319083    0.746553    0.000000
   239  O3    s     0.613425    0.303330    0.084821    0.000000
   240  O2    s     0.647835    0.314777    0.413326    0.000000
   241  O2    s     0.368068    0.336019    0.961774    0.000000
   242  O2    s     0.631515    0.020167    0.299283    0.000000
   243  O3    s     0.923192    0.591956    0.635566    0.000000
   244  O2    s     0.598337    0.643958    0.465631    0.000000
   245  O2    s     0.330916    0.941785    0.798684    0.000000
   246  O2    s     0.003192    0.358870    0.132350    0.000000
   247  O2    s     0.313711    0.362491    0.361929    0.000000
   248  O2    s     0.015576    0.646462    0.030238    0.000000
   249  O2    s     0.612345    0.939134    0.696941    0.000000
   250  O2    s     0.649157    0.608024    0.859932    0.000000
   251  O2    s     0.942574    0.326891    0.528981    0.000000
   252  O2    s     0.344536    0.017834    0.196231    0.000000
   253  O3    s     0.761201    0.287193    0.005338    0.000000
   254  O2    s     0.662893    0.451355    0.343907    0.000000
   255  O2    s     0.511285    0.190592    0.676914    0.000000
   256  O2    s     0.200856    0.674022    0.511280    0.000000
   257  O3    s     0.283530    0.502129    0.838031    0.000000
   258  O2    s     0.434873    0.760022    0.177884    0.000000
   259  O2    s     0.283296    0.761915    0.317158    0.000000
   260  O2    s     0.452476    0.683742    0.980877    0.000000
   261  O2    s     0.202327    0.513058    0.650314    0.000000
   262  O2    s     0.677754    0.204447    0.816663    0.000000
   263  O2    s     0.511467    0.297609    0.482539    0.000000
   264  O2    s     0.741146    0.450260    0.148444    0.000000
   265  O3    s     0.774755    0.545286    0.023398    0.000000
   266  O2    s     0.441947    0.243427    0.360347    0.000000
   267  O2    s     0.726731    0.185553    0.694418    0.000000
   268  O2    s     0.184139    0.454849    0.530460    0.000000
   269  O3    s     0.541402    0.742020    0.854251    0.000000
   270  O2    s     0.224874    0.770874    0.195700    0.000000
   271  O2    s     0.504393    0.774368    0.300540    0.000000
   272  O2    s     0.246116    0.459596    0.964399    0.000000
   273  O3    s     0.207132    0.728396    0.638410    0.000000
   274  O2    s     0.453497    0.187942    0.798919    0.000000
   275  O2    s     0.719467    0.518374    0.466086    0.000000
   276  O2    s     0.758209    0.243793    0.130872    0.000000
   277  O2    s     0.228155    0.323860    0.893815    0.000000
   278  O2    s     0.636252    0.889337    0.229732    0.000000
   279  O3    s     0.070356    0.752286    0.555385    0.000000
   280  O2    s     0.733108    0.651999    0.395852    0.000000
   281  O2    s     0.316190    0.062690    0.728504    0.000000
   282  O2    s     0.881537    0.227036    0.062141    0.000000
   283  O2    s     0.308930    0.226085    0.430736    0.000000
   284  O2    s     0.876390    0.648273    0.097852    0.000000
   285  O2    s     0.749271    0.072633    0.765515    0.000000
   286  O2    s     0.648968    0.749133    0.927973    0.000000
   287  O2    s     0.067416    0.319212    0.598380    0.000000
   288  O2    s     0.212417    0.893356    0.265856    0.000000
   289  O2    s     0.566441    0.553567    0.979688    0.000000
   290  O2    s     0.413806    0.007281    0.318945    0.000000
   291  O2    s     0.957202    0.402105    0.651593    0.000000
   292  O2    s     0.391713    0.424881    0.483796    0.000000
   293  O2    s     0.551347    0.959657    0.819025    0.000000
   294  O2    s     0.984919    0.557538    0.149966    0.000000
   295  O2    s     0.532271    0.567970    0.343179    0.000000
   296  O2    s     0.000693    0.428539    0.011134    0.000000
   297  O2    s     0.403645    0.946922    0.677707    0.000000
   298  O2    s     0.429362    0.407181    0.842269    0.000000
   299  O2    s     0.954294    0.543264    0.509873    0.000000
   300  O2    s     0.552133    0.006673    0.177605    0.000000
   301  O2    s     0.544968    0.136126    0.248761    0.000000
   302  O2    s     0.824432    0.407052    0.579749    0.000000
   303  O2    s     0.566147    0.415814    0.912056    0.000000
   304  O2    s     0.416585    0.822689    0.749052    0.000000
   305  O2    s     0.120812    0.556070    0.083133    0.000000
   306  O2    s     0.397200    0.562377    0.414074    0.000000
   307  F     s     0.420518    0.885313    0.246685    0.000000
   308  F     s     0.070995    0.574822    0.587017    0.000000
   309  F     s     0.422785    0.568935    0.901218    0.000000
   310  F     s     0.541740    0.080687    0.746692    0.000000
   311  F     s     0.831373    0.423443    0.068886    0.000000
   312  F     s     0.523261    0.437299    0.412900    0.000000
--------------------------------------------------------------------------------

  Final Cartesian lattice vectors (Angstroms) :

       11.923775    0.007883   -0.001930
       -5.894625   10.408321    0.013066
       -0.252259   -0.261030   29.491861


  Final cell parameters and derivatives :

--------------------------------------------------------------------------------
       a           11.923778 Angstrom     dE/de1(xx)     0.000839 eV/strain
       b           11.961602 Angstrom     dE/de2(yy)     0.000551 eV/strain
       c           29.494095 Angstrom     dE/de3(zz)     0.001364 eV/strain
       alpha       90.137164 Degrees      dE/de4(yz)    -0.000096 eV/strain
       beta        90.499656 Degrees      dE/de5(xz)     0.000074 eV/strain
       gamma      119.486625 Degrees      dE/de6(xy)     0.000263 eV/strain
--------------------------------------------------------------------------------

  Primitive cell volume =          3661.534165 Angs**3

  Density of cell =      1.747380 g/cm**3

  Non-primitive cell volume =          3661.534165 Angs**3


  Final internal derivatives :

--------------------------------------------------------------------------------
   No.  Atomic          a             b             c           Radius
        Label          (eV)          (eV)          (eV)        (eV/Angs)
--------------------------------------------------------------------------------
      1 Ge    c       0.000000      0.000000      0.000000      0.000000
      2 Si    c       0.000028      0.000120      0.000332      0.000000
      3 Si    c      -0.000188      0.000187     -0.000229      0.000000
      4 Si    c       0.000196      0.000036      0.000289      0.000000
      5 Ge    c       0.000290     -0.000094      0.000333      0.000000
      6 Si    c       0.000766     -0.000093      0.000694      0.000000
      7 Si    c       0.000470      0.000020     -0.000137      0.000000
      8 Si    c       0.000479     -0.000291      0.000233      0.000000
      9 Si    c       0.000109      0.000081     -0.000176      0.000000
     10 Si    c      -0.000307     -0.000098     -0.000470      0.000000
     11 Si    c       0.000022     -0.000008      0.000147      0.000000
     12 Si    c       0.000728      0.000824      0.005493      0.000000
     13 Si    c      -0.000634      0.000668     -0.001473      0.000000
     14 Si    c       0.000033      0.000119     -0.000045      0.000000
     15 Si    c      -0.000015     -0.000020     -0.000254      0.000000
     16 Si    c       0.000156      0.000042     -0.000110      0.000000
     17 Si    c       0.000050     -0.000031     -0.000101      0.000000
     18 Si    c       0.001346     -0.000125      0.000566      0.000000
     19 Si    c       0.000315      0.000113      0.000099      0.000000
     20 Si    c       0.000513     -0.000644     -0.000651      0.000000
     21 Si    c       0.000035      0.000062      0.000383      0.000000
     22 Si    c      -0.000249      0.000328     -0.000752      0.000000
     23 Si    c      -0.000093      0.000090      0.000111      0.000000
     24 Si    c      -0.000211     -0.000315      0.001639      0.000000
     25 Si    c       0.000095     -0.000070      0.000161      0.000000
     26 Si    c       0.000447     -0.000080     -0.000027      0.000000
     27 Si    c       0.000132      0.000149      0.000154      0.000000
     28 Si    c       0.000246      0.000294      0.000081      0.000000
     29 Si    c      -0.000205      0.000174      0.000068      0.000000
     30 Si    c       0.000924     -0.000017     -0.001166      0.000000
     31 Si    c      -0.000006     -0.000139     -0.000036      0.000000
     32 Si    c       0.000323      0.001279      0.000471      0.000000
     33 Si    c      -0.000043     -0.000254      0.000231      0.000000
     34 Si    c      -0.000353      0.000057     -0.000841      0.000000
     35 Si    c       0.000008     -0.000056     -0.000329      0.000000
     36 Si    c       0.000183      0.000275     -0.000132      0.000000
     37 Si    c      -0.000164      0.000216     -0.000069      0.000000
     38 Si    c       0.000301      0.000023     -0.000314      0.000000
     39 Ge    c       0.000017     -0.000098     -0.000423      0.000000
     40 Si    c       0.000171      0.000111     -0.000248      0.000000
     41 Si    c      -0.000221      0.000230     -0.000137      0.000000
     42 Si    c       0.001473     -0.000414     -0.000056      0.000000
     43 Si    c       0.000208     -0.000056      0.000283      0.000000
     44 Si    c      -0.000614     -0.000731     -0.003177      0.000000
     45 Si    c      -0.000059     -0.000094      0.000138      0.000000
     46 Si    c       0.000035      0.000121      0.000087      0.000000
     47 Si    c       0.000035      0.000057      0.000359      0.000000
     48 Si    c       0.000055      0.000360      0.000300      0.000000
     49 Si    c      -0.000114      0.000483     -0.000090      0.000000
     50 Si    c       0.000361      0.000065     -0.000106      0.000000
     51 Si    c       0.000063      0.000102     -0.000100      0.000000
     52 Si    c       0.000105      0.000018     -0.000197      0.000000
     53 Si    c       0.000030      0.000013      0.000044      0.000000
     54 Si    c       0.000040      0.000146      0.001992      0.000000
     55 Si    c       0.000141      0.000007      0.000063      0.000000
     56 Si    c       0.000092      0.000427     -0.000404      0.000000
     57 Si    c      -0.000044     -0.000056      0.000207      0.000000
     58 Si    c       0.000072      0.000211     -0.000374      0.000000
     59 Si    c       0.000113     -0.000000      0.000221      0.000000
     60 Si    c       0.000180      0.000386      0.000078      0.000000
     61 O2    c       0.000274      0.000293     -0.000799      0.000000
     62 O2    c       0.000353     -0.000087      0.000059      0.000000
     63 O2    c      -0.000210     -0.000041      0.000065      0.000000
     64 O2    c       0.000183     -0.000058      0.000139      0.000000
     65 O2    c      -0.000021      0.000149     -0.000349      0.000000
     66 O2    c       0.000463      0.000421      0.000369      0.000000
     67 O2    c       0.000403      0.000077     -0.000328      0.000000
     68 O2    c      -0.000305      0.000131     -0.000236      0.000000
     69 O2    c       0.000609      0.000066      0.000052      0.000000
     70 O2    c      -0.000015      0.000083      0.000076      0.000000
     71 O2    c      -0.000906     -0.000222      0.003175      0.000000
     72 O2    c       0.000209      0.000219      0.000253      0.000000
     73 O3    c      -0.001842     -0.000404      0.001627      0.000000
     74 O2    c       0.000153      0.000044     -0.000001      0.000000
     75 O2    c       0.000106     -0.000008     -0.000205      0.000000
     76 O2    c      -0.000000     -0.000110      0.000038      0.000000
     77 O2    c       0.000801     -0.000496     -0.000621      0.000000
     78 O3    c      -0.000042      0.000185     -0.000632      0.000000
     79 O2    c       0.000761      0.000204      0.000520      0.000000
     80 O2    c       0.000278     -0.000000     -0.000234      0.000000
     81 O3    c       0.000123     -0.000094     -0.000479      0.000000
     82 O2    c       0.000305     -0.000095     -0.000252      0.000000
     83 O2    c      -0.000131      0.000299     -0.000343      0.000000
     84 O2    c       0.000396     -0.000180      0.000738      0.000000
     85 O2    c       0.000304     -0.000002      0.000200      0.000000
     86 O2    c       0.002450     -0.000965     -0.003654      0.000000
     87 O2    c      -0.000193      0.000009      0.000137      0.000000
     88 O2    c      -0.000094      0.000074      0.000374      0.000000
     89 O2    c       0.000165      0.000112      0.000444      0.000000
     90 O2    c       0.000373      0.000193      0.000525      0.000000
     91 O2    c       0.000239      0.000056      0.000194      0.000000
     92 O2    c      -0.000030      0.000006     -0.000200      0.000000
     93 O2    c      -0.000097     -0.000233     -0.002554      0.000000
     94 O2    c       0.000102     -0.000036      0.000565      0.000000
     95 O2    c       0.000256      0.001085      0.006322      0.000000
     96 O2    c       0.000236     -0.000062      0.000083      0.000000
     97 O2    c      -0.000556      0.000137     -0.000476      0.000000
     98 O2    c       0.000094      0.000159      0.000516      0.000000
     99 O2    c      -0.000105      0.000025      0.000469      0.000000
    100 O2    c       0.000035      0.000071      0.000739      0.000000
    101 O2    c       0.000111     -0.000045      0.000055      0.000000
    102 O2    c       0.000335      0.000158      0.000519      0.000000
    103 O2    c       0.000330      0.000160     -0.000303      0.000000
    104 O2    c      -0.002772      0.000713     -0.000742      0.000000
    105 O2    c      -0.000076      0.000132     -0.000641      0.000000
    106 O2    c      -0.000155     -0.000129     -0.000155      0.000000
    107 O2    c      -0.000078      0.000031     -0.000198      0.000000
    108 O2    c       0.000078      0.000324      0.001464      0.000000
    109 O2    c       0.000377      0.000074      0.000250      0.000000
    110 O2    c      -0.000133     -0.000062     -0.000033      0.000000
    111 O3    c       0.000477     -0.000205     -0.000656      0.000000
    112 O2    c      -0.000128      0.000019     -0.000094      0.000000
    113 O3    c      -0.002077     -0.001154      0.000806      0.000000
    114 O2    c       0.000006      0.000106      0.000119      0.000000
    115 O2    c      -0.001150      0.000303      0.000024      0.000000
    116 O2    c       0.000205      0.000218      0.000035      0.000000
    117 O3    c       0.000240     -0.000084     -0.000471      0.000000
    118 O2    c      -0.000030     -0.000088     -0.000176      0.000000
    119 O2    c      -0.000099      0.000140     -0.000185      0.000000
    120 O2    c       0.001135     -0.000027      0.000888      0.000000
    121 O2    c       0.000343      0.000058      0.000171      0.000000
    122 O2    c       0.000784      0.000882     -0.001225      0.000000
    123 O2    c      -0.000164      0.000085      0.000232      0.000000
    124 O2    c      -0.000241      0.000072      0.000356      0.000000
    125 O2    c       0.000195      0.000201      0.000356      0.000000
    126 O2    c       0.000400      0.000143      0.000388      0.000000
    127 O3    c      -0.000130     -0.000609     -0.001141      0.000000
    128 O2    c       0.000050      0.000092      0.000301      0.000000
    129 O2    c      -0.000073      0.000036      0.000354      0.000000
    130 O2    c       0.000046     -0.000091      0.000457      0.000000
    131 O3    c       0.000231      0.000472      0.000070      0.000000
    132 O2    c       0.000556      0.000093      0.000418      0.000000
    133 O2    c       0.000370      0.000047     -0.000070      0.000000
    134 O2    c       0.000315     -0.000228      0.000185      0.000000
    135 O2    c      -0.000134     -0.000004     -0.000293      0.000000
    136 O2    c      -0.000068     -0.000063     -0.000141      0.000000
    137 O2    c       0.000190      0.000086     -0.000299      0.000000
    138 O2    c      -0.000164      0.001143      0.001693      0.000000
    139 O3    c      -0.001832     -0.001394     -0.001799      0.000000
    140 O2    c       0.000322      0.000145      0.000218      0.000000
    141 O2    c      -0.000174     -0.000003      0.000255      0.000000
    142 O2    c      -0.000002      0.000076      0.000361      0.000000
    143 O3    c       0.000479     -0.000274      0.000690      0.000000
    144 O2    c       0.000385      0.000457      0.000437      0.000000
    145 O2    c       0.000245     -0.000001     -0.000124      0.000000
    146 O2    c       0.000293      0.000125     -0.000094      0.000000
    147 O3    c      -0.000129     -0.000080     -0.000605      0.000000
    148 O2    c      -0.000073      0.000028     -0.000202      0.000000
    149 O2    c       0.000032     -0.000101     -0.000088      0.000000
    150 O2    c       0.000473     -0.000841      0.001607      0.000000
    151 O2    c       0.000068      0.000075      0.001013      0.000000
    152 O2    c       0.000174      0.000131     -0.000216      0.000000
    153 O3    c       0.000198     -0.000219      0.000385      0.000000
    154 O2    c       0.000005     -0.000084      0.000087      0.000000
    155 O2    c       0.000009      0.000100      0.000231      0.000000
    156 O2    c       0.000583     -0.000598     -0.001365      0.000000
    157 O2    c       0.000276      0.000099     -0.000180      0.000000
    158 O2    c       0.000107      0.001187      0.002305      0.000000
    159 O2    c      -0.000206     -0.000015     -0.000318      0.000000
    160 O2    c       0.000225     -0.000167     -0.000945      0.000000
    161 O2    c      -0.000016      0.000169     -0.000222      0.000000
    162 O2    c       0.000360      0.000164     -0.000257      0.000000
    163 O2    c      -0.000030      0.000033      0.000106      0.000000
    164 O2    c       0.000338      0.000162     -0.000185      0.000000
    165 O2    c       0.000121      0.000015     -0.000420      0.000000
    166 O2    c       0.000111      0.000203     -0.000269      0.000000
    167 O2    c      -0.000096     -0.000020     -0.000257      0.000000
    168 O2    c       0.000662      0.000030      0.000962      0.000000
    169 O2    c       0.000255     -0.000061      0.000425      0.000000
    170 O2    c       0.000839     -0.000389     -0.000774      0.000000
    171 O2    c      -0.000049      0.000026      0.000184      0.000000
    172 O2    c       0.000433      0.000032      0.000270      0.000000
    173 O2    c       0.000138      0.000005      0.000482      0.000000
    174 O2    c       0.000537     -0.000020      0.000081      0.000000
    175 O2    c       0.000289      0.000078      0.000289      0.000000
    176 O2    c       0.000230      0.000073     -0.000060      0.000000
    177 O2    c       0.000059      0.000422     -0.003250      0.000000
    178 O2    c      -0.000043      0.000037      0.000078      0.000000
    179 O2    c       0.001123     -0.000257      0.000249      0.000000
    180 O2    c       0.000261     -0.000046      0.000169      0.000000
    181 F     c       0.000314      0.000126     -0.000035      0.000000
    182 F     c      -0.000037      0.000167      0.000070      0.000000
    183 F     c       0.000161      0.000018     -0.000112      0.000000
    184 F     c      -0.000105      0.000069      0.000013      0.000000
    185 F     c       0.000014      0.000395     -0.001125      0.000000
    186 F     c       0.000160     -0.000006     -0.000038      0.000000
    187 O2    s       0.000860     -0.000274     -0.001700      0.000000
    188 O2    s       0.000340      0.000005      0.000243      0.000000
    189 O2    s      -0.000254      0.000073     -0.000148      0.000000
    190 O2    s       0.000184     -0.000007      0.000077      0.000000
    191 O2    s      -0.000135      0.000432     -0.000307      0.000000
    192 O2    s       0.000529      0.000360      0.001418      0.000000
    193 O2    s       0.000519      0.000198     -0.000240      0.000000
    194 O2    s      -0.000443      0.000284     -0.000350      0.000000
    195 O2    s      -0.000191      0.000954     -0.001098      0.000000
    196 O2    s       0.000003      0.000073      0.000488      0.000000
    197 O2    s       0.000294     -0.000727      0.005694      0.000000
    198 O2    s       0.000230      0.000099      0.000461      0.000000
    199 O3    s       0.000550     -0.000431     -0.000024      0.000000
    200 O2    s       0.000309     -0.000236     -0.000147      0.000000
    201 O2    s       0.000277     -0.000118     -0.000314      0.000000
    202 O2    s       0.000086     -0.000030      0.000109      0.000000
    203 O2    s       0.000158      0.000273      0.000271      0.000000
    204 O3    s      -0.000215      0.000407     -0.000246      0.000000
    205 O2    s       0.001073     -0.000000     -0.000527      0.000000
    206 O2    s       0.000296      0.000033     -0.000368      0.000000
    207 O3    s       0.000249     -0.000040     -0.000580      0.000000
    208 O2    s       0.000262      0.000013     -0.000532      0.000000
    209 O2    s      -0.000029      0.000158     -0.000210      0.000000
    210 O2    s       0.000663     -0.000063      0.003008      0.000000
    211 O2    s       0.000317     -0.000037      0.000539      0.000000
    212 O2    s       0.003000     -0.001547     -0.006973      0.000000
    213 O2    s      -0.000268      0.000125      0.000210      0.000000
    214 O2    s       0.000055      0.000036      0.000330      0.000000
    215 O2    s       0.000167      0.000054      0.000822      0.000000
    216 O2    s       0.000514      0.000138      0.000816      0.000000
    217 O2    s       0.000394      0.000245      0.000647      0.000000
    218 O2    s       0.000031      0.000092     -0.000170      0.000000
    219 O2    s       0.000033     -0.000572     -0.002210      0.000000
    220 O2    s      -0.000098      0.000184      0.000530      0.000000
    221 O2    s       0.000606      0.001367      0.004548      0.000000
    222 O2    s       0.000254     -0.000017      0.000131      0.000000
    223 O2    s      -0.000921      0.000886     -0.001720      0.000000
    224 O2    s       0.000273      0.000184      0.000780      0.000000
    225 O2    s      -0.000008      0.000013      0.000171      0.000000
    226 O2    s       0.000121      0.000064      0.000839      0.000000
    227 O2    s      -0.000131      0.000101      0.000038      0.000000
    228 O2    s       0.000209      0.000363      0.001858      0.000000
    229 O2    s       0.000367      0.000117     -0.000359      0.000000
    230 O2    s      -0.003053      0.000717     -0.002545      0.000000
    231 O2    s      -0.000315      0.000192     -0.000805      0.000000
    232 O2    s      -0.000064     -0.000074     -0.000500      0.000000
    233 O2    s      -0.000070      0.000045     -0.000198      0.000000
    234 O2    s       0.001061      0.000034      0.002382      0.000000
    235 O2    s       0.000370      0.000439      0.000302      0.000000
    236 O2    s      -0.000310      0.000142     -0.000096      0.000000
    237 O3    s      -0.000011      0.000602     -0.001101      0.000000
    238 O2    s       0.000089     -0.000291     -0.000132      0.000000
    239 O3    s      -0.000835      0.000346     -0.001650      0.000000
    240 O2    s       0.000007      0.000107      0.000217      0.000000
    241 O2    s      -0.000860      0.000236     -0.001438      0.000000
    242 O2    s       0.000206      0.000240     -0.000092      0.000000
    243 O3    s       0.000331     -0.000387     -0.000483      0.000000
    244 O2    s       0.000106      0.000006     -0.000276      0.000000
    245 O2    s       0.000025      0.000028     -0.000217      0.000000
    246 O2    s       0.000143      0.000781      0.001888      0.000000
    247 O2    s       0.000537     -0.000025      0.000492      0.000000
    248 O2    s       0.000451     -0.000094     -0.002585      0.000000
    249 O2    s      -0.000348      0.000375      0.000413      0.000000
    250 O2    s       0.000202     -0.000149      0.000309      0.000000
    251 O2    s       0.000065      0.000202      0.000840      0.000000
    252 O2    s       0.000715     -0.000077      0.001221      0.000000
    253 O3    s       0.000643      0.000279     -0.001427      0.000000
    254 O2    s       0.000176      0.000140      0.000466      0.000000
    255 O2    s       0.000184     -0.000183      0.000360      0.000000
    256 O2    s       0.000113     -0.000001      0.000879      0.000000
    257 O3    s      -0.000359      0.000506     -0.000644      0.000000
    258 O2    s       0.000328      0.000626      0.001025      0.000000
    259 O2    s       0.000450      0.000052     -0.000359      0.000000
    260 O2    s       0.000081      0.000202     -0.000665      0.000000
    261 O2    s      -0.000342      0.000136     -0.000696      0.000000
    262 O2    s      -0.000287     -0.000033     -0.000495      0.000000
    263 O2    s       0.000043      0.000031     -0.000297      0.000000
    264 O2    s       0.000930     -0.000623      0.002886      0.000000
    265 O3    s      -0.000152     -0.001133     -0.001484      0.000000
    266 O2    s       0.000156      0.000207      0.000622      0.000000
    267 O2    s      -0.000316      0.000058      0.000479      0.000000
    268 O2    s      -0.000012      0.000181      0.000864      0.000000
    269 O3    s       0.000121      0.000342      0.000549      0.000000
    270 O2    s       0.000450      0.000430      0.000882      0.000000
    271 O2    s       0.000205      0.000001     -0.000135      0.000000
    272 O2    s       0.000039      0.000258     -0.001210      0.000000
    273 O3    s       0.000132     -0.000226     -0.000960      0.000000
    274 O2    s       0.000200     -0.000360     -0.000214      0.000000
    275 O2    s       0.000069     -0.000044     -0.000132      0.000000
    276 O2    s       0.000098      0.000139      0.004355      0.000000
    277 O2    s      -0.000223     -0.000042      0.000462      0.000000
    278 O2    s       0.000305      0.000310      0.000097      0.000000
    279 O3    s       0.000443     -0.000280     -0.000026      0.000000
    280 O2    s       0.000101      0.000051      0.000142      0.000000
    281 O2    s       0.000283     -0.000163      0.000199      0.000000
    282 O2    s       0.000142      0.000419     -0.000213      0.000000
    283 O2    s       0.000364      0.000087     -0.000016      0.000000
    284 O2    s       0.000839      0.000350      0.002295      0.000000
    285 O2    s      -0.000517      0.000130     -0.000270      0.000000
    286 O2    s       0.000591     -0.000363     -0.000732      0.000000
    287 O2    s      -0.000202      0.000371     -0.000169      0.000000
    288 O2    s       0.000749      0.000112     -0.000185      0.000000
    289 O2    s       0.000173     -0.000101     -0.001180      0.000000
    290 O2    s       0.000440      0.000210     -0.000410      0.000000
    291 O2    s       0.000082     -0.000065     -0.001023      0.000000
    292 O2    s       0.000208      0.000089     -0.000443      0.000000
    293 O2    s      -0.000345      0.000214     -0.000542      0.000000
    294 O2    s       0.000840     -0.000180      0.001105      0.000000
    295 O2    s       0.000356      0.000026      0.000834      0.000000
    296 O2    s      -0.000298      0.000479     -0.001253      0.000000
    297 O2    s       0.000004      0.000056      0.000550      0.000000
    298 O2    s       0.000541     -0.000304     -0.000263      0.000000
    299 O2    s       0.000230     -0.000119      0.000945      0.000000
    300 O2    s       0.000412      0.000153      0.001277      0.000000
    301 O2    s       0.000559     -0.000204      0.000276      0.000000
    302 O2    s       0.000434     -0.000132     -0.000130      0.000000
    303 O2    s       0.000537      0.000288     -0.002473      0.000000
    304 O2    s      -0.000291      0.000353      0.000113      0.000000
    305 O2    s      -0.000199      0.001025      0.000864      0.000000
    306 O2    s       0.000529     -0.000035      0.000224      0.000000
    307 F     s       0.000358      0.000200     -0.000125      0.000000
    308 F     s      -0.000060      0.000282      0.000300      0.000000
    309 F     s       0.000195      0.000088     -0.000195      0.000000
    310 F     s      -0.000103      0.000050      0.000063      0.000000
    311 F     s       0.000450     -0.000148     -0.001408      0.000000
    312 F     s       0.000171     -0.000010     -0.000038      0.000000
--------------------------------------------------------------------------------
  Maximum abs         0.003053      0.001547      0.006973      0.000000
--------------------------------------------------------------------------------


  Time to end of optimisation =      55.6398 seconds


  Peak dynamic memory used =      19.13 MB 


  Timing analysis for GULP :

--------------------------------------------------------------------------------
  Task / Subroutine                                          Time (Seconds)
--------------------------------------------------------------------------------
  Calculation of reciprocal space energy and derivatives          1.4236
  Calculation of real space energy and derivatives               48.5692
  Calculation of three-body energy and derivatives                4.8072
  Calculation of matrix inversion                                 0.7441
  Global summation overhead                                       0.0001
--------------------------------------------------------------------------------
  Total CPU time                                                 55.6398
--------------------------------------------------------------------------------


  Dump file written as out.res                                                 
  CIF file written as out.cif                                                 


  Job Finished at 06:25.49 26th October    2016                               

