********************************************************************************
*                       GENERAL UTILITY LATTICE PROGRAM                        *
*                                 Julian Gale                                  *
*                      Nanochemistry Research Institute                        *
*                           Department of Chemistry                            *
*                    Curtin University, Western Australia                      *
********************************************************************************
* Version = 4.2.0 * Last modified =  20th January 2014                         *
********************************************************************************
*  optimise     - perform optimisation run                                     *
*  conp         - constant pressure calculation                                *
*  qok          - running with non charge neutral cell is OK                   *
********************************************************************************

  Job Started  at 17:49.39 27th October    2016                               

  Number of CPUs =     1


  Total number of configurations input =   1

********************************************************************************
*  Input for Configuration =   1                                               *
********************************************************************************

  Formula = Ge3Si57O120F6                                               

  Number of irreducible atoms/shells =     312


  Total number atoms/shells =     312

  Dimensionality = 3               :  Bulk   


  Charge on solid   =  -6.000000 =>neutralising background added


  Cartesian lattice vectors (Angstroms) :

       11.947849    0.000000    0.000000
       -5.977874   10.386597    0.000000
       -0.327198    0.155569   29.437049

  Cell parameters (Angstroms/Degrees):

  a =      11.9478    alpha =  89.4199
  b =      11.9840    beta  =  90.6368
  c =      29.4393    gamma = 119.9220

  Initial cell volume =        3653.063976 Angs**3

  Temperature of configuration =  0.000     K 

  Pressure of configuration =         0.000 GPa 

  Fractional coordinates of asymmetric unit :

--------------------------------------------------------------------------------
   No.  Atomic       x           y          z         Charge      Occupancy
        Label      (Frac)      (Frac)     (Frac)        (e)         (Frac)  
--------------------------------------------------------------------------------
      1 Ge    c    0.699600    0.375700    0.033890     4.00000    1.000000    
      2 Si    c    0.625079 *  0.308517 *  0.363374 *   4.00000    1.000000    
      3 Si    c    0.672541 *  0.305597 *  0.697250 *   4.00000    1.000000    
      4 Si    c    0.301863 *  0.627905 *  0.528733 *   4.00000    1.000000    
      5 Si    c    0.374305 *  0.679919 *  0.863477 *   4.00000    1.000000    
      6 Si    c    0.312869 *  0.689942 *  0.197046 *   4.00000    1.000000    
      7 Si    c    0.372586 *  0.689691 *  0.297233 *   4.00000    1.000000    
      8 Si    c    0.318320 *  0.622027 *  0.963631 *   4.00000    1.000000    
      9 Si    c    0.296192 *  0.687990 *  0.630548 *   4.00000    1.000000    
     10 Si    c    0.618140 *  0.303245 *  0.798101 *   4.00000    1.000000    
     11 Ge    c    0.659410 *  0.377349 *  0.461077 *   4.00000    1.000000    
     12 Si    c    0.678754 *  0.310607 *  0.131987 *   4.00000    1.000000    
     13 Si    c    0.528282 *  0.418584 *  0.965800 *   4.00000    1.000000    
     14 Si    c    0.575701 *  0.096338 *  0.298346 *   4.00000    1.000000    
     15 Si    c    0.878334 *  0.479807 *  0.630479 *   4.00000    1.000000    
     16 Si    c    0.472422 *  0.578506 *  0.466548 *   4.00000    1.000000    
     17 Si    c    0.413108 *  0.891590 *  0.798402 *   4.00000    1.000000    
     18 Si    c    0.100670 *  0.522815 *  0.130417 *   4.00000    1.000000    
     19 Si    c    0.417407 *  0.522197 *  0.363908 *   4.00000    1.000000    
     20 Si    c    0.102107 *  0.578355 *  0.027167 *   4.00000    1.000000    
     21 Si    c    0.465543 *  0.895390 *  0.696723 *   4.00000    1.000000    
     22 Si    c    0.579659 *  0.473711 *  0.863426 *   4.00000    1.000000    
     23 Si    c    0.869648 *  0.415284 *  0.527086 *   4.00000    1.000000    
     24 Si    c    0.518420 *  0.097250 *  0.197342 *   4.00000    1.000000    
     25 Si    c    0.298284 *  0.403511 *  0.848871 *   4.00000    1.000000    
     26 Si    c    0.591379 *  0.890639 *  0.181892 *   4.00000    1.000000    
     27 Ge    c    0.090465 *  0.687449 *  0.522058 *   4.00000    1.000000    
     28 Si    c    0.703952 *  0.592387 *  0.351379 *   4.00000    1.000000    
     29 Si    c    0.393734 *  0.104282 *  0.682256 *   4.00000    1.000000    
     30 Si    c    0.887935 *  0.291912 *  0.011754 *   4.00000    1.000000    
     31 Si    c    0.388642 *  0.289318 *  0.482988 *   4.00000    1.000000    
     32 Si    c    0.885415 *  0.593867 *  0.143323 *   4.00000    1.000000    
     33 Si    c    0.694398 *  0.100769 *  0.813043 *   4.00000    1.000000    
     34 Si    c    0.597046 *  0.699567 *  0.978756 *   4.00000    1.000000    
     35 Si    c    0.091748 *  0.407461 *  0.646374 *   4.00000    1.000000    
     36 Si    c    0.294007 *  0.889357 *  0.313486 *   4.00000    1.000000    
     37 Si    c    0.248408 *  0.342877 *  0.949173 *   4.00000    1.000000    
     38 Si    c    0.654036 *  0.896418 *  0.282576 *   4.00000    1.000000    
     39 Si    c    0.082107 *  0.762870 *  0.617372 *   4.00000    1.000000    
     40 Si    c    0.757704 *  0.661068 *  0.453587 *   4.00000    1.000000    
     41 Si    c    0.336398 *  0.094049 *  0.782962 *   4.00000    1.000000    
     42 Si    c    0.894608 *  0.241927 *  0.114732 *   4.00000    1.000000    
     43 Si    c    0.339590 *  0.240251 *  0.379798 *   4.00000    1.000000    
     44 Si    c    0.897555 *  0.658444 *  0.040741 *   4.00000    1.000000    
     45 Si    c    0.743977 *  0.096429 *  0.712432 *   4.00000    1.000000    
     46 Si    c    0.655526 *  0.751879 *  0.878055 *   4.00000    1.000000    
     47 Si    c    0.081567 *  0.344825 *  0.545053 *   4.00000    1.000000    
     48 Si    c    0.239823 *  0.896885 *  0.212467 *   4.00000    1.000000    
     49 Si    c    0.971235 *  0.121945 *  0.963425 *   4.00000    1.000000    
     50 Si    c    0.876542 *  0.839865 *  0.298630 *   4.00000    1.000000    
     51 Si    c    0.143849 *  0.037255 *  0.633405 *   4.00000    1.000000    
     52 Si    c    0.033629 *  0.880811 *  0.467195 *   4.00000    1.000000    
     53 Si    c    0.118702 *  0.156038 *  0.798430 *   4.00000    1.000000    
     54 Si    c    0.839995 *  0.965062 *  0.131339 *   4.00000    1.000000    
     55 Si    c    0.119830 *  0.963110 *  0.364556 *   4.00000    1.000000    
     56 Si    c    0.846235 *  0.881453 *  0.029705 *   4.00000    1.000000    
     57 Si    c    0.024063 *  0.160490 *  0.697745 *   4.00000    1.000000    
     58 Si    c    0.875151 *  0.030118 *  0.862911 *   4.00000    1.000000    
     59 Si    c    0.135281 *  0.121030 *  0.531764 *   4.00000    1.000000    
     60 Si    c    0.961527 *  0.840975 *  0.196335 *   4.00000    1.000000    
     61 O2    c    0.927471 *  0.004539 *  0.998209 *   0.87073    1.000000    
     62 O2    c    0.999253 *  0.923590 *  0.330562 *   0.87073    1.000000    
     63 O2    c    0.068285 *  0.084997 *  0.664969 *   0.87073    1.000000    
     64 O2    c    0.063895 *  0.005838 *  0.496775 *   0.87073    1.000000    
     65 O2    c    0.995979 *  0.073207 *  0.830068 *   0.87073    1.000000    
     66 O2    c    0.922906 *  0.926844 *  0.164834 *   0.87073    1.000000    
     67 O2    c    0.339413 *  0.567678 *  0.330348 *   0.87073    1.000000    
     68 O2    c    0.418105 *  0.771114 *  0.663954 *   0.87073    1.000000    
     69 O2    c    0.229723 *  0.655819 *  0.996285 *   0.87073    1.000000    
     70 O2    c    0.655915 *  0.425087 *  0.830948 *   0.87073    1.000000    
     71 O2    c    0.566287 *  0.227540 *  0.168179 *   0.87073    1.000000    
     72 O3    c    0.744584 *  0.328908 *  0.498624 *   1.33043    1.000000    
     73 O3    c    0.567817 *  0.337781 *  0.997763 *   1.33043    1.000000    
     74 O2    c    0.755462 *  0.428323 *  0.664103 *   0.87073    1.000000    
     75 O2    c    0.655917 *  0.225359 *  0.327844 *   0.87073    1.000000    
     76 O2    c    0.427245 *  0.655677 *  0.499234 *   0.87073    1.000000    
     77 O2    c    0.224578 *  0.568934 *  0.163676 *   0.87073    1.000000    
     78 O2    c    0.335991 *  0.765730 *  0.830598 *   0.87073    1.000000    
     79 O2    c    0.124807 *  0.214017 *  0.969288 *   0.87073    1.000000    
     80 O2    c    0.781656 *  0.898846 *  0.302939 *   0.87073    1.000000    
     81 O2    c    0.084548 *  0.884908 *  0.642585 *   0.87073    1.000000    
     82 O2    c    0.877219 *  0.795276 *  0.470504 *   0.87073    1.000000    
     83 O2    c    0.210133 *  0.092905 *  0.803325 *   0.87073    1.000000    
     84 O2    c    0.897150 *  0.118407 *  0.136491 *   0.87073    1.000000    
     85 O2    c    0.215812 *  0.116578 *  0.357579 *   0.87073    1.000000    
     86 O2    c    0.915460 *  0.796585 *  0.024677 *   0.87073    1.000000    
     87 O2    c    0.869794 *  0.096369 *  0.692160 *   0.87073    1.000000    
     88 O2    c    0.782353 *  0.876651 *  0.857497 *   0.87073    1.000000    
     89 O2    c    0.075355 *  0.215313 *  0.526336 *   0.87073    1.000000    
     90 O2    c    0.115187 *  0.899769 *  0.191589 *   0.87073    1.000000    
     91 O2    c    0.924426 *  0.849898 *  0.247511 *   0.87073    1.000000    
     92 O2    c    0.119575 *  0.067091 *  0.582473 *   0.87073    1.000000    
     93 O2    c    0.931725 *  0.065399 *  0.913343 *   0.87073    1.000000    
     94 O2    c    0.065856 *  0.146633 *  0.747916 *   0.87073    1.000000    
     95 O2    c    0.856359 *  0.930117 *  0.080839 *   0.87073    1.000000    
     96 O2    c    0.070615 *  0.931145 *  0.415122 *   0.87073    1.000000    
     97 O2    c    0.900845 *  0.202977 *  0.973745 *   0.87073    1.000000    
     98 O2    c    0.797972 *  0.689265 *  0.312252 *   0.87073    1.000000    
     99 O2    c    0.297411 *  0.108973 *  0.643733 *   0.87073    1.000000    
    100 O3    c    0.102462 *  0.804353 *  0.480251 *   1.33043    1.000000    
    101 O2    c    0.200040 *  0.306911 *  0.810463 *   0.87073    1.000000    
    102 O2    c    0.687896 *  0.890681 *  0.143379 *   0.87073    1.000000    
    103 O2    c    0.197979 *  0.889035 *  0.352002 *   0.87073    1.000000    
    104 O2    c    0.694652 *  0.798278 *  0.017106 *   0.87073    1.000000    
    105 O2    c    0.091439 *  0.312651 *  0.685875 *   0.87073    1.000000    
    106 O2    c    0.793136 *  0.101020 *  0.851627 *   0.87073    1.000000    
    107 O2    c    0.286874 *  0.204125 *  0.521556 *   0.87073    1.000000    
    108 O2    c    0.888632 *  0.691120 *  0.181987 *   0.87073    1.000000    
    109 O2    c    0.312837 *  0.630046 *  0.247180 *   0.87073    1.000000    
    110 O2    c    0.350568 *  0.683728 *  0.580556 *   0.87073    1.000000    
    111 O2    c    0.315626 *  0.680114 *  0.913452 *   0.87073    1.000000    
    112 O2    c    0.673965 *  0.361588 *  0.747714 *   0.87073    1.000000    
    113 O3    c    0.609866 *  0.301700 *  0.084559 *   1.33043    1.000000    
    114 O3    c    0.682515 *  0.303343 *  0.411389 *   1.33043    1.000000    
    115 O2    c    0.370937 *  0.333418 *  0.966754 *   0.87073    1.000000    
    116 O2    c    0.662496 *  0.026773 *  0.301450 *   0.87073    1.000000    
    117 O2    c    0.949975 *  0.635412 *  0.634269 *   0.87073    1.000000    
    118 O2    c    0.627474 *  0.665440 *  0.466781 *   0.87073    1.000000    
    119 O2    c    0.326249 *  0.961155 *  0.801053 *   0.87073    1.000000    
    120 O2    c    0.026584 *  0.367112 *  0.131804 *   0.87073    1.000000    
    121 O2    c    0.335795 *  0.366684 *  0.361879 *   0.87073    1.000000    
    122 O2    c    0.031177 *  0.663277 *  0.025715 *   0.87073    1.000000    
    123 O2    c    0.621961 *  0.964820 *  0.693556 *   0.87073    1.000000    
    124 O2    c    0.664947 *  0.629779 *  0.859735 *   0.87073    1.000000    
    125 O2    c    0.949833 *  0.336872 *  0.528625 *   0.87073    1.000000    
    126 O2    c    0.362191 *  0.027901 *  0.193853 *   0.87073    1.000000    
    127 O3    c    0.754331 *  0.284394 *  0.002350 *   1.33043    1.000000    
    128 O2    c    0.697832 *  0.456409 *  0.343130 *   0.87073    1.000000    
    129 O2    c    0.528756 *  0.237073 *  0.674852 *   0.87073    1.000000    
    130 O3    c    0.241329 *  0.703851 *  0.504517 *   1.33043    1.000000    
    131 O2    c    0.299441 *  0.537965 *  0.840306 *   0.87073    1.000000    
    132 O2    c    0.455638 *  0.757542 *  0.174263 *   0.87073    1.000000    
    133 O2    c    0.297002 *  0.756095 *  0.320131 *   0.87073    1.000000    
    134 O2    c    0.462091 *  0.699281 *  0.986221 *   0.87073    1.000000    
    135 O2    c    0.223453 *  0.543392 *  0.651755 *   0.87073    1.000000    
    136 O2    c    0.693710 *  0.234287 *  0.820342 *   0.87073    1.000000    
    137 O3    c    0.513804 *  0.280983 *  0.492204 *   1.33043    1.000000    
    138 O2    c    0.753522 *  0.458721 *  0.151257 *   0.87073    1.000000    
    139 O3    c    0.772275 *  0.546051 *  0.018866 *   1.33043    1.000000    
    140 O2    c    0.467655 *  0.243157 *  0.361899 *   0.87073    1.000000    
    141 O2    c    0.748051 *  0.224892 *  0.692955 *   0.87073    1.000000    
    142 O2    c    0.208954 *  0.471077 *  0.526627 *   0.87073    1.000000    
    143 O2    c    0.530705 *  0.755641 *  0.858532 *   0.87073    1.000000    
    144 O2    c    0.236048 *  0.769529 *  0.192903 *   0.87073    1.000000    
    145 O2    c    0.529047 *  0.768798 *  0.301618 *   0.87073    1.000000    
    146 O2    c    0.244320 *  0.466267 *  0.969040 *   0.87073    1.000000    
    147 O2    c    0.209624 *  0.756702 *  0.633997 *   0.87073    1.000000    
    148 O2    c    0.462132 *  0.219959 *  0.802485 *   0.87073    1.000000    
    149 O3    c    0.760218 *  0.543755 *  0.476769 *   1.33043    1.000000    
    150 O2    c    0.771039 *  0.245698 *  0.133799 *   0.87073    1.000000    
    151 O2    c    0.225948 *  0.327933 *  0.894818 *   0.87073    1.000000    
    152 O2    c    0.668581 *  0.895188 *  0.228065 *   0.87073    1.000000    
    153 O3    c    0.082761 *  0.790041 *  0.564742 *   1.33043    1.000000    
    154 O2    c    0.773005 *  0.660953 *  0.398226 *   0.87073    1.000000    
    155 O2    c    0.319012 *  0.098236 *  0.728598 *   0.87073    1.000000    
    156 O2    c    0.892483 *  0.226878 *  0.060457 *   0.87073    1.000000    
    157 O2    c    0.321520 *  0.225959 *  0.434052 *   0.87073    1.000000    
    158 O2    c    0.888201 *  0.663263 *  0.096127 *   0.87073    1.000000    
    159 O2    c    0.764503 *  0.096817 *  0.766781 *   0.87073    1.000000    
    160 O2    c    0.672730 *  0.770286 *  0.932507 *   0.87073    1.000000    
    161 O2    c    0.088655 *  0.337332 *  0.599754 *   0.87073    1.000000    
    162 O2    c    0.222953 *  0.894212 *  0.266878 *   0.87073    1.000000    
    163 O2    c    0.580891 *  0.560222 *  0.988177 *   0.87073    1.000000    
    164 O2    c    0.435100 *  0.013231 *  0.321810 *   0.87073    1.000000    
    165 O2    c    0.969599 *  0.427400 *  0.651297 *   0.87073    1.000000    
    166 O2    c    0.416863 *  0.436475 *  0.487750 *   0.87073    1.000000    
    167 O2    c    0.554811 *  0.975714 *  0.821591 *   0.87073    1.000000    
    168 O2    c    0.008836 *  0.574296 *  0.149653 *   0.87073    1.000000    
    169 O2    c    0.562016 *  0.575803 *  0.345386 *   0.87073    1.000000    
    170 O2    c    0.011403 *  0.436619 *  0.006558 *   0.87073    1.000000    
    171 O2    c    0.406282 *  0.978198 *  0.673351 *   0.87073    1.000000    
    172 O2    c    0.437229 *  0.415803 *  0.840646 *   0.87073    1.000000    
    173 O3    c    0.952416 *  0.551414 *  0.501563 *   1.33043    1.000000    
    174 O2    c    0.576731 *  0.016037 *  0.173076 *   0.87073    1.000000    
    175 O2    c    0.573289 *  0.148099 *  0.247739 *   0.87073    1.000000    
    176 O2    c    0.830139 *  0.430563 *  0.579498 *   0.87073    1.000000    
    177 O2    c    0.581768 *  0.423634 *  0.914492 *   0.87073    1.000000    
    178 O2    c    0.412807 *  0.839916 *  0.747385 *   0.87073    1.000000    
    179 O2    c    0.147637 *  0.573133 *  0.079204 *   0.87073    1.000000    
    180 O2    c    0.418255 *  0.571807 *  0.414917 *   0.87073    1.000000    
    181 F     c    0.442137 *  0.886434 *  0.246848 *   0.56000    1.000000    
    182 F     c    0.092444 *  0.583610 *  0.570752 *   0.56000    1.000000    
    183 F     c    0.444588 *  0.554495 *  0.913143 *   0.56000    1.000000    
    184 F     c    0.544656 *  0.101117 *  0.746923 *   0.56000    1.000000    
    185 F     c    0.848805 *  0.430815 *  0.070833 *   0.56000    1.000000    
    186 F     c    0.569993 *  0.431595 *  0.423144 *   0.56000    1.000000    
    187 O2    s    0.923139 *  0.003797 *  0.997865 *  -2.87073    1.000000    
    188 O2    s    0.998538 *  0.918478 *  0.330653 *  -2.87073    1.000000    
    189 O2    s    0.071732 *  0.088266 *  0.665172 *  -2.87073    1.000000    
    190 O2    s    0.068947 *  0.005914 *  0.497686 *  -2.87073    1.000000    
    191 O2    s    0.996202 *  0.077656 *  0.830205 *  -2.87073    1.000000    
    192 O2    s    0.918059 *  0.921525 *  0.164649 *  -2.87073    1.000000    
    193 O2    s    0.350949 *  0.575322 *  0.330490 *  -2.87073    1.000000    
    194 O2    s    0.410234 *  0.775098 *  0.663803 *  -2.87073    1.000000    
    195 O2    s    0.225150 *  0.644311 *  0.996261 *  -2.87073    1.000000    
    196 O2    s    0.644260 *  0.417486 *  0.830863 *  -2.87073    1.000000    
    197 O2    s    0.573049 *  0.222411 *  0.167475 *  -2.87073    1.000000    
    198 O3    s    0.752351 *  0.341626 *  0.499116 *  -3.33043    1.000000    
    199 O3    s    0.573370 *  0.349249 *  0.997038 *  -3.33043    1.000000    
    200 O2    s    0.759619 *  0.421041 *  0.664051 *  -2.87073    1.000000    
    201 O2    s    0.644118 *  0.220211 *  0.328395 *  -2.87073    1.000000    
    202 O2    s    0.419142 *  0.644577 *  0.498814 *  -2.87073    1.000000    
    203 O2    s    0.220482 *  0.576250 *  0.163556 *  -2.87073    1.000000    
    204 O2    s    0.347884 *  0.770040 *  0.830618 *  -2.87073    1.000000    
    205 O2    s    0.120892 *  0.217287 *  0.966608 *  -2.87073    1.000000    
    206 O2    s    0.778371 *  0.892288 *  0.300366 *  -2.87073    1.000000    
    207 O2    s    0.090543 *  0.888755 *  0.639170 *  -2.87073    1.000000    
    208 O2    s    0.880162 *  0.789444 *  0.468354 *  -2.87073    1.000000    
    209 O2    s    0.213473 *  0.099760 *  0.800732 *  -2.87073    1.000000    
    210 O2    s    0.890877 *  0.115140 *  0.133718 *  -2.87073    1.000000    
    211 O2    s    0.218812 *  0.113641 *  0.360589 *  -2.87073    1.000000    
    212 O2    s    0.906150 *  0.791634 *  0.026840 *  -2.87073    1.000000    
    213 O2    s    0.873362 *  0.103270 *  0.694828 *  -2.87073    1.000000    
    214 O2    s    0.779191 *  0.880166 *  0.860156 *  -2.87073    1.000000    
    215 O2    s    0.082342 *  0.218974 *  0.528852 *  -2.87073    1.000000    
    216 O2    s    0.111690 *  0.893151 *  0.194255 *  -2.87073    1.000000    
    217 O2    s    0.923223 *  0.847729 *  0.247440 *  -2.87073    1.000000    
    218 O2    s    0.124028 *  0.069769 *  0.582525 *  -2.87073    1.000000    
    219 O2    s    0.929811 *  0.067814 *  0.913331 *  -2.87073    1.000000    
    220 O2    s    0.067003 *  0.149274 *  0.747866 *  -2.87073    1.000000    
    221 O2    s    0.853314 *  0.928734 *  0.080997 *  -2.87073    1.000000    
    222 O2    s    0.072669 *  0.929813 *  0.414446 *  -2.87073    1.000000    
    223 O2    s    0.907262 *  0.203508 *  0.976632 *  -2.87073    1.000000    
    224 O2    s    0.796663 *  0.695309 *  0.314822 *  -2.87073    1.000000    
    225 O2    s    0.291090 *  0.100989 *  0.646559 *  -2.87073    1.000000    
    226 O3    s    0.093786 *  0.805682 *  0.481425 *  -3.33043    1.000000    
    227 O2    s    0.201375 *  0.300610 *  0.813110 *  -2.87073    1.000000    
    228 O2    s    0.694007 *  0.898469 *  0.146047 *  -2.87073    1.000000    
    229 O2    s    0.199923 *  0.896660 *  0.349287 *  -2.87073    1.000000    
    230 O2    s    0.700903 *  0.797174 *  0.014577 *  -2.87073    1.000000    
    231 O2    s    0.084464 *  0.306815 *  0.682952 *  -2.87073    1.000000    
    232 O2    s    0.791773 *  0.093529 *  0.848909 *  -2.87073    1.000000    
    233 O2    s    0.281210 *  0.204238 *  0.518493 *  -2.87073    1.000000    
    234 O2    s    0.895988 *  0.696948 *  0.179529 *  -2.87073    1.000000    
    235 O2    s    0.318826 *  0.642069 *  0.247122 *  -2.87073    1.000000    
    236 O2    s    0.340314 *  0.678821 *  0.580746 *  -2.87073    1.000000    
    237 O2    s    0.321767 *  0.674182 *  0.913534 *  -2.87073    1.000000    
    238 O2    s    0.668176 *  0.350009 *  0.747681 *  -2.87073    1.000000    
    239 O3    s    0.623071 *  0.307668 *  0.085983 *  -3.33043    1.000000    
    240 O3    s    0.674893 *  0.308740 *  0.409499 *  -3.33043    1.000000    
    241 O2    s    0.373192 *  0.343087 *  0.964675 *  -2.87073    1.000000    
    242 O2    s    0.652578 *  0.020158 *  0.299131 *  -2.87073    1.000000    
    243 O2    s    0.955802 *  0.632066 *  0.632176 *  -2.87073    1.000000    
    244 O2    s    0.623772 *  0.655617 *  0.465410 *  -2.87073    1.000000    
    245 O2    s    0.336272 *  0.967964 *  0.798873 *  -2.87073    1.000000    
    246 O2    s    0.020628 *  0.370399 *  0.129889 *  -2.87073    1.000000    
    247 O2    s    0.344748 *  0.369860 *  0.363960 *  -2.87073    1.000000    
    248 O2    s    0.025267 *  0.653807 *  0.027373 *  -2.87073    1.000000    
    249 O2    s    0.618661 *  0.971506 *  0.695878 *  -2.87073    1.000000    
    250 O2    s    0.655191 *  0.626544 *  0.862037 *  -2.87073    1.000000    
    251 O2    s    0.956869 *  0.345424 *  0.530347 *  -2.87073    1.000000    
    252 O2    s    0.365388 *  0.021130 *  0.196204 *  -2.87073    1.000000    
    253 O3    s    0.765007 *  0.291251 *  0.005520 *  -3.33043    1.000000    
    254 O2    s    0.691434 *  0.456548 *  0.345973 *  -2.87073    1.000000    
    255 O2    s    0.529387 *  0.230148 *  0.677987 *  -2.87073    1.000000    
    256 O3    s    0.237559 *  0.694703 *  0.508311 *  -3.33043    1.000000    
    257 O2    s    0.306978 *  0.538393 *  0.843606 *  -2.87073    1.000000    
    258 O2    s    0.455066 *  0.764379 *  0.177416 *  -2.87073    1.000000    
    259 O2    s    0.304460 *  0.763065 *  0.317053 *  -2.87073    1.000000    
    260 O2    s    0.461199 *  0.691428 *  0.983116 *  -2.87073    1.000000    
    261 O2    s    0.216830 *  0.543698 *  0.648988 *  -2.87073    1.000000    
    262 O2    s    0.686038 *  0.227347 *  0.817265 *  -2.87073    1.000000    
    263 O3    s    0.509856 *  0.288358 *  0.489038 *  -3.33043    1.000000    
    264 O2    s    0.760156 *  0.458567 *  0.148511 *  -2.87073    1.000000    
    265 O3    s    0.781670 *  0.547807 *  0.022167 *  -3.33043    1.000000    
    266 O2    s    0.469355 *  0.249445 *  0.363999 *  -2.87073    1.000000    
    267 O2    s    0.739683 *  0.219423 *  0.695475 *  -2.87073    1.000000    
    268 O2    s    0.204428 *  0.473055 *  0.528786 *  -2.87073    1.000000    
    269 O2    s    0.527992 *  0.747290 *  0.861127 *  -2.87073    1.000000    
    270 O2    s    0.244530 *  0.774901 *  0.195409 *  -2.87073    1.000000    
    271 O2    s    0.526216 *  0.774359 *  0.299135 *  -2.87073    1.000000    
    272 O2    s    0.252458 *  0.469337 *  0.966401 *  -2.87073    1.000000    
    273 O2    s    0.205757 *  0.749875 *  0.631930 *  -2.87073    1.000000    
    274 O2    s    0.464865 *  0.214952 *  0.799938 *  -2.87073    1.000000    
    275 O3    s    0.752987 *  0.545407 *  0.473281 *  -3.33043    1.000000    
    276 O2    s    0.775439 *  0.251892 *  0.131525 *  -2.87073    1.000000    
    277 O2    s    0.235889 *  0.337461 *  0.895729 *  -2.87073    1.000000    
    278 O2    s    0.658962 *  0.894835 *  0.228992 *  -2.87073    1.000000    
    279 O3    s    0.083145 *  0.780401 *  0.567505 *  -3.33043    1.000000    
    280 O2    s    0.763952 *  0.653388 *  0.398499 *  -2.87073    1.000000    
    281 O2    s    0.328659 *  0.098428 *  0.729522 *  -2.87073    1.000000    
    282 O2    s    0.892254 *  0.234891 *  0.061538 *  -2.87073    1.000000    
    283 O2    s    0.330062 *  0.233738 *  0.433038 *  -2.87073    1.000000    
    284 O2    s    0.888730 *  0.655102 *  0.095871 *  -2.87073    1.000000    
    285 O2    s    0.755000 *  0.097179 *  0.765850 *  -2.87073    1.000000    
    286 O2    s    0.663036 *  0.760990 *  0.931568 *  -2.87073    1.000000    
    287 O2    s    0.088286 *  0.345684 *  0.599045 *  -2.87073    1.000000    
    288 O2    s    0.232145 *  0.893981 *  0.265935 *  -2.87073    1.000000    
    289 O2    s    0.577063 *  0.561224 *  0.984853 *  -2.87073    1.000000    
    290 O2    s    0.434683 *  0.008500 *  0.318484 *  -2.87073    1.000000    
    291 O2    s    0.973739 *  0.430813 *  0.648566 *  -2.87073    1.000000    
    292 O2    s    0.420187 *  0.436911 *  0.484939 *  -2.87073    1.000000    
    293 O2    s    0.555106 *  0.980631 *  0.818243 *  -2.87073    1.000000    
    294 O2    s    0.005350 *  0.570753 *  0.146924 *  -2.87073    1.000000    
    295 O2    s    0.561668 *  0.571718 *  0.348013 *  -2.87073    1.000000    
    296 O2    s    0.008405 *  0.437146 *  0.009316 *  -2.87073    1.000000    
    297 O2    s    0.411286 *  0.983223 *  0.676737 *  -2.87073    1.000000    
    298 O2    s    0.437131 *  0.420692 *  0.843912 *  -2.87073    1.000000    
    299 O3    s    0.955326 *  0.548663 *  0.505620 *  -3.33043    1.000000    
    300 O2    s    0.572091 *  0.010879 *  0.176509 *  -2.87073    1.000000    
    301 O2    s    0.567542 *  0.136892 *  0.247746 *  -2.87073    1.000000    
    302 O2    s    0.839165 *  0.434594 *  0.580118 *  -2.87073    1.000000    
    303 O2    s    0.576221 *  0.428481 *  0.914210 *  -2.87073    1.000000    
    304 O2    s    0.418329 *  0.850991 *  0.747369 *  -2.87073    1.000000    
    305 O2    s    0.138063 *  0.568316 *  0.079361 *  -2.87073    1.000000    
    306 O2    s    0.423568 *  0.567267 *  0.414758 *  -2.87073    1.000000    
    307 F     s    0.441816 *  0.885671 *  0.246774 *  -1.56000    1.000000    
    308 F     s    0.092866 *  0.590715 *  0.567732 *  -1.56000    1.000000    
    309 F     s    0.443928 *  0.555095 *  0.913051 *  -1.56000    1.000000    
    310 F     s    0.544932 *  0.101391 *  0.746843 *  -1.56000    1.000000    
    311 F     s    0.838804 *  0.427084 *  0.068572 *  -1.56000    1.000000    
    312 F     s    0.576511 *  0.427552 *  0.425732 *  -1.56000    1.000000    
--------------------------------------------------------------------------------



********************************************************************************
*  General input information                                                   *
********************************************************************************

  Species output for all configurations : 

--------------------------------------------------------------------------------
  Species    Type    Atomic    Atomic    Charge       Radii (Angs)     Library
                     Number     Mass       (e)     Cova   Ionic  VDW   Symbol
--------------------------------------------------------------------------------
    Si       Core       14      28.09   4.000000   1.200  0.000  2.100          
    O1       Core        8      16.00   1.733957   0.730  0.000  1.360          
    O1       Shell       8       0.00  -3.733957   0.730  0.000  1.360          
    O2       Core        8      16.00   0.870733   0.730  0.000  1.360          
    O2       Shell       8       0.00  -2.870733   0.730  0.000  1.360          
    O3       Core        8      16.00   1.330431   0.730  0.000  1.360          
    O3       Shell       8       0.00  -3.330431   0.730  0.000  1.360          
    F        Core        9      19.00   0.560000   0.710  0.000  1.300          
    F        Shell       9       0.00  -1.560000   0.710  0.000  1.300          
    Ge       Core       32      72.61   4.000000   1.170  0.000  1.750          
--------------------------------------------------------------------------------


  Lattice summation method               =    Ewald          (3-D)
                                         =    Parry          (2-D)
                                         =    Saunders et al (1-D)
  Accuracy factor for lattice sums       =   12.000


  Time limit = Infinity

  Maximum range for interatomic potentials =        16.000000 Angstroms

  Taper potentials to zero over   1.0000 Angstroms using polynomial

  General interatomic potentials :

--------------------------------------------------------------------------------
Atom  Types   Potential         A         B         C         D     Cutoffs(Ang)
  1     2                                                            Min    Max 
--------------------------------------------------------------------------------
Si   c O1   s Buckingham    0.132E+04 0.318      10.1      0.00     0.000 16.000
Si   c O2   s Buckingham    0.132E+04 0.318      10.1      0.00     0.000 16.000
Si   c O3   s Buckingham    0.132E+04 0.318      10.1      0.00     0.000 16.000
Ge   c O1   s Buckingham    0.150E+04 0.326      16.8      0.00     0.000 16.000
Ge   c O2   s Buckingham    0.150E+04 0.326      16.8      0.00     0.000 16.000
Ge   c O3   s Buckingham    0.150E+04 0.326      16.8      0.00     0.000 16.000
O1   s O1   s Buckingham    0.228E+05 0.149      10.9      0.00     0.000 16.000
O1   s O2   s Buckingham    0.228E+05 0.149      10.9      0.00     0.000 16.000
O1   s O3   s Buckingham    0.228E+05 0.149      10.9      0.00     0.000 16.000
O2   s O2   s Buckingham    0.228E+05 0.149      10.9      0.00     0.000 16.000
O2   s O3   s Buckingham    0.228E+05 0.149      10.9      0.00     0.000 16.000
O3   s O3   s Buckingham    0.228E+05 0.149      10.9      0.00     0.000 16.000
Si   c F    s Buckingham     977.     0.282      0.00      0.00     0.000 16.000
Ge   c F    s Buckingham     681.     0.320      0.00      0.00     0.000 16.000
F    s F    s Buckingham     540.     0.262      0.00      0.00     0.000 16.000
O1   s F    s Buckingham    0.168E+04 0.268      0.00      0.00     0.000 16.000
O2   s F    s Buckingham    0.168E+04 0.268      0.00      0.00     0.000 16.000
O3   s F    s Buckingham    0.168E+04 0.268      0.00      0.00     0.000 16.000
O2   c O2   s Spring (c-s)   76.0      0.00      0.00      0.00     0.000  0.800
O3   c O3   s Spring (c-s)   128.      0.00      0.00      0.00     0.000  0.800
O1   c O1   s Spring (c-s)   180.      0.00      0.00      0.00     0.000  0.800
F    c F    s Spring (c-s)   33.5      0.00      0.00      0.00     0.000  0.800
--------------------------------------------------------------------------------

  General Three-body potentials :

  Harmonic form:

--------------------------------------------------------------------------------
Atom    Atom    Atom           Force Constants            Theta     Cutoffs  
  1       2       3     (eVrad**-2/eVrad**-3/eVrad**-4)   (deg)  1-2  1-3  2-3
--------------------------------------------------------------------------------
Si    c O1    s O1    s  1.261        0.0000    0.0000   109.470 0.00 0.00 0.00
                                                                 1.90 1.90 3.50
Si    c O1    s O2    s  1.261        0.0000    0.0000   109.470 0.00 0.00 0.00
                                                                 1.90 1.90 3.50
Si    c O2    s O2    s  1.261        0.0000    0.0000   109.470 0.00 0.00 0.00
                                                                 1.90 1.90 3.50
--------------------------------------------------------------------------------

********************************************************************************
*  Output for configuration   1                                                *
********************************************************************************


  Components of energy : 

--------------------------------------------------------------------------------
  Interatomic potentials     =        2066.96294298 eV
  Three-body potentials      =           0.48383190 eV
  Monopole - monopole (real) =       -6615.95067015 eV
  Monopole - monopole (recip)=       -3172.42819158 eV
  Monopole - monopole (total)=       -9788.37886173 eV
  Neutralising energy        =          -6.46223656 eV
--------------------------------------------------------------------------------
  Total lattice energy       =       -7727.39432342 eV
--------------------------------------------------------------------------------
  Total lattice energy       =         -745575.4282 kJ/(mole unit cells)
--------------------------------------------------------------------------------


  Number of variables =      939

  Maximum number of calculations  =          5000
  Maximum Hessian update interval =            10
  Maximum step size               =   0.100000000
  Maximum parameter tolerance     =   0.000010000
  Maximum function  tolerance     =   0.000010000
  Maximum gradient  tolerance     =   0.001000000
  Maximum gradient  component     =   0.010000000

  Symmetry not applied to optimisation

  Cell parameters to be optimised using strains

  Newton-Raphson optimiser to be used

  BFGS hessian update to be used

  Dumpfile to be written after every cycle

  Start of bulk optimisation :

  Cycle:      0 Energy:     -7727.394323  Gnorm:      0.008849  CPU:    2.028
  ** Hessian calculated **
  Cycle:      1 Energy:     -7727.394542  Gnorm:      0.002988  CPU:    5.250
  Cycle:      2 Energy:     -7727.394605  Gnorm:      0.001728  CPU:    8.083
  Cycle:      3 Energy:     -7727.394658  Gnorm:      0.001375  CPU:   10.917
  Cycle:      4 Energy:     -7727.394827  Gnorm:      0.002080  CPU:   15.784
  Cycle:      5 Energy:     -7727.395101  Gnorm:      0.003942  CPU:   20.649
  Cycle:      6 Energy:     -7727.395432  Gnorm:      0.005694  CPU:   24.838
  Cycle:      7 Energy:     -7727.395868  Gnorm:      0.007908  CPU:   29.041
  Cycle:      8 Energy:     -7727.396463  Gnorm:      0.010162  CPU:   33.225
  Cycle:      9 Energy:     -7727.397260  Gnorm:      0.012360  CPU:   37.412
  Cycle:     10 Energy:     -7727.398278  Gnorm:      0.015130  CPU:   41.598
  ** Hessian calculated **
  Cycle:     11 Energy:     -7727.398971  Gnorm:      0.005326  CPU:   46.794
  Cycle:     12 Energy:     -7727.399218  Gnorm:      0.003313  CPU:   50.300
  Cycle:     13 Energy:     -7727.399394  Gnorm:      0.002714  CPU:   53.808
  Cycle:     14 Energy:     -7727.399573  Gnorm:      0.002991  CPU:   57.996
  Cycle:     15 Energy:     -7727.399727  Gnorm:      0.003099  CPU:   61.503
  Cycle:     16 Energy:     -7727.399908  Gnorm:      0.003143  CPU:   65.689
  Cycle:     17 Energy:     -7727.400082  Gnorm:      0.002587  CPU:   69.200
  Cycle:     18 Energy:     -7727.400223  Gnorm:      0.002189  CPU:   72.027
  Cycle:     19 Energy:     -7727.400543  Gnorm:      0.002585  CPU:   76.893
  Cycle:     20 Energy:     -7727.400933  Gnorm:      0.003709  CPU:   81.078
  ** Hessian calculated **
  Cycle:     21 Energy:     -7727.401413  Gnorm:      0.003699  CPU:   86.957
  Cycle:     22 Energy:     -7727.402225  Gnorm:      0.003681  CPU:   91.821
  Cycle:     23 Energy:     -7727.403484  Gnorm:      0.003654  CPU:   96.685
  Cycle:     24 Energy:     -7727.405378  Gnorm:      0.003613  CPU:  101.550
  Cycle:     25 Energy:     -7727.407725  Gnorm:      0.003562  CPU:  105.736
  Cycle:     26 Energy:     -7727.411643  Gnorm:      0.003474  CPU:  110.601
  Cycle:     27 Energy:     -7727.417557  Gnorm:      0.003336  CPU:  115.469
  Cycle:     28 Energy:     -7727.424692  Gnorm:      0.003162  CPU:  119.654
  Cycle:     29 Energy:     -7727.436000  Gnorm:      0.002865  CPU:  124.520
  Cycle:     30 Energy:     -7727.448982  Gnorm:      0.002488  CPU:  128.707
  ** Hessian calculated **
  Cycle:     31 Energy:     -7727.465225  Gnorm:      0.001925  CPU:  134.584
  Cycle:     32 Energy:     -7727.480420  Gnorm:      0.001474  CPU:  138.771
  Cycle:     33 Energy:     -7727.485364  Gnorm:      0.001120  CPU:  142.962
  Cycle:     34 Energy:     -7727.486594  Gnorm:      0.000684  CPU:  147.154
  Cycle:     35 Energy:     -7727.486904  Gnorm:      0.000379  CPU:  151.345
  Cycle:     36 Energy:     -7727.486983  Gnorm:      0.000200  CPU:  155.535
  Cycle:     37 Energy:     -7727.486996  Gnorm:      0.000142  CPU:  158.366
  Cycle:     38 Energy:     -7727.487003  Gnorm:      0.000100  CPU:  161.194
  Cycle:     39 Energy:     -7727.487006  Gnorm:      0.000070  CPU:  164.025
  Cycle:     40 Energy:     -7727.487008  Gnorm:      0.000049  CPU:  166.855
  ** Hessian calculated **


  **** Optimisation achieved ****


  Final energy =   -7727.48700778 eV
  Final Gnorm  =       0.00002585

  Components of energy : 

--------------------------------------------------------------------------------
  Interatomic potentials     =        2066.94901428 eV
  Three-body potentials      =           0.49457980 eV
  Monopole - monopole (real) =       -6616.62933596 eV
  Monopole - monopole (recip)=       -3171.84022385 eV
  Monopole - monopole (total)=       -9788.46955981 eV
  Neutralising energy        =          -6.46104205 eV
--------------------------------------------------------------------------------
  Total lattice energy       =       -7727.48700778 eV
--------------------------------------------------------------------------------
  Total lattice energy       =         -745584.3708 kJ/(mole unit cells)
--------------------------------------------------------------------------------

  Final fractional coordinates of atoms :

--------------------------------------------------------------------------------
   No.  Atomic        x           y          z          Radius
        Label       (Frac)      (Frac)     (Frac)       (Angs) 
--------------------------------------------------------------------------------
     1  Ge    c     0.699600    0.375700    0.033890    0.000000
     2  Si    c     0.599058    0.292006    0.364804    0.000000
     3  Si    c     0.650725    0.291039    0.697556    0.000000
     4  Si    c     0.282328    0.614287    0.531293    0.000000
     5  Si    c     0.357472    0.668256    0.865612    0.000000
     6  Si    c     0.292524    0.677556    0.199990    0.000000
     7  Si    c     0.351986    0.678602    0.300464    0.000000
     8  Si    c     0.305856    0.608587    0.966074    0.000000
     9  Si    c     0.274970    0.673369    0.633253    0.000000
    10  Si    c     0.600205    0.292039    0.798600    0.000000
    11  Ge    c     0.634835    0.358103    0.462870    0.000000
    12  Si    c     0.661059    0.298073    0.131800    0.000000
    13  Si    c     0.518099    0.407432    0.966115    0.000000
    14  Si    c     0.552910    0.083601    0.298850    0.000000
    15  Si    c     0.857696    0.465811    0.631258    0.000000
    16  Si    c     0.450777    0.560745    0.470086    0.000000
    17  Si    c     0.395678    0.881370    0.800998    0.000000
    18  Si    c     0.082711    0.507866    0.133718    0.000000
    19  Si    c     0.393936    0.507687    0.367202    0.000000
    20  Si    c     0.092962    0.569709    0.030339    0.000000
    21  Si    c     0.444608    0.882110    0.698919    0.000000
    22  Si    c     0.563882    0.464112    0.863183    0.000000
    23  Si    c     0.850930    0.403729    0.527570    0.000000
    24  Si    c     0.495905    0.084278    0.197369    0.000000
    25  Si    c     0.282270    0.393331    0.849701    0.000000
    26  Si    c     0.569311    0.877465    0.183388    0.000000
    27  Ge    c     0.072002    0.674951    0.523900    0.000000
    28  Si    c     0.679530    0.576581    0.354125    0.000000
    29  Si    c     0.372045    0.090631    0.683589    0.000000
    30  Si    c     0.881150    0.284879    0.012959    0.000000
    31  Si    c     0.365464    0.270986    0.485617    0.000000
    32  Si    c     0.867897    0.579588    0.145444    0.000000
    33  Si    c     0.676858    0.090107    0.814809    0.000000
    34  Si    c     0.585197    0.687168    0.979694    0.000000
    35  Si    c     0.070805    0.392967    0.648113    0.000000
    36  Si    c     0.272542    0.877953    0.315415    0.000000
    37  Si    c     0.237600    0.330883    0.950432    0.000000
    38  Si    c     0.632319    0.884278    0.284381    0.000000
    39  Si    c     0.061008    0.748394    0.619312    0.000000
    40  Si    c     0.735346    0.642393    0.456623    0.000000
    41  Si    c     0.318834    0.083626    0.784717    0.000000
    42  Si    c     0.877913    0.229039    0.116410    0.000000
    43  Si    c     0.314834    0.225569    0.381976    0.000000
    44  Si    c     0.892316    0.654983    0.043031    0.000000
    45  Si    c     0.722740    0.082735    0.713864    0.000000
    46  Si    c     0.639277    0.741068    0.878598    0.000000
    47  Si    c     0.061903    0.331853    0.546621    0.000000
    48  Si    c     0.218412    0.883970    0.213968    0.000000
    49  Si    c     0.960264    0.111984    0.964871    0.000000
    50  Si    c     0.852580    0.824163    0.300718    0.000000
    51  Si    c     0.120106    0.021131    0.635413    0.000000
    52  Si    c     0.010605    0.865599    0.469366    0.000000
    53  Si    c     0.101322    0.145679    0.800283    0.000000
    54  Si    c     0.817846    0.950359    0.133308    0.000000
    55  Si    c     0.096290    0.949130    0.366535    0.000000
    56  Si    c     0.833101    0.871936    0.031672    0.000000
    57  Si    c     0.002028    0.145200    0.699680    0.000000
    58  Si    c     0.858292    0.019484    0.864766    0.000000
    59  Si    c     0.110936    0.104618    0.533586    0.000000
    60  Si    c     0.938572    0.824045    0.198523    0.000000
    61  O2    c     0.914114    0.997061    0.001070    0.000000
    62  O2    c     0.976108    0.908082    0.332178    0.000000
    63  O2    c     0.044964    0.068018    0.667388    0.000000
    64  O2    c     0.037636    0.990253    0.498473    0.000000
    65  O2    c     0.980657    0.064274    0.832788    0.000000
    66  O2    c     0.897649    0.908766    0.167155    0.000000
    67  O2    c     0.317913    0.556964    0.334051    0.000000
    68  O2    c     0.396262    0.756827    0.666830    0.000000
    69  O2    c     0.221310    0.644467    0.999877    0.000000
    70  O2    c     0.639202    0.415471    0.830455    0.000000
    71  O2    c     0.545450    0.213237    0.166959    0.000000
    72  O3    c     0.726205    0.314300    0.499441    0.000000
    73  O3    c     0.565754    0.332385    0.997355    0.000000
    74  O2    c     0.733268    0.413044    0.664025    0.000000
    75  O2    c     0.631207    0.212298    0.328348    0.000000
    76  O2    c     0.407990    0.639705    0.502677    0.000000
    77  O2    c     0.205025    0.554308    0.167711    0.000000
    78  O2    c     0.318837    0.755945    0.833524    0.000000
    79  O2    c     0.114335    0.200138    0.969836    0.000000
    80  O2    c     0.759854    0.885744    0.304532    0.000000
    81  O2    c     0.062579    0.869266    0.644784    0.000000
    82  O2    c     0.855039    0.775970    0.473411    0.000000
    83  O2    c     0.193559    0.083499    0.805289    0.000000
    84  O2    c     0.876944    0.103714    0.138380    0.000000
    85  O2    c     0.190257    0.102861    0.359961    0.000000
    86  O2    c     0.909260    0.793169    0.027803    0.000000
    87  O2    c     0.848185    0.081969    0.693823    0.000000
    88  O2    c     0.765277    0.866862    0.858236    0.000000
    89  O2    c     0.055426    0.202577    0.527813    0.000000
    90  O2    c     0.092302    0.885189    0.193493    0.000000
    91  O2    c     0.899630    0.830569    0.249651    0.000000
    92  O2    c     0.092510    0.049686    0.584462    0.000000
    93  O2    c     0.913584    0.051419    0.915604    0.000000
    94  O2    c     0.044226    0.132195    0.750087    0.000000
    95  O2    c     0.835078    0.916233    0.082856    0.000000
    96  O2    c     0.045182    0.915084    0.416943    0.000000
    97  O2    c     0.895859    0.198528    0.974755    0.000000
    98  O2    c     0.772937    0.674409    0.315066    0.000000
    99  O2    c     0.273832    0.093614    0.645228    0.000000
   100  O3    c     0.084056    0.793459    0.482495    0.000000
   101  O2    c     0.182650    0.296844    0.811538    0.000000
   102  O2    c     0.665731    0.877902    0.144840    0.000000
   103  O2    c     0.177287    0.878145    0.354034    0.000000
   104  O2    c     0.683551    0.785517    0.017752    0.000000
   105  O2    c     0.069820    0.297063    0.687547    0.000000
   106  O2    c     0.776771    0.091157    0.853367    0.000000
   107  O2    c     0.262810    0.183917    0.523734    0.000000
   108  O2    c     0.868408    0.674676    0.184245    0.000000
   109  O2    c     0.292857    0.618781    0.250454    0.000000
   110  O2    c     0.329574    0.668865    0.583347    0.000000
   111  O2    c     0.299990    0.666773    0.915986    0.000000
   112  O2    c     0.653784    0.348575    0.747777    0.000000
   113  O3    c     0.601511    0.296798    0.083398    0.000000
   114  O3    c     0.655501    0.283877    0.412852    0.000000
   115  O2    c     0.360767    0.321624    0.967748    0.000000
   116  O2    c     0.640812    0.015109    0.302448    0.000000
   117  O2    c     0.929140    0.620817    0.635900    0.000000
   118  O2    c     0.605482    0.647077    0.469903    0.000000
   119  O2    c     0.309111    0.951225    0.803366    0.000000
   120  O2    c     0.008843    0.352361    0.134912    0.000000
   121  O2    c     0.311291    0.352593    0.364319    0.000000
   122  O2    c     0.025684    0.658426    0.028885    0.000000
   123  O2    c     0.600678    0.951293    0.695360    0.000000
   124  O2    c     0.648753    0.620032    0.859514    0.000000
   125  O2    c     0.931119    0.325247    0.529867    0.000000
   126  O2    c     0.339561    0.014731    0.194406    0.000000
   127  O3    c     0.749909    0.281026    0.002666    0.000000
   128  O2    c     0.672226    0.440620    0.345245    0.000000
   129  O2    c     0.506714    0.222722    0.675301    0.000000
   130  O3    c     0.223283    0.691632    0.506731    0.000000
   131  O2    c     0.281951    0.527427    0.841914    0.000000
   132  O2    c     0.434150    0.744246    0.176529    0.000000
   133  O2    c     0.276386    0.745353    0.322804    0.000000
   134  O2    c     0.450236    0.685825    0.987928    0.000000
   135  O2    c     0.201866    0.528575    0.654386    0.000000
   136  O2    c     0.676426    0.223824    0.821326    0.000000
   137  O3    c     0.490095    0.260891    0.494333    0.000000
   138  O2    c     0.735675    0.444887    0.152148    0.000000
   139  O3    c     0.769578    0.544376    0.019158    0.000000
   140  O2    c     0.441943    0.228029    0.363461    0.000000
   141  O2    c     0.726206    0.210292    0.693516    0.000000
   142  O2    c     0.189325    0.457990    0.528477    0.000000
   143  O2    c     0.513478    0.744479    0.859834    0.000000
   144  O2    c     0.215111    0.756633    0.194906    0.000000
   145  O2    c     0.508216    0.757912    0.304437    0.000000
   146  O2    c     0.232658    0.452785    0.971229    0.000000
   147  O2    c     0.188145    0.741730    0.636271    0.000000
   148  O2    c     0.444649    0.209430    0.803815    0.000000
   149  O3    c     0.736063    0.523703    0.479505    0.000000
   150  O2    c     0.753463    0.233039    0.134054    0.000000
   151  O2    c     0.213192    0.317063    0.896057    0.000000
   152  O2    c     0.646362    0.882415    0.229800    0.000000
   153  O3    c     0.062608    0.776428    0.566590    0.000000
   154  O2    c     0.749475    0.642545    0.401118    0.000000
   155  O2    c     0.299709    0.086745    0.730251    0.000000
   156  O2    c     0.881814    0.218125    0.061999    0.000000
   157  O2    c     0.298233    0.210714    0.436376    0.000000
   158  O2    c     0.875469    0.652654    0.098280    0.000000
   159  O2    c     0.744743    0.084422    0.768299    0.000000
   160  O2    c     0.658306    0.758100    0.933095    0.000000
   161  O2    c     0.069499    0.324265    0.601449    0.000000
   162  O2    c     0.201911    0.882370    0.268462    0.000000
   163  O2    c     0.569930    0.548317    0.988768    0.000000
   164  O2    c     0.413471    0.001550    0.322991    0.000000
   165  O2    c     0.948325    0.412496    0.652361    0.000000
   166  O2    c     0.395591    0.418466    0.491334    0.000000
   167  O2    c     0.537504    0.965922    0.823951    0.000000
   168  O2    c     0.990062    0.558461    0.152565    0.000000
   169  O2    c     0.538039    0.561095    0.348544    0.000000
   170  O2    c     0.003111    0.430162    0.008601    0.000000
   171  O2    c     0.384702    0.964497    0.675308    0.000000
   172  O2    c     0.421372    0.407368    0.840545    0.000000
   173  O3    c     0.935102    0.540008    0.502292    0.000000
   174  O2    c     0.553347    0.001815    0.173851    0.000000
   175  O2    c     0.550038    0.135031    0.247933    0.000000
   176  O2    c     0.811579    0.419937    0.579866    0.000000
   177  O2    c     0.567708    0.413474    0.914111    0.000000
   178  O2    c     0.394407    0.828991    0.750068    0.000000
   179  O2    c     0.133252    0.559848    0.082803    0.000000
   180  O2    c     0.394792    0.554222    0.418607    0.000000
   181  F     c     0.420340    0.874135    0.248556    0.000000
   182  F     c     0.072946    0.570519    0.572442    0.000000
   183  F     c     0.429657    0.542818    0.914100    0.000000
   184  F     c     0.525446    0.089970    0.748354    0.000000
   185  F     c     0.842065    0.425213    0.072179    0.000000
   186  F     c     0.545792    0.414153    0.425650    0.000000
   187  O2    s     0.910024    0.995724    0.000479    0.000000
   188  O2    s     0.975287    0.903125    0.332363    0.000000
   189  O2    s     0.048560    0.071601    0.667477    0.000000
   190  O2    s     0.043212    0.990297    0.499436    0.000000
   191  O2    s     0.980432    0.068383    0.832736    0.000000
   192  O2    s     0.893378    0.903964    0.166901    0.000000
   193  O2    s     0.329381    0.564196    0.334100    0.000000
   194  O2    s     0.388555    0.760858    0.666590    0.000000
   195  O2    s     0.216123    0.632992    0.999739    0.000000
   196  O2    s     0.627514    0.407711    0.830495    0.000000
   197  O2    s     0.552189    0.208366    0.166533    0.000000
   198  O3    s     0.733311    0.326981    0.499920    0.000000
   199  O3    s     0.570053    0.343766    0.996528    0.000000
   200  O2    s     0.737645    0.405946    0.664094    0.000000
   201  O2    s     0.619482    0.206824    0.328989    0.000000
   202  O2    s     0.399554    0.628672    0.502186    0.000000
   203  O2    s     0.200932    0.561794    0.167384    0.000000
   204  O2    s     0.330714    0.760028    0.833423    0.000000
   205  O2    s     0.110205    0.203862    0.967361    0.000000
   206  O2    s     0.756354    0.879043    0.302033    0.000000
   207  O2    s     0.068492    0.873216    0.641319    0.000000
   208  O2    s     0.857895    0.770624    0.471194    0.000000
   209  O2    s     0.196693    0.090155    0.802650    0.000000
   210  O2    s     0.870841    0.100645    0.135589    0.000000
   211  O2    s     0.193528    0.099786    0.362897    0.000000
   212  O2    s     0.899410    0.787331    0.029778    0.000000
   213  O2    s     0.851770    0.088854    0.696494    0.000000
   214  O2    s     0.762238    0.870197    0.860992    0.000000
   215  O2    s     0.061983    0.205768    0.530371    0.000000
   216  O2    s     0.088982    0.878527    0.196136    0.000000
   217  O2    s     0.898773    0.829125    0.249576    0.000000
   218  O2    s     0.097672    0.052660    0.584485    0.000000
   219  O2    s     0.912691    0.054709    0.915492    0.000000
   220  O2    s     0.045865    0.135253    0.749976    0.000000
   221  O2    s     0.832859    0.915249    0.082988    0.000000
   222  O2    s     0.047705    0.914091    0.416321    0.000000
   223  O2    s     0.901443    0.198294    0.977777    0.000000
   224  O2    s     0.771815    0.680325    0.317562    0.000000
   225  O2    s     0.267724    0.085762    0.648075    0.000000
   226  O3    s     0.074873    0.794180    0.483623    0.000000
   227  O2    s     0.184112    0.290547    0.814215    0.000000
   228  O2    s     0.671857    0.885439    0.147561    0.000000
   229  O2    s     0.178850    0.885393    0.351297    0.000000
   230  O2    s     0.689703    0.784862    0.015391    0.000000
   231  O2    s     0.062852    0.291367    0.684646    0.000000
   232  O2    s     0.775265    0.083536    0.850685    0.000000
   233  O2    s     0.257332    0.184710    0.520676    0.000000
   234  O2    s     0.875770    0.680682    0.181757    0.000000
   235  O2    s     0.298793    0.630798    0.250366    0.000000
   236  O2    s     0.319446    0.664121    0.583508    0.000000
   237  O2    s     0.306329    0.661004    0.916011    0.000000
   238  O2    s     0.648028    0.336957    0.747820    0.000000
   239  O3    s     0.614211    0.302051    0.085374    0.000000
   240  O3    s     0.648160    0.289550    0.410967    0.000000
   241  O2    s     0.362844    0.331196    0.965664    0.000000
   242  O2    s     0.630838    0.008352    0.300162    0.000000
   243  O2    s     0.934998    0.617566    0.633741    0.000000
   244  O2    s     0.601741    0.637276    0.468564    0.000000
   245  O2    s     0.319052    0.957947    0.801151    0.000000
   246  O2    s     0.003030    0.355851    0.132874    0.000000
   247  O2    s     0.320302    0.355645    0.366451    0.000000
   248  O2    s     0.019333    0.648865    0.030467    0.000000
   249  O2    s     0.597416    0.957977    0.697679    0.000000
   250  O2    s     0.639072    0.616761    0.861892    0.000000
   251  O2    s     0.938169    0.333624    0.531564    0.000000
   252  O2    s     0.342929    0.008137    0.196770    0.000000
   253  O3    s     0.760781    0.287787    0.005938    0.000000
   254  O2    s     0.665925    0.440725    0.348102    0.000000
   255  O2    s     0.507368    0.215846    0.678498    0.000000
   256  O3    s     0.219410    0.682370    0.510508    0.000000
   257  O2    s     0.289673    0.527754    0.845172    0.000000
   258  O2    s     0.433727    0.751268    0.179670    0.000000
   259  O2    s     0.283765    0.752215    0.319700    0.000000
   260  O2    s     0.449282    0.678062    0.984814    0.000000
   261  O2    s     0.195401    0.528979    0.651535    0.000000
   262  O2    s     0.668692    0.216766    0.818289    0.000000
   263  O3    s     0.486254    0.268478    0.491209    0.000000
   264  O2    s     0.742549    0.445090    0.149457    0.000000
   265  O3    s     0.778522    0.545421    0.022669    0.000000
   266  O2    s     0.443707    0.234216    0.365617    0.000000
   267  O2    s     0.717919    0.204897    0.696105    0.000000
   268  O2    s     0.184765    0.459877    0.530676    0.000000
   269  O2    s     0.511009    0.736164    0.862431    0.000000
   270  O2    s     0.223559    0.762064    0.197442    0.000000
   271  O2    s     0.505268    0.763288    0.301883    0.000000
   272  O2    s     0.240752    0.456014    0.968547    0.000000
   273  O2    s     0.184392    0.734984    0.634214    0.000000
   274  O2    s     0.447291    0.204339    0.801225    0.000000
   275  O3    s     0.729197    0.525822    0.476005    0.000000
   276  O2    s     0.758039    0.239145    0.131893    0.000000
   277  O2    s     0.223000    0.326549    0.896928    0.000000
   278  O2    s     0.636801    0.882095    0.230708    0.000000
   279  O3    s     0.063007    0.766834    0.569401    0.000000
   280  O2    s     0.740437    0.635237    0.401369    0.000000
   281  O2    s     0.309290    0.086819    0.731140    0.000000
   282  O2    s     0.881325    0.225843    0.063046    0.000000
   283  O2    s     0.306631    0.218247    0.435370    0.000000
   284  O2    s     0.876254    0.644872    0.097945    0.000000
   285  O2    s     0.735304    0.084832    0.767406    0.000000
   286  O2    s     0.648635    0.748881    0.932203    0.000000
   287  O2    s     0.068867    0.332448    0.600737    0.000000
   288  O2    s     0.211046    0.882069    0.267564    0.000000
   289  O2    s     0.566161    0.549620    0.985472    0.000000
   290  O2    s     0.412889    0.996686    0.319664    0.000000
   291  O2    s     0.952573    0.416014    0.649680    0.000000
   292  O2    s     0.398660    0.418884    0.488439    0.000000
   293  O2    s     0.537780    0.970703    0.820572    0.000000
   294  O2    s     0.986777    0.555201    0.149779    0.000000
   295  O2    s     0.537691    0.556926    0.351145    0.000000
   296  O2    s     0.000214    0.430473    0.011425    0.000000
   297  O2    s     0.389741    0.969531    0.678647    0.000000
   298  O2    s     0.421202    0.411923    0.843884    0.000000
   299  O3    s     0.937639    0.537033    0.506379    0.000000
   300  O2    s     0.548938    0.996924    0.177302    0.000000
   301  O2    s     0.544480    0.123968    0.247946    0.000000
   302  O2    s     0.820362    0.423509    0.580560    0.000000
   303  O2    s     0.562324    0.418324    0.913868    0.000000
   304  O2    s     0.399773    0.839903    0.749971    0.000000
   305  O2    s     0.123822    0.555375    0.082834    0.000000
   306  O2    s     0.400297    0.549967    0.418360    0.000000
   307  F     s     0.420017    0.873370    0.248479    0.000000
   308  F     s     0.073460    0.577873    0.569336    0.000000
   309  F     s     0.428915    0.543431    0.913996    0.000000
   310  F     s     0.525753    0.090341    0.748267    0.000000
   311  F     s     0.831758    0.421728    0.069524    0.000000
   312  F     s     0.552412    0.409883    0.428278    0.000000
--------------------------------------------------------------------------------

  Final Cartesian lattice vectors (Angstroms) :

       11.954838    0.011635   -0.023105
       -5.971257   10.400825    0.036273
       -0.384164    0.225590   29.380755


  Final cell parameters and derivatives :

--------------------------------------------------------------------------------
       a           11.954866 Angstrom     dE/de1(xx)     0.003714 eV/strain
       b           11.993097 Angstrom     dE/de2(yy)     0.002650 eV/strain
       c           29.384133 Angstrom     dE/de3(zz)     0.005767 eV/strain
       alpha       89.072257 Degrees      dE/de4(yz)    -0.000619 eV/strain
       beta        90.859402 Degrees      dE/de5(xz)     0.000671 eV/strain
       gamma      119.805140 Degrees      dE/de6(xy)     0.000324 eV/strain
--------------------------------------------------------------------------------

  Primitive cell volume =          3655.090482 Angs**3

  Density of cell =      1.750461 g/cm**3

  Non-primitive cell volume =          3655.090482 Angs**3


  Final internal derivatives :

--------------------------------------------------------------------------------
   No.  Atomic          a             b             c           Radius
        Label          (eV)          (eV)          (eV)        (eV/Angs)
--------------------------------------------------------------------------------
      1 Ge    c       0.000000      0.000000      0.000000      0.000000
      2 Si    c       0.000173      0.000621      0.003001      0.000000
      3 Si    c       0.000243      0.000030     -0.000507      0.000000
      4 Si    c      -0.000493      0.000269      0.000668      0.000000
      5 Si    c      -0.000080      0.000376      0.000123      0.000000
      6 Si    c       0.000149      0.000096      0.001490      0.000000
      7 Si    c      -0.000261     -0.000538     -0.000091      0.000000
      8 Si    c       0.000778     -0.000098     -0.000823      0.000000
      9 Si    c       0.000075      0.000088      0.000062      0.000000
     10 Si    c       0.000100     -0.000532     -0.000212      0.000000
     11 Ge    c      -0.000510      0.000828     -0.003719      0.000000
     12 Si    c       0.001049     -0.001503      0.008645      0.000000
     13 Si    c      -0.001455      0.000865     -0.001908      0.000000
     14 Si    c      -0.000035      0.000001     -0.001414      0.000000
     15 Si    c       0.000185     -0.000292     -0.000051      0.000000
     16 Si    c      -0.000022     -0.000174     -0.001343      0.000000
     17 Si    c      -0.000327     -0.000386      0.000560      0.000000
     18 Si    c       0.000110      0.000567      0.000763      0.000000
     19 Si    c       0.000220      0.000347     -0.000219      0.000000
     20 Si    c      -0.000289      0.000315      0.000030      0.000000
     21 Si    c      -0.000137      0.000158      0.000211      0.000000
     22 Si    c      -0.000055     -0.000195     -0.000276      0.000000
     23 Si    c       0.000607     -0.000323      0.001313      0.000000
     24 Si    c       0.000289      0.000327      0.000693      0.000000
     25 Si    c      -0.000115     -0.000200     -0.000229      0.000000
     26 Si    c       0.000302     -0.000016      0.000834      0.000000
     27 Ge    c      -0.000261     -0.000325     -0.000232      0.000000
     28 Si    c       0.000233      0.000827      0.000010      0.000000
     29 Si    c      -0.000188     -0.000261     -0.000796      0.000000
     30 Si    c       0.000752      0.000485     -0.000236      0.000000
     31 Si    c       0.000500      0.000173     -0.001007      0.000000
     32 Si    c       0.001006      0.000254      0.000514      0.000000
     33 Si    c       0.000273     -0.000066      0.001164      0.000000
     34 Si    c       0.000751      0.000031      0.001071      0.000000
     35 Si    c      -0.000318     -0.000635      0.000707      0.000000
     36 Si    c      -0.000144      0.000149     -0.001046      0.000000
     37 Si    c       0.000262      0.000027      0.000648      0.000000
     38 Si    c       0.000547      0.000028     -0.000333      0.000000
     39 Si    c       0.000098     -0.000021     -0.000462      0.000000
     40 Si    c       0.000451     -0.000038     -0.000080      0.000000
     41 Si    c       0.000076     -0.000239     -0.000240      0.000000
     42 Si    c       0.000132     -0.000106      0.001605      0.000000
     43 Si    c       0.000215      0.000075      0.000214      0.000000
     44 Si    c       0.000916      0.000362     -0.003471      0.000000
     45 Si    c      -0.000146     -0.000089      0.000418      0.000000
     46 Si    c       0.000193      0.000239      0.000248      0.000000
     47 Si    c       0.000027     -0.000038      0.000802      0.000000
     48 Si    c      -0.000061      0.000027     -0.000013      0.000000
     49 Si    c       0.000357     -0.000278      0.001615      0.000000
     50 Si    c       0.000502      0.000242      0.000815      0.000000
     51 Si    c       0.000360      0.000329     -0.001034      0.000000
     52 Si    c       0.000985      0.000530     -0.001118      0.000000
     53 Si    c       0.000407     -0.000020      0.000645      0.000000
     54 Si    c       0.000436     -0.000071      0.001275      0.000000
     55 Si    c      -0.000235     -0.000155      0.000410      0.000000
     56 Si    c       0.000333      0.000504     -0.001615      0.000000
     57 Si    c       0.000087      0.000454      0.000576      0.000000
     58 Si    c       0.000107      0.000818      0.000019      0.000000
     59 Si    c      -0.000032     -0.000411      0.000501      0.000000
     60 Si    c       0.000051      0.000472     -0.001026      0.000000
     61 O2    c       0.000273     -0.000692      0.000994      0.000000
     62 O2    c       0.000090      0.000137     -0.000134      0.000000
     63 O2    c       0.000198      0.000089      0.000179      0.000000
     64 O2    c       0.000125      0.000016      0.000203      0.000000
     65 O2    c      -0.000209      0.000076     -0.000261      0.000000
     66 O2    c       0.000413      0.000076     -0.000024      0.000000
     67 O2    c       0.000176      0.000148     -0.000545      0.000000
     68 O2    c      -0.000149     -0.000145     -0.000276      0.000000
     69 O2    c       0.000102      0.000328      0.000258      0.000000
     70 O2    c       0.000033      0.000145      0.000441      0.000000
     71 O2    c      -0.000670      0.000033     -0.000087      0.000000
     72 O3    c      -0.000535     -0.000470      0.001181      0.000000
     73 O3    c      -0.000955     -0.002120      0.002203      0.000000
     74 O2    c       0.000123     -0.000275      0.000417      0.000000
     75 O2    c       0.000118     -0.000299     -0.000929      0.000000
     76 O2    c       0.000104      0.000103      0.000083      0.000000
     77 O2    c      -0.000068     -0.000387     -0.001155      0.000000
     78 O2    c       0.000102      0.000180     -0.000550      0.000000
     79 O2    c       0.000765      0.000031     -0.000268      0.000000
     80 O2    c      -0.000146      0.000092     -0.000106      0.000000
     81 O2    c       0.000052      0.000138      0.000153      0.000000
     82 O2    c      -0.000804      0.000069      0.000286      0.000000
     83 O2    c       0.000171      0.000028     -0.000028      0.000000
     84 O2    c       0.000162     -0.000381     -0.000182      0.000000
     85 O2    c       0.000314      0.000129      0.000318      0.000000
     86 O2    c       0.001204     -0.000874     -0.000248      0.000000
     87 O2    c       0.000133     -0.000096      0.000194      0.000000
     88 O2    c       0.000084     -0.000397     -0.000354      0.000000
     89 O2    c       0.000034      0.000386     -0.000158      0.000000
     90 O2    c       0.000181      0.000042      0.000011      0.000000
     91 O2    c       0.000267      0.000162     -0.001658      0.000000
     92 O2    c       0.000159      0.000111      0.000511      0.000000
     93 O2    c      -0.000084     -0.000468     -0.004822      0.000000
     94 O2    c      -0.000071      0.000105     -0.001519      0.000000
     95 O2    c       0.000132      0.000575      0.005085      0.000000
     96 O2    c       0.000139     -0.000094      0.000383      0.000000
     97 O2    c      -0.001061      0.001167     -0.000665      0.000000
     98 O2    c       0.000017     -0.000179      0.000571      0.000000
     99 O2    c       0.000158     -0.000107      0.000694      0.000000
    100 O3    c       0.000314     -0.000995      0.001590      0.000000
    101 O2    c       0.000051      0.000070     -0.000137      0.000000
    102 O2    c       0.000024     -0.000112     -0.000284      0.000000
    103 O2    c       0.000277     -0.000038      0.000101      0.000000
    104 O2    c      -0.001235     -0.000209     -0.000800      0.000000
    105 O2    c      -0.000139      0.000045     -0.000666      0.000000
    106 O2    c      -0.000151     -0.000139     -0.000694      0.000000
    107 O2    c       0.000547      0.000340     -0.000123      0.000000
    108 O2    c      -0.000022      0.000208      0.000055      0.000000
    109 O2    c       0.000277     -0.000042     -0.000540      0.000000
    110 O2    c       0.000339     -0.000034      0.000009      0.000000
    111 O2    c      -0.000302      0.000320      0.000639      0.000000
    112 O2    c       0.000073      0.000245      0.000072      0.000000
    113 O3    c      -0.004090     -0.002137     -0.002067      0.000000
    114 O3    c       0.000012     -0.000132     -0.000467      0.000000
    115 O2    c      -0.000266     -0.000156      0.000219      0.000000
    116 O2    c      -0.000167      0.000154      0.000402      0.000000
    117 O2    c      -0.000228      0.000182      0.000177      0.000000
    118 O2    c       0.000347      0.000155      0.000311      0.000000
    119 O2    c       0.000119     -0.000065      0.000050      0.000000
    120 O2    c       0.000559      0.000327      0.000621      0.000000
    121 O2    c       0.000027     -0.000380     -0.000533      0.000000
    122 O2    c       0.000245      0.000308     -0.000324      0.000000
    123 O2    c       0.000018     -0.000171      0.000328      0.000000
    124 O2    c       0.000341     -0.000225     -0.000374      0.000000
    125 O2    c       0.000155     -0.000128     -0.000070      0.000000
    126 O2    c      -0.000091      0.000124     -0.000781      0.000000
    127 O3    c       0.000125     -0.000052     -0.000780      0.000000
    128 O2    c       0.000430      0.000040     -0.001409      0.000000
    129 O2    c       0.000222      0.000186     -0.000232      0.000000
    130 O3    c       0.000309     -0.000304      0.000334      0.000000
    131 O2    c      -0.000116      0.000266     -0.000809      0.000000
    132 O2    c       0.000176     -0.000141     -0.000624      0.000000
    133 O2    c       0.000128      0.000233      0.000598      0.000000
    134 O2    c      -0.000097      0.000294      0.000615      0.000000
    135 O2    c       0.000231      0.000213      0.000335      0.000000
    136 O2    c      -0.000205      0.000140      0.000280      0.000000
    137 O3    c       0.000444      0.000007      0.001496      0.000000
    138 O2    c      -0.000409      0.000318     -0.000098      0.000000
    139 O3    c      -0.001398     -0.001277     -0.002861      0.000000
    140 O2    c       0.000047     -0.000166     -0.000852      0.000000
    141 O2    c       0.000082     -0.000141      0.000130      0.000000
    142 O2    c       0.000169     -0.000078     -0.000308      0.000000
    143 O2    c       0.000101      0.000181     -0.000538      0.000000
    144 O2    c       0.000016     -0.000095     -0.000871      0.000000
    145 O2    c       0.000123     -0.000072      0.000425      0.000000
    146 O2    c      -0.000336      0.000063      0.000811      0.000000
    147 O2    c      -0.000020      0.000144      0.000226      0.000000
    148 O2    c      -0.000149      0.000175      0.000651      0.000000
    149 O3    c       0.000924      0.000191      0.002018      0.000000
    150 O2    c      -0.000476      0.000110     -0.000233      0.000000
    151 O2    c      -0.000180     -0.000197      0.001072      0.000000
    152 O2    c      -0.000200     -0.000043     -0.000389      0.000000
    153 O3    c       0.000027      0.000073      0.000233      0.000000
    154 O2    c       0.000074      0.000329      0.000648      0.000000
    155 O2    c      -0.000190     -0.000011      0.000392      0.000000
    156 O2    c      -0.000142     -0.000238     -0.002854      0.000000
    157 O2    c      -0.000081     -0.000233     -0.000416      0.000000
    158 O2    c      -0.000149      0.000678      0.003694      0.000000
    159 O2    c       0.000044     -0.000142     -0.000381      0.000000
    160 O2    c       0.000252      0.000098      0.000243      0.000000
    161 O2    c       0.000083     -0.000156     -0.000872      0.000000
    162 O2    c      -0.000075      0.000046      0.000402      0.000000
    163 O2    c       0.000494     -0.000317      0.001020      0.000000
    164 O2    c       0.000247      0.000119      0.000792      0.000000
    165 O2    c      -0.000303      0.000096      0.000260      0.000000
    166 O2    c      -0.000076      0.000695      0.001250      0.000000
    167 O2    c      -0.000120     -0.000088     -0.000169      0.000000
    168 O2    c       0.000124      0.000193      0.000138      0.000000
    169 O2    c      -0.000114      0.000192     -0.000617      0.000000
    170 O2    c       0.000331      0.000015     -0.000848      0.000000
    171 O2    c       0.000176     -0.000311      0.000157      0.000000
    172 O2    c       0.000715     -0.000162     -0.000282      0.000000
    173 O3    c      -0.000434     -0.000526     -0.000076      0.000000
    174 O2    c       0.000249     -0.000374     -0.000559      0.000000
    175 O2    c       0.000106     -0.000124      0.000535      0.000000
    176 O2    c      -0.000252      0.000058     -0.000477      0.000000
    177 O2    c       0.000736     -0.000490     -0.001897      0.000000
    178 O2    c       0.000146     -0.000071      0.000051      0.000000
    179 O2    c       0.000615      0.000176     -0.000392      0.000000
    180 O2    c      -0.000064      0.000496      0.000628      0.000000
    181 F     c       0.000251     -0.000046      0.000025      0.000000
    182 F     c      -0.000100      0.000244     -0.000538      0.000000
    183 F     c       0.000137     -0.000042     -0.000182      0.000000
    184 F     c       0.000103     -0.000273      0.000016      0.000000
    185 F     c       0.000144      0.000627     -0.000602      0.000000
    186 F     c       0.000158      0.000021     -0.000496      0.000000
    187 O2    s       0.000205     -0.000324     -0.000358      0.000000
    188 O2    s      -0.000380     -0.000001     -0.000336      0.000000
    189 O2    s       0.000413      0.000429     -0.000484      0.000000
    190 O2    s       0.000437     -0.000124     -0.000448      0.000000
    191 O2    s      -0.000393     -0.000083      0.000348      0.000000
    192 O2    s       0.000553      0.000404      0.000667      0.000000
    193 O2    s       0.000184      0.000185     -0.000574      0.000000
    194 O2    s      -0.000384     -0.000079     -0.000600      0.000000
    195 O2    s      -0.000131      0.000207      0.000057      0.000000
    196 O2    s      -0.000107      0.000080      0.000134      0.000000
    197 O2    s       0.000390     -0.000631      0.003061      0.000000
    198 O3    s       0.000697      0.000156     -0.000523      0.000000
    199 O3    s       0.002176      0.000907      0.000539      0.000000
    200 O2    s       0.000304     -0.000417      0.000055      0.000000
    201 O2    s       0.000372     -0.000365     -0.001225      0.000000
    202 O2    s      -0.000057     -0.000046     -0.000542      0.000000
    203 O2    s      -0.000045     -0.000094      0.000539      0.000000
    204 O2    s      -0.000039      0.000206     -0.000293      0.000000
    205 O2    s       0.001018      0.000288     -0.000067      0.000000
    206 O2    s       0.000013      0.000411      0.000063      0.000000
    207 O2    s       0.000116     -0.000127     -0.000524      0.000000
    208 O2    s      -0.000837      0.000228     -0.000864      0.000000
    209 O2    s      -0.000028     -0.000079      0.000081      0.000000
    210 O2    s       0.000015     -0.000288      0.000853      0.000000
    211 O2    s       0.000356      0.000064      0.000246      0.000000
    212 O2    s       0.001795     -0.000388     -0.003230      0.000000
    213 O2    s       0.000129     -0.000124     -0.000122      0.000000
    214 O2    s       0.000063     -0.000224      0.000139      0.000000
    215 O2    s      -0.000378      0.000181      0.000344      0.000000
    216 O2    s      -0.000002      0.000093      0.000344      0.000000
    217 O2    s       0.000630      0.000513     -0.000112      0.000000
    218 O2    s       0.000567      0.000134      0.000560      0.000000
    219 O2    s       0.000255     -0.000120     -0.001343      0.000000
    220 O2    s       0.000365      0.000552     -0.000337      0.000000
    221 O2    s      -0.000316      0.001523      0.001695      0.000000
    222 O2    s       0.000279      0.000192     -0.000632      0.000000
    223 O2    s      -0.001171      0.001072      0.001608      0.000000
    224 O2    s      -0.000082     -0.000295      0.001290      0.000000
    225 O2    s       0.000235     -0.000263     -0.000141      0.000000
    226 O3    s       0.000613     -0.000408     -0.000191      0.000000
    227 O2    s       0.000317     -0.000155     -0.000146      0.000000
    228 O2    s       0.000289      0.000134      0.000250      0.000000
    229 O2    s      -0.000064     -0.000190     -0.000384      0.000000
    230 O2    s      -0.001473      0.000138     -0.002364      0.000000
    231 O2    s      -0.000195      0.000129     -0.000542      0.000000
    232 O2    s       0.000019      0.000088     -0.000483      0.000000
    233 O2    s       0.000320      0.000024     -0.000132      0.000000
    234 O2    s       0.000459     -0.000101      0.000794      0.000000
    235 O2    s       0.000015     -0.000458      0.000469      0.000000
    236 O2    s       0.000255      0.000175     -0.000067      0.000000
    237 O2    s       0.000042      0.000437     -0.000103      0.000000
    238 O2    s       0.000192      0.000257     -0.000490      0.000000
    239 O3    s       0.002186      0.003376     -0.002464      0.000000
    240 O3    s       0.000082      0.000876     -0.000442      0.000000
    241 O2    s      -0.000977      0.000596     -0.000634      0.000000
    242 O2    s       0.000052      0.000239     -0.000212      0.000000
    243 O2    s      -0.000174      0.000083     -0.000134      0.000000
    244 O2    s       0.000143      0.000513     -0.000559      0.000000
    245 O2    s      -0.000042     -0.000391      0.000138      0.000000
    246 O2    s       0.000724     -0.000274      0.002169      0.000000
    247 O2    s       0.000141     -0.000022     -0.000642      0.000000
    248 O2    s       0.000611      0.000681     -0.002001      0.000000
    249 O2    s       0.000089     -0.000067      0.000209      0.000000
    250 O2    s       0.000301     -0.000230     -0.000019      0.000000
    251 O2    s      -0.000429     -0.000098     -0.000262      0.000000
    252 O2    s      -0.000019      0.000233     -0.000051      0.000000
    253 O3    s      -0.000220      0.000202     -0.001428      0.000000
    254 O2    s       0.000318     -0.000247     -0.000308      0.000000
    255 O2    s       0.000146      0.000003     -0.000900      0.000000
    256 O3    s       0.000152     -0.000034     -0.000752      0.000000
    257 O2    s      -0.000112      0.000084     -0.000789      0.000000
    258 O2    s       0.000433      0.000049      0.000152      0.000000
    259 O2    s      -0.000087     -0.000110      0.000348      0.000000
    260 O2    s       0.000199      0.000022      0.000298      0.000000
    261 O2    s       0.000145      0.000049      0.000158      0.000000
    262 O2    s      -0.000034      0.000020      0.000523      0.000000
    263 O3    s      -0.000308     -0.000102     -0.000286      0.000000
    264 O2    s       0.000233     -0.000234      0.001652      0.000000
    265 O3    s      -0.000114     -0.000208      0.000364      0.000000
    266 O2    s       0.000220      0.000135      0.000712      0.000000
    267 O2    s       0.000194      0.000074     -0.000220      0.000000
    268 O2    s      -0.000023      0.000033      0.000153      0.000000
    269 O2    s       0.000052      0.000187      0.000311      0.000000
    270 O2    s      -0.000029     -0.000011     -0.000201      0.000000
    271 O2    s       0.000270     -0.000238      0.000036      0.000000
    272 O2    s       0.000463      0.000021     -0.000334      0.000000
    273 O2    s       0.000082      0.000105     -0.000017      0.000000
    274 O2    s      -0.000259      0.000084      0.000532      0.000000
    275 O3    s      -0.000553     -0.000364     -0.003582      0.000000
    276 O2    s      -0.000631      0.000030      0.003292      0.000000
    277 O2    s       0.000214     -0.000208      0.000497      0.000000
    278 O2    s       0.000139      0.000129      0.000065      0.000000
    279 O3    s       0.000271      0.000214     -0.001195      0.000000
    280 O2    s       0.000288      0.000695     -0.000097      0.000000
    281 O2    s      -0.000383     -0.000152      0.000325      0.000000
    282 O2    s       0.000650     -0.001195     -0.001653      0.000000
    283 O2    s       0.000111     -0.000355     -0.000461      0.000000
    284 O2    s      -0.000142      0.000678      0.001333      0.000000
    285 O2    s       0.000227     -0.000248     -0.000219      0.000000
    286 O2    s       0.000209      0.000186      0.000433      0.000000
    287 O2    s      -0.000156     -0.000617     -0.000599      0.000000
    288 O2    s      -0.000121      0.000125      0.000334      0.000000
    289 O2    s      -0.000097      0.000422     -0.000948      0.000000
    290 O2    s      -0.000034      0.000100     -0.000227      0.000000
    291 O2    s      -0.000283     -0.000089      0.000116      0.000000
    292 O2    s      -0.000255      0.000190     -0.000177      0.000000
    293 O2    s      -0.000017     -0.000147      0.000326      0.000000
    294 O2    s       0.000255      0.000329      0.002168      0.000000
    295 O2    s      -0.000087      0.000586     -0.000697      0.000000
    296 O2    s       0.000257     -0.000923     -0.001075      0.000000
    297 O2    s      -0.000040     -0.000335     -0.000197      0.000000
    298 O2    s       0.000462     -0.000413     -0.000086      0.000000
    299 O3    s       0.000680      0.000140      0.001440      0.000000
    300 O2    s       0.000666      0.000073      0.000220      0.000000
    301 O2    s       0.000567      0.000262      0.000018      0.000000
    302 O2    s      -0.000350     -0.000533     -0.000449      0.000000
    303 O2    s       0.000111      0.000388     -0.001694      0.000000
    304 O2    s      -0.000203     -0.000354      0.000116      0.000000
    305 O2    s       0.000866      0.000310      0.000846      0.000000
    306 O2    s      -0.000169      0.000872      0.000539      0.000000
    307 F     s       0.000211     -0.000061     -0.000154      0.000000
    308 F     s      -0.000268      0.000122     -0.000441      0.000000
    309 F     s       0.000323     -0.000191      0.000317      0.000000
    310 F     s       0.000120     -0.000300     -0.000030      0.000000
    311 F     s      -0.000852     -0.000441     -0.000828      0.000000
    312 F     s       0.000466     -0.000196      0.000090      0.000000
--------------------------------------------------------------------------------
  Maximum abs         0.004090      0.003376      0.008645      0.000000
--------------------------------------------------------------------------------


  Time to end of optimisation =     171.3780 seconds


  Peak dynamic memory used =      19.13 MB 


  Timing analysis for GULP :

--------------------------------------------------------------------------------
  Task / Subroutine                                          Time (Seconds)
--------------------------------------------------------------------------------
  Calculation of reciprocal space energy and derivatives          4.1703
  Calculation of real space energy and derivatives              149.8657
  Calculation of three-body energy and derivatives               15.2508
  Calculation of matrix inversion                                 1.8609
  Global summation overhead                                       0.0002
--------------------------------------------------------------------------------
  Total CPU time                                                171.3781
--------------------------------------------------------------------------------


  Dump file written as out.res                                                 
  CIF file written as out.cif                                                 


  Job Finished at 17:52.30 27th October    2016                               

