********************************************************************************
*                       GENERAL UTILITY LATTICE PROGRAM                        *
*                                 Julian Gale                                  *
*                      Nanochemistry Research Institute                        *
*                           Department of Chemistry                            *
*                    Curtin University, Western Australia                      *
********************************************************************************
* Version = 4.2.0 * Last modified =  20th January 2014                         *
********************************************************************************
*  optimise     - perform optimisation run                                     *
*  conp         - constant pressure calculation                                *
*  qok          - running with non charge neutral cell is OK                   *
********************************************************************************

  Job Started  at 00:16.46 28th October    2016                               

  Number of CPUs =     1


  Total number of configurations input =   1

********************************************************************************
*  Input for Configuration =   1                                               *
********************************************************************************

  Formula = Ge3Si57O120F6                                               

  Number of irreducible atoms/shells =     312


  Total number atoms/shells =     312

  Dimensionality = 3               :  Bulk   


  Charge on solid   =  -6.000000 =>neutralising background added


  Cartesian lattice vectors (Angstroms) :

       11.982166    0.000000    0.000000
       -6.070366   10.355148    0.000000
        0.081202   -0.090413   29.504580

  Cell parameters (Angstroms/Degrees):

  a =      11.9822    alpha =  90.2312
  b =      12.0033    beta  =  89.8423
  c =      29.5048    gamma = 120.3796

  Initial cell volume =        3660.842604 Angs**3

  Temperature of configuration =  0.000     K 

  Pressure of configuration =         0.000 GPa 

  Fractional coordinates of asymmetric unit :

--------------------------------------------------------------------------------
   No.  Atomic       x           y          z         Charge      Occupancy
        Label      (Frac)      (Frac)     (Frac)        (e)         (Frac)  
--------------------------------------------------------------------------------
      1 Ge    c    0.699600    0.375700    0.033890     4.00000    1.000000    
      2 Si    c    0.624294 *  0.316075 *  0.367728 *   4.00000    1.000000    
      3 Si    c    0.677373 *  0.296274 *  0.700050 *   4.00000    1.000000    
      4 Si    c    0.297740 *  0.621881 *  0.534453 *   4.00000    1.000000    
      5 Si    c    0.377776 *  0.678467 *  0.867736 *   4.00000    1.000000    
      6 Si    c    0.326385 *  0.705590 *  0.203895 *   4.00000    1.000000    
      7 Si    c    0.378137 *  0.698962 *  0.305881 *   4.00000    1.000000    
      8 Si    c    0.326388 *  0.618066 *  0.967969 *   4.00000    1.000000    
      9 Si    c    0.296209 *  0.676228 *  0.635046 *   4.00000    1.000000    
     10 Si    c    0.622234 *  0.297441 *  0.800271 *   4.00000    1.000000    
     11 Si    c    0.675385 *  0.377059 *  0.469193 *   4.00000    1.000000    
     12 Ge    c    0.713857 *  0.326629 *  0.131925 *   4.00000    1.000000    
     13 Si    c    0.531654 *  0.414691 *  0.964352 *   4.00000    1.000000    
     14 Ge    c    0.569706 *  0.094637 *  0.301397 *   4.00000    1.000000    
     15 Si    c    0.887825 *  0.469441 *  0.635265 *   4.00000    1.000000    
     16 Si    c    0.468309 *  0.580488 *  0.469488 *   4.00000    1.000000    
     17 Si    c    0.416229 *  0.888578 *  0.802826 *   4.00000    1.000000    
     18 Si    c    0.116813 *  0.530574 *  0.137528 *   4.00000    1.000000    
     19 Si    c    0.419133 *  0.525007 *  0.368437 *   4.00000    1.000000    
     20 Si    c    0.118544 *  0.583984 *  0.034905 *   4.00000    1.000000    
     21 Si    c    0.467379 *  0.885042 *  0.701152 *   4.00000    1.000000    
     22 Si    c    0.582953 *  0.472337 *  0.862903 *   4.00000    1.000000    
     23 Si    c    0.886425 *  0.416146 *  0.533781 *   4.00000    1.000000    
     24 Si    c    0.537742 *  0.127052 *  0.202254 *   4.00000    1.000000    
     25 Si    c    0.300991 *  0.401010 *  0.850854 *   4.00000    1.000000    
     26 Si    c    0.609403 *  0.911863 *  0.189694 *   4.00000    1.000000    
     27 Si    c    0.096452 *  0.698174 *  0.519707 *   4.00000    1.000000    
     28 Si    c    0.699488 *  0.596046 *  0.354584 *   4.00000    1.000000    
     29 Si    c    0.397293 *  0.094451 *  0.686553 *   4.00000    1.000000    
     30 Si    c    0.903019 *  0.294888 *  0.020676 *   4.00000    1.000000    
     31 Si    c    0.397189 *  0.300914 *  0.483626 *   4.00000    1.000000    
     32 Si    c    0.903113 *  0.603165 *  0.152772 *   4.00000    1.000000    
     33 Si    c    0.698507 *  0.098004 *  0.816463 *   4.00000    1.000000    
     34 Si    c    0.605361 *  0.694622 *  0.981661 *   4.00000    1.000000    
     35 Si    c    0.095101 *  0.397339 *  0.649903 *   4.00000    1.000000    
     36 Si    c    0.296216 *  0.898952 *  0.324243 *   4.00000    1.000000    
     37 Si    c    0.252337 *  0.338667 *  0.951074 *   4.00000    1.000000    
     38 Si    c    0.666710 *  0.913226 *  0.291688 *   4.00000    1.000000    
     39 Si    c    0.088674 *  0.748716 *  0.620345 *   4.00000    1.000000    
     40 Si    c    0.746818 *  0.657285 *  0.454867 *   4.00000    1.000000    
     41 Si    c    0.339428 *  0.089285 *  0.787136 *   4.00000    1.000000    
     42 Si    c    0.915328 *  0.244709 *  0.122912 *   4.00000    1.000000    
     43 Si    c    0.342113 *  0.247105 *  0.382985 *   4.00000    1.000000    
     44 Si    c    0.915893 *  0.664085 *  0.050190 *   4.00000    1.000000    
     45 Si    c    0.747788 *  0.087473 *  0.715867 *   4.00000    1.000000    
     46 Si    c    0.659694 *  0.749830 *  0.881005 *   4.00000    1.000000    
     47 Si    c    0.087670 *  0.339666 *  0.549259 *   4.00000    1.000000    
     48 Si    c    0.256184 *  0.918423 *  0.221538 *   4.00000    1.000000    
     49 Si    c    0.974407 *  0.118849 *  0.968231 *   4.00000    1.000000    
     50 Si    c    0.878911 *  0.843024 *  0.304438 *   4.00000    1.000000    
     51 Si    c    0.149966 *  0.028434 *  0.635895 *   4.00000    1.000000    
     52 Si    c    0.025607 *  0.877157 *  0.471192 *   4.00000    1.000000    
     53 Si    c    0.121177 *  0.151471 *  0.801402 *   4.00000    1.000000    
     54 Si    c    0.853997 *  0.968680 *  0.136747 *   4.00000    1.000000    
     55 Si    c    0.116727 *  0.966834 *  0.370793 *   4.00000    1.000000    
     56 Si    c    0.852540 *  0.878011 *  0.034678 *   4.00000    1.000000    
     57 Si    c    0.027633 *  0.149662 *  0.700662 *   4.00000    1.000000    
     58 Si    c    0.877925 *  0.030225 *  0.866993 *   4.00000    1.000000    
     59 Si    c    0.149540 *  0.122164 *  0.535376 *   4.00000    1.000000    
     60 Si    c    0.976655 *  0.852806 *  0.203712 *   4.00000    1.000000    
     61 O2    c    0.932328 *  0.000418 *  0.002389 *   0.87073    1.000000    
     62 O2    c    0.998738 *  0.928148 *  0.336979 *   0.87073    1.000000    
     63 O2    c    0.070018 *  0.069021 *  0.668941 *   0.87073    1.000000    
     64 O2    c    0.066344 *  0.996364 *  0.504888 *   0.87073    1.000000    
     65 O2    c    0.001146 *  0.073228 *  0.835070 *   0.87073    1.000000    
     66 O2    c    0.932111 *  0.924563 *  0.168640 *   0.87073    1.000000    
     67 O2    c    0.341497 *  0.572955 *  0.335834 *   0.87073    1.000000    
     68 O2    c    0.418545 *  0.760072 *  0.668536 *   0.87073    1.000000    
     69 O2    c    0.242916 *  0.655971 *  0.002138 *   0.87073    1.000000    
     70 O2    c    0.660730 *  0.424720 *  0.830887 *   0.87073    1.000000    
     71 O3    c    0.576974 *  0.235830 *  0.165902 *   1.33043    1.000000    
     72 O2    c    0.760198 *  0.339141 *  0.501841 *   0.87073    1.000000    
     73 O3    c    0.579878 *  0.336955 *  0.993348 *   1.33043    1.000000    
     74 O2    c    0.761342 *  0.419147 *  0.667474 *   0.87073    1.000000    
     75 O3    c    0.659608 *  0.232059 *  0.337168 *   1.33043    1.000000    
     76 O2    c    0.420193 *  0.658618 *  0.501637 *   0.87073    1.000000    
     77 O2    c    0.242168 *  0.584494 *  0.170185 *   0.87073    1.000000    
     78 O2    c    0.339645 *  0.764100 *  0.835959 *   0.87073    1.000000    
     79 O2    c    0.129300 *  0.208810 *  0.971289 *   0.87073    1.000000    
     80 O2    c    0.785005 *  0.900185 *  0.310730 *   0.87073    1.000000    
     81 O2    c    0.086638 *  0.874044 *  0.640295 *   0.87073    1.000000    
     82 O2    c    0.871633 *  0.783582 *  0.476255 *   0.87073    1.000000    
     83 O2    c    0.213110 *  0.089905 *  0.807050 *   0.87073    1.000000    
     84 O2    c    0.929058 *  0.124053 *  0.140447 *   0.87073    1.000000    
     85 O2    c    0.215541 *  0.119072 *  0.363180 *   0.87073    1.000000    
     86 O2    c    0.924252 *  0.794981 *  0.031291 *   0.87073    1.000000    
     87 O2    c    0.872970 *  0.085857 *  0.695567 *   0.87073    1.000000    
     88 O2    c    0.785637 *  0.876282 *  0.860717 *   0.87073    1.000000    
     89 O2    c    0.087141 *  0.213145 *  0.529395 *   0.87073    1.000000    
     90 O2    c    0.131502 *  0.918474 *  0.200184 *   0.87073    1.000000    
     91 O2    c    0.931440 *  0.863677 *  0.253383 *   0.87073    1.000000    
     92 O2    c    0.138785 *  0.073328 *  0.586298 *   0.87073    1.000000    
     93 O2    c    0.927263 *  0.064111 *  0.918269 *   0.87073    1.000000    
     94 O2    c    0.066201 *  0.135994 *  0.751277 *   0.87073    1.000000    
     95 O2    c    0.855468 *  0.924551 *  0.085673 *   0.87073    1.000000    
     96 O2    c    0.063387 *  0.936153 *  0.421414 *   0.87073    1.000000    
     97 O2    c    0.911141 *  0.204609 *  0.981599 *   0.87073    1.000000    
     98 O2    c    0.800372 *  0.691149 *  0.315917 *   0.87073    1.000000    
     99 O2    c    0.301615 *  0.096644 *  0.648284 *   0.87073    1.000000    
    100 O2    c    0.097320 *  0.796506 *  0.481739 *   0.87073    1.000000    
    101 O2    c    0.202678 *  0.304207 *  0.812464 *   0.87073    1.000000    
    102 O2    c    0.704005 *  0.908167 *  0.150837 *   0.87073    1.000000    
    103 O2    c    0.185582 *  0.883509 *  0.359999 *   0.87073    1.000000    
    104 O2    c    0.702505 *  0.791065 *  0.020540 *   0.87073    1.000000    
    105 O2    c    0.097071 *  0.301059 *  0.688232 *   0.87073    1.000000    
    106 O2    c    0.797173 *  0.100628 *  0.854980 *   0.87073    1.000000    
    107 O2    c    0.300465 *  0.202568 *  0.522110 *   0.87073    1.000000    
    108 O2    c    0.912525 *  0.702756 *  0.191352 *   0.87073    1.000000    
    109 O2    c    0.326207 *  0.652448 *  0.254190 *   0.87073    1.000000    
    110 O2    c    0.355052 *  0.678744 *  0.584874 *   0.87073    1.000000    
    111 O2    c    0.323061 *  0.677794 *  0.918726 *   0.87073    1.000000    
    112 O2    c    0.679837 *  0.354297 *  0.750279 *   0.87073    1.000000    
    113 O1    c    0.621435 *  0.311033 *  0.083187 *   1.73396    1.000000    
    114 O2    c    0.675522 *  0.320052 *  0.419509 *   0.87073    1.000000    
    115 O2    c    0.374736 *  0.329515 *  0.968473 *   0.87073    1.000000    
    116 O3    c    0.684519 *  0.043148 *  0.311397 *   1.33043    1.000000    
    117 O2    c    0.956085 *  0.625678 *  0.638840 *   0.87073    1.000000    
    118 O2    c    0.624930 *  0.668269 *  0.473162 *   0.87073    1.000000    
    119 O2    c    0.329103 *  0.957372 *  0.805986 *   0.87073    1.000000    
    120 O2    c    0.046915 *  0.375029 *  0.139169 *   0.87073    1.000000    
    121 O2    c    0.330264 *  0.368796 *  0.364948 *   0.87073    1.000000    
    122 O2    c    0.048997 *  0.669678 *  0.034589 *   0.87073    1.000000    
    123 O2    c    0.624036 *  0.953942 *  0.698542 *   0.87073    1.000000    
    124 O2    c    0.669254 *  0.629025 *  0.861133 *   0.87073    1.000000    
    125 O2    c    0.955350 *  0.329253 *  0.530896 *   0.87073    1.000000    
    126 O2    c    0.378266 *  0.049518 *  0.203858 *   0.87073    1.000000    
    127 O3    c    0.770804 *  0.290124 *  0.011714 *   1.33043    1.000000    
    128 O2    c    0.699262 *  0.463172 *  0.347511 *   0.87073    1.000000    
    129 O2    c    0.532744 *  0.227385 *  0.678677 *   0.87073    1.000000    
    130 O2    c    0.230142 *  0.697379 *  0.512411 *   0.87073    1.000000    
    131 O2    c    0.301248 *  0.535262 *  0.844984 *   0.87073    1.000000    
    132 O2    c    0.471811 *  0.778230 *  0.183911 *   0.87073    1.000000    
    133 O2    c    0.301643 *  0.765926 *  0.327237 *   0.87073    1.000000    
    134 O2    c    0.469891 *  0.691774 *  0.990624 *   0.87073    1.000000    
    135 O2    c    0.228763 *  0.532870 *  0.657381 *   0.87073    1.000000    
    136 O2    c    0.697572 *  0.231603 *  0.823946 *   0.87073    1.000000    
    137 O2    c    0.532013 *  0.303751 *  0.491935 *   0.87073    1.000000    
    138 O3    c    0.772084 *  0.474545 *  0.162168 *   1.33043    1.000000    
    139 O3    c    0.794069 *  0.543914 *  0.028242 *   1.33043    1.000000    
    140 O2    c    0.467242 *  0.248905 *  0.362894 *   0.87073    1.000000    
    141 O2    c    0.749247 *  0.212688 *  0.695581 *   0.87073    1.000000    
    142 O2    c    0.214305 *  0.465681 *  0.529986 *   0.87073    1.000000    
    143 O2    c    0.533977 *  0.751868 *  0.862917 *   0.87073    1.000000    
    144 O2    c    0.260762 *  0.794058 *  0.202357 *   0.87073    1.000000    
    145 O2    c    0.532990 *  0.787788 *  0.308630 *   0.87073    1.000000    
    146 O2    c    0.247422 *  0.461333 *  0.972034 *   0.87073    1.000000    
    147 O2    c    0.215524 *  0.751269 *  0.640089 *   0.87073    1.000000    
    148 O2    c    0.465682 *  0.216665 *  0.806343 *   0.87073    1.000000    
    149 O2    c    0.749291 *  0.533207 *  0.474265 *   0.87073    1.000000    
    150 O3    c    0.789586 *  0.234061 *  0.144262 *   1.33043    1.000000    
    151 O2    c    0.230896 *  0.323681 *  0.896882 *   0.87073    1.000000    
    152 O2    c    0.678838 *  0.913920 *  0.236512 *   0.87073    1.000000    
    153 O2    c    0.091570 *  0.767991 *  0.566163 *   0.87073    1.000000    
    154 O2    c    0.769039 *  0.675053 *  0.400647 *   0.87073    1.000000    
    155 O2    c    0.322490 *  0.090136 *  0.732928 *   0.87073    1.000000    
    156 O2    c    0.909669 *  0.230965 *  0.067998 *   0.87073    1.000000    
    157 O2    c    0.324025 *  0.228629 *  0.437317 *   0.87073    1.000000    
    158 O2    c    0.907606 *  0.671312 *  0.104695 *   0.87073    1.000000    
    159 O2    c    0.768694 *  0.092904 *  0.770185 *   0.87073    1.000000    
    160 O2    c    0.678606 *  0.766847 *  0.935391 *   0.87073    1.000000    
    161 O2    c    0.089519 *  0.322469 *  0.603528 *   0.87073    1.000000    
    162 O2    c    0.236346 *  0.909569 *  0.275552 *   0.87073    1.000000    
    163 O2    c    0.592438 *  0.555594 *  0.989254 *   0.87073    1.000000    
    164 O3    c    0.427339 *  0.023878 *  0.336830 *   1.33043    1.000000    
    165 O2    c    0.969855 *  0.411300 *  0.658902 *   0.87073    1.000000    
    166 O2    c    0.408197 *  0.438981 *  0.492633 *   0.87073    1.000000    
    167 O2    c    0.558505 *  0.972234 *  0.825678 *   0.87073    1.000000    
    168 O2    c    0.026486 *  0.582211 *  0.157604 *   0.87073    1.000000    
    169 O2    c    0.560738 *  0.584244 *  0.344928 *   0.87073    1.000000    
    170 O2    c    0.021963 *  0.441614 *  0.015585 *   0.87073    1.000000    
    171 O2    c    0.410993 *  0.969155 *  0.678324 *   0.87073    1.000000    
    172 O2    c    0.440795 *  0.417456 *  0.840815 *   0.87073    1.000000    
    173 O2    c    0.971499 *  0.557699 *  0.510946 *   0.87073    1.000000    
    174 O2    c    0.588670 *  0.031750 *  0.182299 *   0.87073    1.000000    
    175 O3    c    0.593557 *  0.186467 *  0.251031 *   1.33043    1.000000    
    176 O2    c    0.833832 *  0.415990 *  0.584682 *   0.87073    1.000000    
    177 O2    c    0.582542 *  0.418479 *  0.913057 *   0.87073    1.000000    
    178 O2    c    0.414297 *  0.833431 *  0.752193 *   0.87073    1.000000    
    179 O2    c    0.165037 *  0.580196 *  0.086248 *   0.87073    1.000000    
    180 O2    c    0.416246 *  0.581050 *  0.418551 *   0.87073    1.000000    
    181 F     c    0.476325 *  0.946043 *  0.264480 *   0.56000    1.000000    
    182 F     c    0.095295 *  0.548316 *  0.585663 *   0.56000    1.000000    
    183 F     c    0.449830 *  0.548148 *  0.917567 *   0.56000    1.000000    
    184 F     c    0.547880 *  0.096194 *  0.752546 *   0.56000    1.000000    
    185 F     c    0.860780 *  0.423186 *  0.090358 *   0.56000    1.000000    
    186 F     c    0.545334 *  0.454298 *  0.419611 *   0.56000    1.000000    
    187 O2    s    0.928076 *  0.999865 *  0.002212 *  -2.87073    1.000000    
    188 O2    s    0.998458 *  0.922805 *  0.337099 *  -2.87073    1.000000    
    189 O2    s    0.074131 *  0.073556 *  0.668837 *  -2.87073    1.000000    
    190 O2    s    0.071142 *  0.997148 *  0.504542 *  -2.87073    1.000000    
    191 O2    s    0.000636 *  0.077098 *  0.834930 *  -2.87073    1.000000    
    192 O2    s    0.928240 *  0.921608 *  0.168923 *  -2.87073    1.000000    
    193 O2    s    0.353064 *  0.581649 *  0.335840 *  -2.87073    1.000000    
    194 O2    s    0.411183 *  0.764543 *  0.668510 *  -2.87073    1.000000    
    195 O2    s    0.237894 *  0.644546 *  0.002243 *  -2.87073    1.000000    
    196 O2    s    0.648694 *  0.416733 *  0.831117 *  -2.87073    1.000000    
    197 O3    s    0.582866 *  0.230787 *  0.167340 *  -3.33043    1.000000    
    198 O2    s    0.764770 *  0.351040 *  0.501866 *  -2.87073    1.000000    
    199 O3    s    0.583969 *  0.348100 *  0.993400 *  -3.33043    1.000000    
    200 O2    s    0.765532 *  0.411446 *  0.667602 *  -2.87073    1.000000    
    201 O3    s    0.649606 *  0.232194 *  0.338181 *  -3.33043    1.000000    
    202 O2    s    0.412366 *  0.646887 *  0.501787 *  -2.87073    1.000000    
    203 O2    s    0.237824 *  0.591400 *  0.170264 *  -2.87073    1.000000    
    204 O2    s    0.351325 *  0.767859 *  0.835898 *  -2.87073    1.000000    
    205 O2    s    0.125250 *  0.212463 *  0.968901 *  -2.87073    1.000000    
    206 O2    s    0.782613 *  0.895100 *  0.307944 *  -2.87073    1.000000    
    207 O2    s    0.093581 *  0.877573 *  0.637812 *  -2.87073    1.000000    
    208 O2    s    0.875382 *  0.780645 *  0.473538 *  -2.87073    1.000000    
    209 O2    s    0.216362 *  0.096346 *  0.804432 *  -2.87073    1.000000    
    210 O2    s    0.919725 *  0.119934 *  0.138276 *  -2.87073    1.000000    
    211 O2    s    0.217997 *  0.115986 *  0.365989 *  -2.87073    1.000000    
    212 O2    s    0.915836 *  0.790332 *  0.033582 *  -2.87073    1.000000    
    213 O2    s    0.876414 *  0.092786 *  0.698187 *  -2.87073    1.000000    
    214 O2    s    0.782336 *  0.879512 *  0.863485 *  -2.87073    1.000000    
    215 O2    s    0.093788 *  0.216612 *  0.532069 *  -2.87073    1.000000    
    216 O2    s    0.127721 *  0.911419 *  0.202742 *  -2.87073    1.000000    
    217 O2    s    0.930877 *  0.860156 *  0.253300 *  -2.87073    1.000000    
    218 O2    s    0.141271 *  0.073680 *  0.586239 *  -2.87073    1.000000    
    219 O2    s    0.927105 *  0.066516 *  0.918215 *  -2.87073    1.000000    
    220 O2    s    0.068150 *  0.139287 *  0.751332 *  -2.87073    1.000000    
    221 O2    s    0.855002 *  0.924272 *  0.085667 *  -2.87073    1.000000    
    222 O2    s    0.065204 *  0.932970 *  0.421264 *  -2.87073    1.000000    
    223 O2    s    0.917238 *  0.204744 *  0.984265 *  -2.87073    1.000000    
    224 O2    s    0.798842 *  0.698056 *  0.318501 *  -2.87073    1.000000    
    225 O2    s    0.295382 *  0.089141 *  0.650927 *  -2.87073    1.000000    
    226 O2    s    0.089743 *  0.794950 *  0.484491 *  -2.87073    1.000000    
    227 O2    s    0.204204 *  0.298065 *  0.815269 *  -2.87073    1.000000    
    228 O2    s    0.710216 *  0.914930 *  0.153303 *  -2.87073    1.000000    
    229 O2    s    0.189507 *  0.893707 *  0.357517 *  -2.87073    1.000000    
    230 O2    s    0.708626 *  0.790522 *  0.018081 *  -2.87073    1.000000    
    231 O2    s    0.089496 *  0.294700 *  0.685702 *  -2.87073    1.000000    
    232 O2    s    0.795829 *  0.092945 *  0.852398 *  -2.87073    1.000000    
    233 O2    s    0.294036 *  0.203906 *  0.519619 *  -2.87073    1.000000    
    234 O2    s    0.918682 *  0.708721 *  0.188572 *  -2.87073    1.000000    
    235 O2    s    0.331387 *  0.662668 *  0.254034 *  -2.87073    1.000000    
    236 O2    s    0.343284 *  0.672761 *  0.584893 *  -2.87073    1.000000    
    237 O2    s    0.328868 *  0.671791 *  0.918629 *  -2.87073    1.000000    
    238 O2    s    0.673606 *  0.342394 *  0.750314 *  -2.87073    1.000000    
    239 O1    s    0.633997 *  0.317405 *  0.082404 *  -3.73396    1.000000    
    240 O2    s    0.670429 *  0.325740 *  0.419702 *  -2.87073    1.000000    
    241 O2    s    0.377500 *  0.339255 *  0.966155 *  -2.87073    1.000000    
    242 O3    s    0.674855 *  0.032514 *  0.308562 *  -3.33043    1.000000    
    243 O2    s    0.962922 *  0.622448 *  0.636538 *  -2.87073    1.000000    
    244 O2    s    0.621505 *  0.658044 *  0.470859 *  -2.87073    1.000000    
    245 O2    s    0.339076 *  0.964003 *  0.803705 *  -2.87073    1.000000    
    246 O2    s    0.041149 *  0.378445 *  0.137356 *  -2.87073    1.000000    
    247 O2    s    0.340630 *  0.372492 *  0.367152 *  -2.87073    1.000000    
    248 O2    s    0.042761 *  0.660198 *  0.036221 *  -2.87073    1.000000    
    249 O2    s    0.620923 *  0.960904 *  0.700660 *  -2.87073    1.000000    
    250 O2    s    0.659360 *  0.625631 *  0.863419 *  -2.87073    1.000000    
    251 O2    s    0.962162 *  0.339255 *  0.533130 *  -2.87073    1.000000    
    252 O2    s    0.379874 *  0.042300 *  0.205693 *  -2.87073    1.000000    
    253 O3    s    0.779506 *  0.296942 *  0.014362 *  -3.33043    1.000000    
    254 O2    s    0.691875 *  0.463203 *  0.350314 *  -2.87073    1.000000    
    255 O2    s    0.533353 *  0.220409 *  0.681767 *  -2.87073    1.000000    
    256 O2    s    0.223017 *  0.689759 *  0.515457 *  -2.87073    1.000000    
    257 O2    s    0.309066 *  0.535834 *  0.847981 *  -2.87073    1.000000    
    258 O2    s    0.470473 *  0.784162 *  0.186614 *  -2.87073    1.000000    
    259 O2    s    0.309102 *  0.772268 *  0.324670 *  -2.87073    1.000000    
    260 O2    s    0.469118 *  0.684506 *  0.987348 *  -2.87073    1.000000    
    261 O2    s    0.221586 *  0.533274 *  0.654277 *  -2.87073    1.000000    
    262 O2    s    0.690015 *  0.224397 *  0.820744 *  -2.87073    1.000000    
    263 O2    s    0.532467 *  0.310979 *  0.488704 *  -2.87073    1.000000    
    264 O3    s    0.782208 *  0.478138 *  0.158979 *  -3.33043    1.000000    
    265 O3    s    0.799959 *  0.543886 *  0.031014 *  -3.33043    1.000000    
    266 O2    s    0.468896 *  0.255586 *  0.365578 *  -2.87073    1.000000    
    267 O2    s    0.741466 *  0.207704 *  0.698235 *  -2.87073    1.000000    
    268 O2    s    0.209114 *  0.468293 *  0.532540 *  -2.87073    1.000000    
    269 O2    s    0.531222 *  0.743822 *  0.865377 *  -2.87073    1.000000    
    270 O2    s    0.267387 *  0.797525 *  0.204497 *  -2.87073    1.000000    
    271 O2    s    0.529837 *  0.791161 *  0.306587 *  -2.87073    1.000000    
    272 O2    s    0.256088 *  0.464621 *  0.969450 *  -2.87073    1.000000    
    273 O2    s    0.210123 *  0.743126 *  0.637473 *  -2.87073    1.000000    
    274 O2    s    0.468211 *  0.211182 *  0.803692 *  -2.87073    1.000000    
    275 O2    s    0.741231 *  0.530394 *  0.471671 *  -2.87073    1.000000    
    276 O3    s    0.798052 *  0.241678 *  0.141139 *  -3.33043    1.000000    
    277 O2    s    0.240465 *  0.333333 *  0.897863 *  -2.87073    1.000000    
    278 O2    s    0.670149 *  0.913650 *  0.236948 *  -2.87073    1.000000    
    279 O2    s    0.091765 *  0.758637 *  0.567079 *  -2.87073    1.000000    
    280 O2    s    0.759547 *  0.665084 *  0.401605 *  -2.87073    1.000000    
    281 O2    s    0.332105 *  0.090483 *  0.733865 *  -2.87073    1.000000    
    282 O2    s    0.909519 *  0.239101 *  0.068638 *  -2.87073    1.000000    
    283 O2    s    0.333610 *  0.238178 *  0.436471 *  -2.87073    1.000000    
    284 O2    s    0.907983 *  0.663576 *  0.103840 *  -2.87073    1.000000    
    285 O2    s    0.759142 *  0.092875 *  0.769339 *  -2.87073    1.000000    
    286 O2    s    0.668910 *  0.757466 *  0.934545 *  -2.87073    1.000000    
    287 O2    s    0.089900 *  0.332180 *  0.602715 *  -2.87073    1.000000    
    288 O2    s    0.244369 *  0.909527 *  0.274414 *  -2.87073    1.000000    
    289 O2    s    0.587645 *  0.556484 *  0.985989 *  -2.87073    1.000000    
    290 O3    s    0.422555 *  0.014802 *  0.333122 *  -3.33043    1.000000    
    291 O2    s    0.974995 *  0.415987 *  0.655497 *  -2.87073    1.000000    
    292 O2    s    0.413418 *  0.438928 *  0.489264 *  -2.87073    1.000000    
    293 O2    s    0.558737 *  0.977204 *  0.822312 *  -2.87073    1.000000    
    294 O2    s    0.023644 *  0.578600 *  0.154896 *  -2.87073    1.000000    
    295 O2    s    0.560610 *  0.579224 *  0.348358 *  -2.87073    1.000000    
    296 O2    s    0.019883 *  0.441724 *  0.018247 *  -2.87073    1.000000    
    297 O2    s    0.415595 *  0.974086 *  0.681626 *  -2.87073    1.000000    
    298 O2    s    0.440617 *  0.421632 *  0.844224 *  -2.87073    1.000000    
    299 O2    s    0.976314 *  0.558118 *  0.514285 *  -2.87073    1.000000    
    300 O2    s    0.586017 *  0.027026 *  0.185051 *  -2.87073    1.000000    
    301 O3    s    0.586245 *  0.174061 *  0.249578 *  -3.33043    1.000000    
    302 O2    s    0.844955 *  0.421613 *  0.584718 *  -2.87073    1.000000    
    303 O2    s    0.577242 *  0.423869 *  0.913071 *  -2.87073    1.000000    
    304 O2    s    0.419916 *  0.844401 *  0.752203 *  -2.87073    1.000000    
    305 O2    s    0.155270 *  0.575439 *  0.086275 *  -2.87073    1.000000    
    306 O2    s    0.421878 *  0.575238 *  0.418614 *  -2.87073    1.000000    
    307 F     s    0.482135 *  0.955505 *  0.266895 *  -1.56000    1.000000    
    308 F     s    0.095671 *  0.548576 *  0.585776 *  -1.56000    1.000000    
    309 F     s    0.449303 *  0.548384 *  0.917737 *  -1.56000    1.000000    
    310 F     s    0.548149 *  0.096735 *  0.752688 *  -1.56000    1.000000    
    311 F     s    0.851422 *  0.417626 *  0.091820 *  -1.56000    1.000000    
    312 F     s    0.545168 *  0.454738 *  0.419698 *  -1.56000    1.000000    
--------------------------------------------------------------------------------



********************************************************************************
*  General input information                                                   *
********************************************************************************

  Species output for all configurations : 

--------------------------------------------------------------------------------
  Species    Type    Atomic    Atomic    Charge       Radii (Angs)     Library
                     Number     Mass       (e)     Cova   Ionic  VDW   Symbol
--------------------------------------------------------------------------------
    Si       Core       14      28.09   4.000000   1.200  0.000  2.100          
    O1       Core        8      16.00   1.733957   0.730  0.000  1.360          
    O1       Shell       8       0.00  -3.733957   0.730  0.000  1.360          
    O2       Core        8      16.00   0.870733   0.730  0.000  1.360          
    O2       Shell       8       0.00  -2.870733   0.730  0.000  1.360          
    O3       Core        8      16.00   1.330431   0.730  0.000  1.360          
    O3       Shell       8       0.00  -3.330431   0.730  0.000  1.360          
    F        Core        9      19.00   0.560000   0.710  0.000  1.300          
    F        Shell       9       0.00  -1.560000   0.710  0.000  1.300          
    Ge       Core       32      72.61   4.000000   1.170  0.000  1.750          
--------------------------------------------------------------------------------


  Lattice summation method               =    Ewald          (3-D)
                                         =    Parry          (2-D)
                                         =    Saunders et al (1-D)
  Accuracy factor for lattice sums       =   12.000


  Time limit = Infinity

  Maximum range for interatomic potentials =        16.000000 Angstroms

  Taper potentials to zero over   1.0000 Angstroms using polynomial

  General interatomic potentials :

--------------------------------------------------------------------------------
Atom  Types   Potential         A         B         C         D     Cutoffs(Ang)
  1     2                                                            Min    Max 
--------------------------------------------------------------------------------
Si   c O1   s Buckingham    0.132E+04 0.318      10.1      0.00     0.000 16.000
Si   c O2   s Buckingham    0.132E+04 0.318      10.1      0.00     0.000 16.000
Si   c O3   s Buckingham    0.132E+04 0.318      10.1      0.00     0.000 16.000
Ge   c O1   s Buckingham    0.150E+04 0.326      16.8      0.00     0.000 16.000
Ge   c O2   s Buckingham    0.150E+04 0.326      16.8      0.00     0.000 16.000
Ge   c O3   s Buckingham    0.150E+04 0.326      16.8      0.00     0.000 16.000
O1   s O1   s Buckingham    0.228E+05 0.149      10.9      0.00     0.000 16.000
O1   s O2   s Buckingham    0.228E+05 0.149      10.9      0.00     0.000 16.000
O1   s O3   s Buckingham    0.228E+05 0.149      10.9      0.00     0.000 16.000
O2   s O2   s Buckingham    0.228E+05 0.149      10.9      0.00     0.000 16.000
O2   s O3   s Buckingham    0.228E+05 0.149      10.9      0.00     0.000 16.000
O3   s O3   s Buckingham    0.228E+05 0.149      10.9      0.00     0.000 16.000
Si   c F    s Buckingham     977.     0.282      0.00      0.00     0.000 16.000
Ge   c F    s Buckingham     681.     0.320      0.00      0.00     0.000 16.000
F    s F    s Buckingham     540.     0.262      0.00      0.00     0.000 16.000
O1   s F    s Buckingham    0.168E+04 0.268      0.00      0.00     0.000 16.000
O2   s F    s Buckingham    0.168E+04 0.268      0.00      0.00     0.000 16.000
O3   s F    s Buckingham    0.168E+04 0.268      0.00      0.00     0.000 16.000
O2   c O2   s Spring (c-s)   76.0      0.00      0.00      0.00     0.000  0.800
O3   c O3   s Spring (c-s)   128.      0.00      0.00      0.00     0.000  0.800
O1   c O1   s Spring (c-s)   180.      0.00      0.00      0.00     0.000  0.800
F    c F    s Spring (c-s)   33.5      0.00      0.00      0.00     0.000  0.800
--------------------------------------------------------------------------------

  General Three-body potentials :

  Harmonic form:

--------------------------------------------------------------------------------
Atom    Atom    Atom           Force Constants            Theta     Cutoffs  
  1       2       3     (eVrad**-2/eVrad**-3/eVrad**-4)   (deg)  1-2  1-3  2-3
--------------------------------------------------------------------------------
Si    c O1    s O1    s  1.261        0.0000    0.0000   109.470 0.00 0.00 0.00
                                                                 1.90 1.90 3.50
Si    c O1    s O2    s  1.261        0.0000    0.0000   109.470 0.00 0.00 0.00
                                                                 1.90 1.90 3.50
Si    c O2    s O2    s  1.261        0.0000    0.0000   109.470 0.00 0.00 0.00
                                                                 1.90 1.90 3.50
--------------------------------------------------------------------------------

********************************************************************************
*  Output for configuration   1                                                *
********************************************************************************


  Components of energy : 

--------------------------------------------------------------------------------
  Interatomic potentials     =        2064.29373807 eV
  Three-body potentials      =           0.46468357 eV
  Monopole - monopole (real) =       -6614.63080698 eV
  Monopole - monopole (recip)=       -3170.51656498 eV
  Monopole - monopole (total)=       -9785.14737196 eV
  Neutralising energy        =          -6.45765629 eV
--------------------------------------------------------------------------------
  Total lattice energy       =       -7726.84660661 eV
--------------------------------------------------------------------------------
  Total lattice energy       =         -745522.5819 kJ/(mole unit cells)
--------------------------------------------------------------------------------


  Number of variables =      939

  Maximum number of calculations  =          5000
  Maximum Hessian update interval =            10
  Maximum step size               =   0.100000000
  Maximum parameter tolerance     =   0.000010000
  Maximum function  tolerance     =   0.000010000
  Maximum gradient  tolerance     =   0.001000000
  Maximum gradient  component     =   0.010000000

  Symmetry not applied to optimisation

  Cell parameters to be optimised using strains

  Newton-Raphson optimiser to be used

  BFGS hessian update to be used

  Dumpfile to be written after every cycle

  Start of bulk optimisation :

  Cycle:      0 Energy:     -7726.846607  Gnorm:      0.009560  CPU:    2.027
  ** Hessian calculated **
  Cycle:      1 Energy:     -7726.875703  Gnorm:      0.005593  CPU:    6.604
  Cycle:      2 Energy:     -7726.884750  Gnorm:      0.003226  CPU:   10.122
  Cycle:      3 Energy:     -7726.888143  Gnorm:      0.001706  CPU:   14.323
  Cycle:      4 Energy:     -7726.889005  Gnorm:      0.000831  CPU:   18.524
  Cycle:      5 Energy:     -7726.889193  Gnorm:      0.000541  CPU:   22.042
  Cycle:      6 Energy:     -7726.889261  Gnorm:      0.000282  CPU:   25.561
  Cycle:      7 Energy:     -7726.889280  Gnorm:      0.000198  CPU:   28.399
  Cycle:      8 Energy:     -7726.889288  Gnorm:      0.000135  CPU:   31.237
  Cycle:      9 Energy:     -7726.889292  Gnorm:      0.000096  CPU:   34.074
  Cycle:     10 Energy:     -7726.889294  Gnorm:      0.000067  CPU:   36.912
  ** Hessian calculated **


  **** Optimisation achieved ****


  Final energy =   -7726.88929452 eV
  Final Gnorm  =       0.00004659

  Components of energy : 

--------------------------------------------------------------------------------
  Interatomic potentials     =        2064.26715425 eV
  Three-body potentials      =           0.46615455 eV
  Monopole - monopole (real) =       -6614.93224282 eV
  Monopole - monopole (recip)=       -3170.23328161 eV
  Monopole - monopole (total)=       -9785.16552443 eV
  Neutralising energy        =          -6.45707889 eV
--------------------------------------------------------------------------------
  Total lattice energy       =       -7726.88929452 eV
--------------------------------------------------------------------------------
  Total lattice energy       =         -745526.7006 kJ/(mole unit cells)
--------------------------------------------------------------------------------

  Final fractional coordinates of atoms :

--------------------------------------------------------------------------------
   No.  Atomic        x           y          z          Radius
        Label       (Frac)      (Frac)     (Frac)       (Angs) 
--------------------------------------------------------------------------------
     1  Ge    c     0.699600    0.375700    0.033890    0.000000
     2  Si    c     0.622119    0.311716    0.370184    0.000000
     3  Si    c     0.673092    0.289365    0.702174    0.000000
     4  Si    c     0.295432    0.615248    0.537941    0.000000
     5  Si    c     0.377832    0.677734    0.870921    0.000000
     6  Si    c     0.331628    0.706491    0.206759    0.000000
     7  Si    c     0.382425    0.699052    0.308915    0.000000
     8  Si    c     0.329096    0.616120    0.971227    0.000000
     9  Si    c     0.291557    0.669069    0.638569    0.000000
    10  Si    c     0.620932    0.295470    0.802384    0.000000
    11  Si    c     0.672369    0.370719    0.471827    0.000000
    12  Ge    c     0.719965    0.329202    0.132773    0.000000
    13  Si    c     0.531692    0.413859    0.965015    0.000000
    14  Ge    c     0.575526    0.094371    0.303125    0.000000
    15  Si    c     0.883850    0.462022    0.637535    0.000000
    16  Si    c     0.466437    0.574586    0.472901    0.000000
    17  Si    c     0.414228    0.887423    0.806526    0.000000
    18  Si    c     0.120335    0.530381    0.140694    0.000000
    19  Si    c     0.417990    0.521579    0.371633    0.000000
    20  Si    c     0.121769    0.583077    0.037992    0.000000
    21  Si    c     0.462197    0.878534    0.704849    0.000000
    22  Si    c     0.583227    0.472641    0.863970    0.000000
    23  Si    c     0.883696    0.409028    0.536081    0.000000
    24  Si    c     0.546149    0.128786    0.203775    0.000000
    25  Si    c     0.300833    0.400737    0.852764    0.000000
    26  Si    c     0.614997    0.911332    0.192416    0.000000
    27  Si    c     0.094333    0.691295    0.522653    0.000000
    28  Si    c     0.698156    0.592110    0.357228    0.000000
    29  Si    c     0.392404    0.087842    0.689770    0.000000
    30  Si    c     0.905096    0.294870    0.023548    0.000000
    31  Si    c     0.394600    0.295003    0.486731    0.000000
    32  Si    c     0.907234    0.603887    0.155250    0.000000
    33  Si    c     0.696776    0.096563    0.819600    0.000000
    34  Si    c     0.608631    0.693004    0.984378    0.000000
    35  Si    c     0.090345    0.389904    0.652736    0.000000
    36  Si    c     0.302394    0.900347    0.327310    0.000000
    37  Si    c     0.252715    0.336752    0.953071    0.000000
    38  Si    c     0.671591    0.912692    0.294617    0.000000
    39  Si    c     0.084506    0.741532    0.623260    0.000000
    40  Si    c     0.744719    0.651190    0.457767    0.000000
    41  Si    c     0.337559    0.087453    0.790465    0.000000
    42  Si    c     0.918576    0.244444    0.125816    0.000000
    43  Si    c     0.340570    0.243772    0.385928    0.000000
    44  Si    c     0.919795    0.663339    0.052363    0.000000
    45  Si    c     0.743287    0.081077    0.718956    0.000000
    46  Si    c     0.660200    0.749180    0.883495    0.000000
    47  Si    c     0.084535    0.332582    0.552082    0.000000
    48  Si    c     0.263905    0.921082    0.224423    0.000000
    49  Si    c     0.974766    0.117546    0.971100    0.000000
    50  Si    c     0.880675    0.838767    0.307132    0.000000
    51  Si    c     0.144706    0.020833    0.638964    0.000000
    52  Si    c     0.024322    0.870571    0.474111    0.000000
    53  Si    c     0.120047    0.150438    0.804256    0.000000
    54  Si    c     0.860199    0.969078    0.139664    0.000000
    55  Si    c     0.118404    0.962559    0.373937    0.000000
    56  Si    c     0.856214    0.876730    0.037555    0.000000
    57  Si    c     0.022760    0.142313    0.703650    0.000000
    58  Si    c     0.876936    0.030051    0.869978    0.000000
    59  Si    c     0.146607    0.115447    0.538355    0.000000
    60  Si    c     0.983505    0.854419    0.206612    0.000000
    61  O2    c     0.934252    0.999776    0.005397    0.000000
    62  O2    c     0.999790    0.920131    0.340224    0.000000
    63  O2    c     0.064127    0.060599    0.672058    0.000000
    64  O2    c     0.063994    0.989237    0.507988    0.000000
    65  O2    c     0.001205    0.074807    0.838537    0.000000
    66  O2    c     0.940668    0.928383    0.171843    0.000000
    67  O2    c     0.343182    0.572365    0.338923    0.000000
    68  O2    c     0.412799    0.752780    0.672602    0.000000
    69  O2    c     0.246928    0.654643    0.005561    0.000000
    70  O2    c     0.660590    0.425047    0.831831    0.000000
    71  O3    c     0.583123    0.235677    0.166884    0.000000
    72  O2    c     0.757576    0.332383    0.504081    0.000000
    73  O3    c     0.581166    0.335373    0.993357    0.000000
    74  O2    c     0.756364    0.411227    0.669210    0.000000
    75  O3    c     0.661137    0.231462    0.339251    0.000000
    76  O2    c     0.418440    0.652212    0.505382    0.000000
    77  O2    c     0.246129    0.585246    0.173210    0.000000
    78  O2    c     0.338457    0.763632    0.840020    0.000000
    79  O2    c     0.129933    0.206790    0.973187    0.000000
    80  O2    c     0.789265    0.898602    0.313541    0.000000
    81  O2    c     0.081514    0.866424    0.643076    0.000000
    82  O2    c     0.870248    0.777186    0.479009    0.000000
    83  O2    c     0.212212    0.089522    0.810508    0.000000
    84  O2    c     0.933861    0.124373    0.142819    0.000000
    85  O2    c     0.213842    0.115429    0.366250    0.000000
    86  O2    c     0.928310    0.794383    0.033511    0.000000
    87  O2    c     0.867920    0.078092    0.698894    0.000000
    88  O2    c     0.785044    0.876286    0.863045    0.000000
    89  O2    c     0.084230    0.206281    0.532200    0.000000
    90  O2    c     0.138450    0.920667    0.203490    0.000000
    91  O2    c     0.935475    0.860980    0.256337    0.000000
    92  O2    c     0.134922    0.066995    0.589416    0.000000
    93  O2    c     0.924562    0.061560    0.921464    0.000000
    94  O2    c     0.063011    0.130649    0.754277    0.000000
    95  O2    c     0.860587    0.922866    0.088725    0.000000
    96  O2    c     0.064296    0.930225    0.424482    0.000000
    97  O2    c     0.912827    0.204061    0.984564    0.000000
    98  O2    c     0.798653    0.686693    0.318325    0.000000
    99  O2    c     0.296111    0.088967    0.651603    0.000000
   100  O2    c     0.095723    0.789833    0.484729    0.000000
   101  O2    c     0.202206    0.303961    0.814347    0.000000
   102  O2    c     0.710251    0.907102    0.153948    0.000000
   103  O2    c     0.191455    0.883487    0.363175    0.000000
   104  O2    c     0.706000    0.788545    0.023406    0.000000
   105  O2    c     0.091904    0.293379    0.691003    0.000000
   106  O2    c     0.796231    0.100460    0.858060    0.000000
   107  O2    c     0.297615    0.196070    0.525129    0.000000
   108  O2    c     0.918723    0.705042    0.193412    0.000000
   109  O2    c     0.331577    0.653302    0.257052    0.000000
   110  O2    c     0.351602    0.671760    0.588565    0.000000
   111  O2    c     0.325234    0.676274    0.922212    0.000000
   112  O2    c     0.677349    0.349622    0.752110    0.000000
   113  O1    c     0.626314    0.315122    0.084259    0.000000
   114  O2    c     0.671738    0.313835    0.422088    0.000000
   115  O2    c     0.375309    0.327288    0.970132    0.000000
   116  O3    c     0.690458    0.043301    0.313963    0.000000
   117  O2    c     0.951797    0.618111    0.641511    0.000000
   118  O2    c     0.623203    0.662112    0.476517    0.000000
   119  O2    c     0.327083    0.955983    0.809814    0.000000
   120  O2    c     0.049816    0.374860    0.142668    0.000000
   121  O2    c     0.328285    0.365302    0.368001    0.000000
   122  O2    c     0.053986    0.670215    0.037599    0.000000
   123  O2    c     0.618846    0.947158    0.702220    0.000000
   124  O2    c     0.670116    0.629344    0.862908    0.000000
   125  O2    c     0.952520    0.322173    0.533424    0.000000
   126  O2    c     0.386278    0.051549    0.206437    0.000000
   127  O3    c     0.772655    0.289263    0.014261    0.000000
   128  O2    c     0.697343    0.459208    0.350376    0.000000
   129  O2    c     0.527991    0.220098    0.681212    0.000000
   130  O2    c     0.228302    0.690948    0.515819    0.000000
   131  O2    c     0.300776    0.534877    0.847916    0.000000
   132  O2    c     0.476954    0.778000    0.186578    0.000000
   133  O2    c     0.306539    0.766662    0.329986    0.000000
   134  O2    c     0.472835    0.688888    0.993728    0.000000
   135  O2    c     0.223748    0.525515    0.660753    0.000000
   136  O2    c     0.696486    0.230616    0.826528    0.000000
   137  O2    c     0.529387    0.297737    0.494944    0.000000
   138  O3    c     0.776249    0.475306    0.164534    0.000000
   139  O3    c     0.799552    0.543605    0.029358    0.000000
   140  O2    c     0.465206    0.245388    0.365417    0.000000
   141  O2    c     0.744176    0.205145    0.697964    0.000000
   142  O2    c     0.211574    0.459104    0.533258    0.000000
   143  O2    c     0.533840    0.750512    0.865883    0.000000
   144  O2    c     0.267604    0.796202    0.205356    0.000000
   145  O2    c     0.537407    0.787817    0.311822    0.000000
   146  O2    c     0.249092    0.459278    0.974690    0.000000
   147  O2    c     0.211130    0.744296    0.643310    0.000000
   148  O2    c     0.464492    0.215400    0.809124    0.000000
   149  O2    c     0.747006    0.526892    0.476949    0.000000
   150  O3    c     0.792343    0.233238    0.146466    0.000000
   151  O2    c     0.231643    0.322816    0.898840    0.000000
   152  O2    c     0.683454    0.912988    0.239426    0.000000
   153  O2    c     0.088234    0.760660    0.569052    0.000000
   154  O2    c     0.766878    0.670015    0.403558    0.000000
   155  O2    c     0.319127    0.085907    0.736248    0.000000
   156  O2    c     0.913586    0.231857    0.070747    0.000000
   157  O2    c     0.321765    0.223666    0.440233    0.000000
   158  O2    c     0.909713    0.669749    0.106782    0.000000
   159  O2    c     0.765495    0.089336    0.773259    0.000000
   160  O2    c     0.680341    0.765416    0.937905    0.000000
   161  O2    c     0.085410    0.315191    0.606395    0.000000
   162  O2    c     0.244269    0.912924    0.278468    0.000000
   163  O2    c     0.595491    0.553429    0.991172    0.000000
   164  O3    c     0.434160    0.024390    0.339519    0.000000
   165  O2    c     0.964777    0.403288    0.661563    0.000000
   166  O2    c     0.405666    0.432917    0.496014    0.000000
   167  O2    c     0.556697    0.971270    0.829317    0.000000
   168  O2    c     0.031004    0.583642    0.160239    0.000000
   169  O2    c     0.559310    0.580107    0.348020    0.000000
   170  O2    c     0.024019    0.441592    0.018144    0.000000
   171  O2    c     0.405531    0.962179    0.681989    0.000000
   172  O2    c     0.441029    0.419001    0.842083    0.000000
   173  O2    c     0.969836    0.550714    0.513472    0.000000
   174  O2    c     0.595129    0.031351    0.184535    0.000000
   175  O3    c     0.602450    0.187287    0.252651    0.000000
   176  O2    c     0.830649    0.408894    0.586881    0.000000
   177  O2    c     0.582663    0.417169    0.913873    0.000000
   178  O2    c     0.410378    0.829558    0.756196    0.000000
   179  O2    c     0.168048    0.578226    0.089206    0.000000
   180  O2    c     0.414615    0.576314    0.421974    0.000000
   181  F     c     0.482558    0.946729    0.266914    0.000000
   182  F     c     0.091855    0.541253    0.588897    0.000000
   183  F     c     0.452031    0.545489    0.920338    0.000000
   184  F     c     0.544208    0.092067    0.755919    0.000000
   185  F     c     0.866030    0.423333    0.093386    0.000000
   186  F     c     0.542093    0.448742    0.422907    0.000000
   187  O2    s     0.930005    0.999073    0.005188    0.000000
   188  O2    s     0.999654    0.915591    0.340265    0.000000
   189  O2    s     0.068408    0.065341    0.671933    0.000000
   190  O2    s     0.068882    0.990190    0.507619    0.000000
   191  O2    s     0.000436    0.078205    0.838261    0.000000
   192  O2    s     0.936334    0.924784    0.172056    0.000000
   193  O2    s     0.354734    0.580760    0.338961    0.000000
   194  O2    s     0.405668    0.757402    0.672504    0.000000
   195  O2    s     0.241756    0.643150    0.005593    0.000000
   196  O2    s     0.648467    0.416872    0.832202    0.000000
   197  O3    s     0.589056    0.230886    0.168412    0.000000
   198  O2    s     0.762151    0.344302    0.504159    0.000000
   199  O3    s     0.585520    0.346646    0.993681    0.000000
   200  O2    s     0.760718    0.403619    0.669431    0.000000
   201  O3    s     0.650951    0.231113    0.340256    0.000000
   202  O2    s     0.410533    0.640551    0.505489    0.000000
   203  O2    s     0.241862    0.592054    0.173295    0.000000
   204  O2    s     0.350204    0.767215    0.839861    0.000000
   205  O2    s     0.125932    0.210642    0.970894    0.000000
   206  O2    s     0.786645    0.893347    0.310760    0.000000
   207  O2    s     0.088544    0.870024    0.640632    0.000000
   208  O2    s     0.873942    0.774262    0.476315    0.000000
   209  O2    s     0.215354    0.095743    0.807817    0.000000
   210  O2    s     0.924467    0.120122    0.140754    0.000000
   211  O2    s     0.216660    0.112301    0.369054    0.000000
   212  O2    s     0.919836    0.789722    0.035851    0.000000
   213  O2    s     0.871431    0.085203    0.701451    0.000000
   214  O2    s     0.781770    0.879384    0.865905    0.000000
   215  O2    s     0.090846    0.209761    0.534883    0.000000
   216  O2    s     0.134622    0.913573    0.205955    0.000000
   217  O2    s     0.934955    0.857783    0.256233    0.000000
   218  O2    s     0.137348    0.067137    0.589356    0.000000
   219  O2    s     0.924943    0.064381    0.921325    0.000000
   220  O2    s     0.065027    0.134215    0.754329    0.000000
   221  O2    s     0.860066    0.922832    0.088646    0.000000
   222  O2    s     0.065928    0.927134    0.424350    0.000000
   223  O2    s     0.918885    0.204083    0.987184    0.000000
   224  O2    s     0.797526    0.693647    0.320953    0.000000
   225  O2    s     0.289972    0.081563    0.654234    0.000000
   226  O2    s     0.088129    0.788236    0.487483    0.000000
   227  O2    s     0.203723    0.297826    0.817235    0.000000
   228  O2    s     0.716424    0.914077    0.156350    0.000000
   229  O2    s     0.194952    0.893428    0.360687    0.000000
   230  O2    s     0.711974    0.788136    0.020920    0.000000
   231  O2    s     0.084370    0.287029    0.688483    0.000000
   232  O2    s     0.794793    0.092663    0.855470    0.000000
   233  O2    s     0.291183    0.197416    0.522666    0.000000
   234  O2    s     0.924734    0.710739    0.190732    0.000000
   235  O2    s     0.336623    0.663431    0.256920    0.000000
   236  O2    s     0.339870    0.665825    0.588563    0.000000
   237  O2    s     0.330946    0.670262    0.922049    0.000000
   238  O2    s     0.671008    0.337694    0.752221    0.000000
   239  O1    s     0.638406    0.321033    0.083301    0.000000
   240  O2    s     0.666878    0.319723    0.422294    0.000000
   241  O2    s     0.378214    0.337283    0.967757    0.000000
   242  O3    s     0.680770    0.032557    0.311123    0.000000
   243  O2    s     0.958705    0.614952    0.639184    0.000000
   244  O2    s     0.619726    0.651951    0.474176    0.000000
   245  O2    s     0.337074    0.962570    0.807471    0.000000
   246  O2    s     0.044276    0.378392    0.140779    0.000000
   247  O2    s     0.338737    0.369011    0.370205    0.000000
   248  O2    s     0.047437    0.660451    0.039152    0.000000
   249  O2    s     0.615830    0.954206    0.704273    0.000000
   250  O2    s     0.660114    0.625807    0.865193    0.000000
   251  O2    s     0.959307    0.332166    0.535662    0.000000
   252  O2    s     0.387610    0.044222    0.208214    0.000000
   253  O3    s     0.781241    0.296208    0.016739    0.000000
   254  O2    s     0.689988    0.459328    0.353130    0.000000
   255  O2    s     0.528632    0.213216    0.684333    0.000000
   256  O2    s     0.221097    0.683263    0.518829    0.000000
   257  O2    s     0.308673    0.535367    0.850823    0.000000
   258  O2    s     0.475685    0.784011    0.189300    0.000000
   259  O2    s     0.314097    0.772929    0.327474    0.000000
   260  O2    s     0.472096    0.681842    0.990429    0.000000
   261  O2    s     0.216660    0.525958    0.657604    0.000000
   262  O2    s     0.688846    0.223289    0.823337    0.000000
   263  O2    s     0.529813    0.304935    0.491689    0.000000
   264  O3    s     0.786652    0.479325    0.161309    0.000000
   265  O3    s     0.804771    0.543472    0.032142    0.000000
   266  O2    s     0.467007    0.252050    0.368146    0.000000
   267  O2    s     0.736550    0.200329    0.700663    0.000000
   268  O2    s     0.206373    0.461645    0.535785    0.000000
   269  O2    s     0.531130    0.742575    0.868319    0.000000
   270  O2    s     0.274130    0.799528    0.207470    0.000000
   271  O2    s     0.534262    0.791092    0.309748    0.000000
   272  O2    s     0.257738    0.462576    0.972095    0.000000
   273  O2    s     0.205736    0.736128    0.640691    0.000000
   274  O2    s     0.466925    0.209800    0.806474    0.000000
   275  O2    s     0.738905    0.524107    0.474370    0.000000
   276  O3    s     0.801457    0.240905    0.143337    0.000000
   277  O2    s     0.241072    0.332407    0.899816    0.000000
   278  O2    s     0.674875    0.912792    0.239848    0.000000
   279  O2    s     0.088472    0.751373    0.569997    0.000000
   280  O2    s     0.757469    0.660040    0.404469    0.000000
   281  O2    s     0.328750    0.086263    0.737184    0.000000
   282  O2    s     0.913157    0.239810    0.071333    0.000000
   283  O2    s     0.331409    0.233303    0.439439    0.000000
   284  O2    s     0.910482    0.662367    0.105896    0.000000
   285  O2    s     0.755959    0.089235    0.772427    0.000000
   286  O2    s     0.670677    0.756092    0.937094    0.000000
   287  O2    s     0.085829    0.324913    0.605561    0.000000
   288  O2    s     0.252066    0.912606    0.277330    0.000000
   289  O2    s     0.590461    0.554411    0.987900    0.000000
   290  O3    s     0.428853    0.015098    0.335832    0.000000
   291  O2    s     0.970077    0.408085    0.658139    0.000000
   292  O2    s     0.410943    0.432889    0.492622    0.000000
   293  O2    s     0.556943    0.976181    0.825909    0.000000
   294  O2    s     0.028070    0.579764    0.157573    0.000000
   295  O2    s     0.559267    0.575193    0.351430    0.000000
   296  O2    s     0.022074    0.441605    0.020887    0.000000
   297  O2    s     0.410234    0.967185    0.685247    0.000000
   298  O2    s     0.440825    0.422844    0.845533    0.000000
   299  O2    s     0.974480    0.551112    0.516832    0.000000
   300  O2    s     0.592536    0.026735    0.187282    0.000000
   301  O3    s     0.594913    0.174987    0.251149    0.000000
   302  O2    s     0.841786    0.414509    0.586934    0.000000
   303  O2    s     0.577294    0.422774    0.913961    0.000000
   304  O2    s     0.416080    0.840547    0.756135    0.000000
   305  O2    s     0.158330    0.573778    0.089226    0.000000
   306  O2    s     0.420262    0.570530    0.422018    0.000000
   307  F     s     0.488741    0.956705    0.269442    0.000000
   308  F     s     0.092205    0.541499    0.589047    0.000000
   309  F     s     0.451649    0.545517    0.920571    0.000000
   310  F     s     0.544427    0.092596    0.756093    0.000000
   311  F     s     0.856099    0.417259    0.095274    0.000000
   312  F     s     0.541818    0.449130    0.423032    0.000000
--------------------------------------------------------------------------------

  Final Cartesian lattice vectors (Angstroms) :

       11.989942   -0.009422   -0.000525
       -6.082447   10.360420   -0.000017
        0.080034   -0.091286   29.491952


  Final cell parameters and derivatives :

--------------------------------------------------------------------------------
       a           11.989945 Angstrom     dE/de1(xx)     0.004290 eV/strain
       b           12.013928 Angstrom     dE/de2(yy)     0.005473 eV/strain
       c           29.492202 Angstrom     dE/de3(zz)     0.005225 eV/strain
       alpha       90.231736 Degrees      dE/de4(yz)     0.000220 eV/strain
       beta        89.846883 Degrees      dE/de5(xz)     0.000037 eV/strain
       gamma      120.461582 Degrees      dE/de6(xy)    -0.000095 eV/strain
--------------------------------------------------------------------------------

  Primitive cell volume =          3661.824760 Angs**3

  Density of cell =      1.747242 g/cm**3

  Non-primitive cell volume =          3661.824760 Angs**3


  Final internal derivatives :

--------------------------------------------------------------------------------
   No.  Atomic          a             b             c           Radius
        Label          (eV)          (eV)          (eV)        (eV/Angs)
--------------------------------------------------------------------------------
      1 Ge    c       0.000000      0.000000      0.000000      0.000000
      2 Si    c      -0.001839      0.003647      0.006666      0.000000
      3 Si    c      -0.000027     -0.000104     -0.002444      0.000000
      4 Si    c      -0.000072     -0.000006     -0.001101      0.000000
      5 Si    c       0.000820     -0.000363     -0.002599      0.000000
      6 Si    c      -0.000324     -0.000248      0.001455      0.000000
      7 Si    c      -0.000416      0.000843     -0.000410      0.000000
      8 Si    c      -0.000029      0.000289      0.000289      0.000000
      9 Si    c       0.000048     -0.000064     -0.002148      0.000000
     10 Si    c      -0.000072     -0.000638     -0.001070      0.000000
     11 Si    c      -0.000007      0.000174     -0.001819      0.000000
     12 Ge    c       0.001750     -0.000054     -0.002294      0.000000
     13 Si    c       0.001635     -0.002066     -0.001529      0.000000
     14 Ge    c      -0.000057     -0.002309     -0.003615      0.000000
     15 Si    c      -0.000141     -0.000098     -0.002178      0.000000
     16 Si    c       0.000092     -0.000146     -0.001537      0.000000
     17 Si    c       0.000096      0.000082      0.000867      0.000000
     18 Si    c      -0.000107     -0.000266      0.000721      0.000000
     19 Si    c       0.001015     -0.000758      0.003738      0.000000
     20 Si    c       0.000269      0.000104      0.001348      0.000000
     21 Si    c       0.000463      0.000093     -0.003965      0.000000
     22 Si    c      -0.000746      0.000364     -0.000917      0.000000
     23 Si    c       0.000228     -0.000048      0.000361      0.000000
     24 Si    c       0.000143     -0.000877      0.004654      0.000000
     25 Si    c       0.000481     -0.000602     -0.001042      0.000000
     26 Si    c      -0.000088     -0.000051      0.001796      0.000000
     27 Si    c       0.000059      0.000072     -0.000409      0.000000
     28 Si    c      -0.000109      0.000340      0.002690      0.000000
     29 Si    c       0.000039      0.000115     -0.003238      0.000000
     30 Si    c       0.000773     -0.000464      0.001659      0.000000
     31 Si    c       0.000019      0.000141     -0.001486      0.000000
     32 Si    c       0.000067     -0.000300      0.000718      0.000000
     33 Si    c       0.000116     -0.000217     -0.000134      0.000000
     34 Si    c      -0.000240      0.000523      0.000007      0.000000
     35 Si    c       0.000111     -0.000309     -0.001481      0.000000
     36 Si    c      -0.000018     -0.000246      0.000734      0.000000
     37 Si    c       0.000067      0.000007     -0.000167      0.000000
     38 Si    c      -0.000543      0.000182      0.000160      0.000000
     39 Si    c      -0.000006      0.000116     -0.002680      0.000000
     40 Si    c       0.000036     -0.000024     -0.000753      0.000000
     41 Si    c      -0.000127      0.000214      0.000319      0.000000
     42 Si    c       0.000191      0.000046     -0.000244      0.000000
     43 Si    c       0.000548      0.000078      0.001101      0.000000
     44 Si    c       0.000465      0.000645      0.002455      0.000000
     45 Si    c       0.000185     -0.000086     -0.003217      0.000000
     46 Si    c      -0.000355     -0.000180     -0.001174      0.000000
     47 Si    c      -0.000006      0.000070     -0.000112      0.000000
     48 Si    c      -0.000349     -0.000275      0.002835      0.000000
     49 Si    c      -0.000340      0.000112      0.000965      0.000000
     50 Si    c      -0.000032     -0.000178      0.000344      0.000000
     51 Si    c      -0.000169      0.000375     -0.001207      0.000000
     52 Si    c       0.000153     -0.000021     -0.000418      0.000000
     53 Si    c       0.000709     -0.000184      0.001174      0.000000
     54 Si    c      -0.000581     -0.000111      0.000488      0.000000
     55 Si    c      -0.000718      0.000042      0.003994      0.000000
     56 Si    c      -0.000465     -0.000021      0.000534      0.000000
     57 Si    c      -0.000084      0.000212     -0.003182      0.000000
     58 Si    c      -0.000417      0.000122     -0.002039      0.000000
     59 Si    c       0.000135      0.000268     -0.001048      0.000000
     60 Si    c       0.000422     -0.000470     -0.001465      0.000000
     61 O2    c       0.000020      0.000348     -0.001297      0.000000
     62 O2    c      -0.000289      0.001624     -0.000247      0.000000
     63 O2    c       0.000171      0.000137     -0.001844      0.000000
     64 O2    c       0.000107      0.000363      0.000544      0.000000
     65 O2    c      -0.000210     -0.000463     -0.002558      0.000000
     66 O2    c      -0.000397     -0.000114     -0.000078      0.000000
     67 O2    c      -0.000910      0.000257      0.001129      0.000000
     68 O2    c       0.000424      0.000141      0.001875      0.000000
     69 O2    c      -0.000154      0.000257      0.002373      0.000000
     70 O2    c      -0.000358      0.001002     -0.001110      0.000000
     71 O3    c      -0.000696      0.000823     -0.003712      0.000000
     72 O2    c       0.000125     -0.000087     -0.002238      0.000000
     73 O3    c       0.000585     -0.000510      0.001439      0.000000
     74 O2    c      -0.000085      0.000304     -0.003810      0.000000
     75 O3    c       0.003670     -0.002250     -0.006793      0.000000
     76 O2    c      -0.000079      0.000229      0.001141      0.000000
     77 O2    c      -0.000123     -0.000196      0.002333      0.000000
     78 O2    c      -0.000348      0.000233      0.000070      0.000000
     79 O2    c       0.000653      0.000156     -0.000221      0.000000
     80 O2    c      -0.000800      0.000901      0.002377      0.000000
     81 O2    c      -0.000019      0.000172     -0.002594      0.000000
     82 O2    c       0.000133      0.000200     -0.001590      0.000000
     83 O2    c      -0.000123      0.000016      0.001431      0.000000
     84 O2    c      -0.000081      0.000225     -0.000328      0.000000
     85 O2    c       0.000384      0.001585      0.000584      0.000000
     86 O2    c       0.000280     -0.000292     -0.000963      0.000000
     87 O2    c       0.000181      0.000010     -0.000959      0.000000
     88 O2    c       0.000166     -0.000247     -0.000866      0.000000
     89 O2    c       0.000095      0.000107     -0.002378      0.000000
     90 O2    c      -0.000488     -0.000203      0.001525      0.000000
     91 O2    c      -0.000720      0.000354      0.001701      0.000000
     92 O2    c       0.000021     -0.000145      0.001241      0.000000
     93 O2    c       0.000212     -0.000055     -0.001659      0.000000
     94 O2    c      -0.000397      0.000186     -0.003693      0.000000
     95 O2    c      -0.000024     -0.000170     -0.001500      0.000000
     96 O2    c       0.000023      0.000152     -0.000409      0.000000
     97 O2    c      -0.000065      0.000161     -0.000347      0.000000
     98 O2    c       0.000135     -0.000697     -0.001289      0.000000
     99 O2    c       0.000312      0.000089      0.002021      0.000000
    100 O2    c       0.000042      0.000084      0.000188      0.000000
    101 O2    c       0.000019      0.000262     -0.003891      0.000000
    102 O2    c      -0.000327     -0.000076      0.001352      0.000000
    103 O2    c       0.001640     -0.001956     -0.000113      0.000000
    104 O2    c      -0.000104     -0.000004      0.001265      0.000000
    105 O2    c       0.000066      0.000243     -0.004515      0.000000
    106 O2    c       0.000073     -0.000186     -0.001508      0.000000
    107 O2    c      -0.000051      0.000063      0.001944      0.000000
    108 O2    c      -0.000296     -0.000840     -0.001030      0.000000
    109 O2    c      -0.000316     -0.000193      0.000460      0.000000
    110 O2    c       0.000030      0.000208      0.003289      0.000000
    111 O2    c      -0.000606      0.000347      0.004399      0.000000
    112 O2    c      -0.000024      0.000538     -0.002627      0.000000
    113 O1    c      -0.001119     -0.000211     -0.008845      0.000000
    114 O2    c       0.000207      0.000225      0.000672      0.000000
    115 O2    c      -0.000820     -0.000139      0.000476      0.000000
    116 O3    c      -0.000115      0.000020      0.000624      0.000000
    117 O2    c      -0.000046      0.000134     -0.001811      0.000000
    118 O2    c      -0.000043      0.000185     -0.000954      0.000000
    119 O2    c       0.000071     -0.000143      0.000102      0.000000
    120 O2    c       0.000021      0.000088      0.000960      0.000000
    121 O2    c       0.000127      0.000203      0.001917      0.000000
    122 O2    c       0.000131     -0.000108     -0.000197      0.000000
    123 O2    c       0.000033     -0.000061     -0.001849      0.000000
    124 O2    c      -0.000015     -0.000180     -0.000890      0.000000
    125 O2    c       0.000083      0.000072     -0.000298      0.000000
    126 O2    c      -0.000860     -0.000122      0.002480      0.000000
    127 O3    c       0.003644     -0.003848     -0.003934      0.000000
    128 O2    c       0.000110      0.000206      0.001091      0.000000
    129 O2    c       0.000159      0.000322     -0.001736      0.000000
    130 O2    c       0.000103     -0.000064      0.000847      0.000000
    131 O2    c      -0.000234      0.000571     -0.002253      0.000000
    132 O2    c      -0.000185     -0.000111      0.001194      0.000000
    133 O2    c      -0.000005     -0.000211      0.001239      0.000000
    134 O2    c      -0.000128      0.000236      0.001331      0.000000
    135 O2    c       0.000192      0.000109     -0.001117      0.000000
    136 O2    c      -0.000145      0.000125     -0.001974      0.000000
    137 O2    c      -0.000017      0.000054     -0.000992      0.000000
    138 O3    c      -0.000085      0.000471      0.003479      0.000000
    139 O3    c      -0.001116      0.002322     -0.002085      0.000000
    140 O2    c       0.000020     -0.000212      0.001733      0.000000
    141 O2    c      -0.000062      0.000407     -0.002372      0.000000
    142 O2    c       0.000157      0.000107     -0.000992      0.000000
    143 O2    c      -0.000050      0.000057     -0.000129      0.000000
    144 O2    c      -0.000517     -0.000208      0.001133      0.000000
    145 O2    c      -0.000110     -0.000093      0.001152      0.000000
    146 O2    c      -0.000190      0.000246      0.000686      0.000000
    147 O2    c       0.000091      0.000053     -0.001170      0.000000
    148 O2    c      -0.000173      0.000251      0.000108      0.000000
    149 O2    c       0.000063      0.000041     -0.002180      0.000000
    150 O3    c      -0.000100     -0.000733      0.003652      0.000000
    151 O2    c      -0.000081      0.000092     -0.004176      0.000000
    152 O2    c      -0.000225      0.000056      0.000563      0.000000
    153 O2    c      -0.000028      0.000227      0.001681      0.000000
    154 O2    c       0.000047      0.000205     -0.002280      0.000000
    155 O2    c      -0.000497      0.000326      0.002050      0.000000
    156 O2    c      -0.000144     -0.000066      0.000781      0.000000
    157 O2    c       0.000138      0.000083      0.003920      0.000000
    158 O2    c      -0.000036      0.000318     -0.002305      0.000000
    159 O2    c       0.000399     -0.000217      0.001872      0.000000
    160 O2    c       0.000102      0.000013      0.000185      0.000000
    161 O2    c       0.000059     -0.000013     -0.003210      0.000000
    162 O2    c      -0.000482      0.000092     -0.001632      0.000000
    163 O2    c       0.000511      0.001104      0.002518      0.000000
    164 O3    c      -0.000586      0.000911      0.003575      0.000000
    165 O2    c       0.000086     -0.000114     -0.001952      0.000000
    166 O2    c       0.000047      0.000129     -0.001223      0.000000
    167 O2    c      -0.000045     -0.000241      0.000097      0.000000
    168 O2    c      -0.000486      0.000280      0.001427      0.000000
    169 O2    c       0.000027      0.000370      0.002527      0.000000
    170 O2    c       0.000152     -0.000271     -0.000236      0.000000
    171 O2    c       0.000168     -0.000055     -0.000958      0.000000
    172 O2    c       0.000168     -0.000370     -0.002058      0.000000
    173 O2    c      -0.000063      0.000074     -0.001441      0.000000
    174 O2    c       0.000185     -0.000381      0.000669      0.000000
    175 O3    c      -0.000071      0.000068     -0.005539      0.000000
    176 O2    c       0.000002     -0.000068     -0.002136      0.000000
    177 O2    c       0.000122     -0.000208     -0.000272      0.000000
    178 O2    c       0.000012     -0.000622      0.002925      0.000000
    179 O2    c       0.000092      0.000373     -0.000900      0.000000
    180 O2    c       0.000159      0.000161      0.003031      0.000000
    181 F     c      -0.000244      0.000213     -0.000212      0.000000
    182 F     c      -0.000113     -0.000040     -0.000173      0.000000
    183 F     c       0.000519     -0.000612      0.000240      0.000000
    184 F     c       0.000001     -0.000153     -0.000069      0.000000
    185 F     c      -0.001962      0.000398     -0.003875      0.000000
    186 F     c       0.000129      0.000144     -0.000415      0.000000
    187 O2    s      -0.000259      0.000073      0.000234      0.000000
    188 O2    s      -0.000364      0.000585     -0.000733      0.000000
    189 O2    s       0.000252     -0.000194      0.002312      0.000000
    190 O2    s       0.000164      0.000090     -0.000555      0.000000
    191 O2    s       0.000202     -0.000414      0.004005      0.000000
    192 O2    s      -0.000263     -0.000065     -0.001259      0.000000
    193 O2    s       0.000785     -0.000457     -0.002863      0.000000
    194 O2    s      -0.000014      0.000077     -0.001394      0.000000
    195 O2    s      -0.000201      0.000358     -0.003673      0.000000
    196 O2    s       0.000558     -0.000718      0.003710      0.000000
    197 O3    s      -0.000129     -0.000316      0.000848      0.000000
    198 O2    s      -0.000186      0.000202      0.002703      0.000000
    199 O3    s      -0.000039     -0.000036      0.000474      0.000000
    200 O2    s       0.000422      0.000282      0.004883      0.000000
    201 O3    s      -0.002483      0.000592      0.005092      0.000000
    202 O2    s       0.000066      0.000267     -0.000985      0.000000
    203 O2    s       0.000082     -0.000113     -0.003625      0.000000
    204 O2    s      -0.000224     -0.000223     -0.000835      0.000000
    205 O2    s       0.000072      0.000087      0.000325      0.000000
    206 O2    s      -0.000361      0.000357     -0.004154      0.000000
    207 O2    s       0.000144     -0.000097      0.004106      0.000000
    208 O2    s      -0.000076      0.000103      0.002152      0.000000
    209 O2    s       0.000212     -0.000700     -0.001296      0.000000
    210 O2    s      -0.000348      0.000059      0.000091      0.000000
    211 O2    s       0.000171      0.000491     -0.002272      0.000000
    212 O2    s      -0.000144      0.000131      0.000643      0.000000
    213 O2    s       0.000208      0.000016      0.001003      0.000000
    214 O2    s       0.000072     -0.000041      0.000652      0.000000
    215 O2    s       0.000128     -0.000023      0.002849      0.000000
    216 O2    s       0.000177      0.000011     -0.003238      0.000000
    217 O2    s       0.000068     -0.000070      0.000010      0.000000
    218 O2    s       0.000120      0.000036     -0.001079      0.000000
    219 O2    s       0.000138      0.000278      0.000359      0.000000
    220 O2    s       0.000064     -0.000014     -0.000074      0.000000
    221 O2    s      -0.000552      0.000007      0.000316      0.000000
    222 O2    s      -0.000398     -0.000063      0.000562      0.000000
    223 O2    s      -0.000215      0.000380      0.000365      0.000000
    224 O2    s       0.000308     -0.000538      0.001235      0.000000
    225 O2    s       0.000080     -0.000034     -0.002577      0.000000
    226 O2    s       0.000118      0.000015     -0.000409      0.000000
    227 O2    s      -0.000385      0.000187      0.005000      0.000000
    228 O2    s      -0.000728     -0.000103     -0.003097      0.000000
    229 O2    s       0.000241     -0.000519     -0.001620      0.000000
    230 O2    s      -0.000286      0.000199     -0.001601      0.000000
    231 O2    s      -0.000063      0.000507      0.005635      0.000000
    232 O2    s      -0.000163      0.000190      0.002489      0.000000
    233 O2    s       0.000215      0.000016     -0.001981      0.000000
    234 O2    s      -0.000085     -0.000651      0.000870      0.000000
    235 O2    s      -0.000041     -0.000369     -0.000784      0.000000
    236 O2    s       0.000175      0.000079     -0.002740      0.000000
    237 O2    s       0.000260     -0.000417     -0.002796      0.000000
    238 O2    s       0.000398     -0.000066      0.000889      0.000000
    239 O1    s      -0.001329      0.000093      0.007550      0.000000
    240 O2    s       0.000397     -0.000194     -0.000931      0.000000
    241 O2    s       0.000402      0.000471     -0.000662      0.000000
    242 O3    s      -0.000086      0.000058     -0.000858      0.000000
    243 O2    s       0.000070      0.000117      0.002939      0.000000
    244 O2    s       0.000201      0.000252      0.001600      0.000000
    245 O2    s       0.000044     -0.000333     -0.000236      0.000000
    246 O2    s       0.000184     -0.000143     -0.001833      0.000000
    247 O2    s       0.000019     -0.000126     -0.003702      0.000000
    248 O2    s      -0.000215      0.000270     -0.001474      0.000000
    249 O2    s       0.000016     -0.000037      0.002334      0.000000
    250 O2    s       0.000467     -0.000321      0.000459      0.000000
    251 O2    s      -0.000089      0.000142     -0.000082      0.000000
    252 O2    s      -0.000218     -0.000184     -0.005373      0.000000
    253 O3    s      -0.002391      0.002954      0.000113      0.000000
    254 O2    s       0.000144      0.000251     -0.002905      0.000000
    255 O2    s      -0.000005      0.000039      0.001950      0.000000
    256 O2    s       0.000097      0.000069     -0.001535      0.000000
    257 O2    s      -0.000261     -0.000112      0.003221      0.000000
    258 O2    s      -0.000294     -0.000185     -0.002796      0.000000
    259 O2    s      -0.000136      0.000194     -0.002116      0.000000
    260 O2    s      -0.000043      0.000127     -0.001655      0.000000
    261 O2    s      -0.000076      0.000127      0.001863      0.000000
    262 O2    s       0.000210     -0.000237      0.003411      0.000000
    263 O2    s       0.000156      0.000046      0.001740      0.000000
    264 O3    s      -0.000377     -0.000334     -0.003430      0.000000
    265 O3    s      -0.000110     -0.001943     -0.000176      0.000000
    266 O2    s       0.000467      0.000575     -0.003415      0.000000
    267 O2    s       0.000272      0.000203      0.002689      0.000000
    268 O2    s       0.000115      0.000181      0.000894      0.000000
    269 O2    s      -0.000247      0.000229      0.000050      0.000000
    270 O2    s      -0.000393     -0.000141     -0.002644      0.000000
    271 O2    s      -0.000250     -0.000112     -0.002115      0.000000
    272 O2    s      -0.000070     -0.000033     -0.000882      0.000000
    273 O2    s      -0.000071      0.000107      0.002101      0.000000
    274 O2    s       0.000024     -0.000479      0.000510      0.000000
    275 O2    s       0.000160      0.000269      0.003118      0.000000
    276 O3    s      -0.000610      0.001046     -0.004097      0.000000
    277 O2    s      -0.000471     -0.000340      0.003671      0.000000
    278 O2    s       0.000202     -0.000358     -0.000640      0.000000
    279 O2    s       0.000034      0.000065     -0.001556      0.000000
    280 O2    s       0.000344     -0.000085      0.000395      0.000000
    281 O2    s       0.000232     -0.000354     -0.001573      0.000000
    282 O2    s       0.000063     -0.000431     -0.001366      0.000000
    283 O2    s      -0.000021      0.000157     -0.003614      0.000000
    284 O2    s      -0.000367      0.000466      0.002056      0.000000
    285 O2    s      -0.000124     -0.000016     -0.001326      0.000000
    286 O2    s      -0.000034      0.000207      0.000594      0.000000
    287 O2    s       0.000172     -0.000060      0.002319      0.000000
    288 O2    s      -0.000378     -0.000315      0.001212      0.000000
    289 O2    s      -0.001337     -0.000228     -0.001904      0.000000
    290 O3    s       0.000535     -0.000726     -0.005651      0.000000
    291 O2    s      -0.000004      0.000233      0.003246      0.000000
    292 O2    s       0.000147      0.000148      0.001834      0.000000
    293 O2    s      -0.000110     -0.000081     -0.000103      0.000000
    294 O2    s       0.000104      0.000047     -0.001931      0.000000
    295 O2    s       0.000165      0.000081     -0.004563      0.000000
    296 O2    s      -0.000252      0.000086     -0.001292      0.000000
    297 O2    s      -0.000007     -0.000156      0.001405      0.000000
    298 O2    s       0.000010     -0.000609      0.001381      0.000000
    299 O2    s      -0.000136      0.000148      0.001248      0.000000
    300 O2    s      -0.001075      0.000306     -0.002460      0.000000
    301 O3    s      -0.001094      0.000346      0.003964      0.000000
    302 O2    s      -0.000200     -0.000017      0.000986      0.000000
    303 O2    s      -0.000349      0.000180      0.001465      0.000000
    304 O2    s      -0.000128      0.000378     -0.002409      0.000000
    305 O2    s       0.000369      0.000096      0.000633      0.000000
    306 O2    s      -0.000099      0.000428     -0.002675      0.000000
    307 F     s      -0.000001     -0.000107      0.001579      0.000000
    308 F     s       0.000001     -0.000017     -0.000154      0.000000
    309 F     s      -0.001120      0.001153     -0.000566      0.000000
    310 F     s      -0.000009     -0.000064     -0.000444      0.000000
    311 F     s       0.002005     -0.000468      0.006256      0.000000
    312 F     s       0.000005      0.000168      0.000273      0.000000
--------------------------------------------------------------------------------
  Maximum abs         0.003670      0.003848      0.008845      0.000000
--------------------------------------------------------------------------------


  Time to end of optimisation =      41.4528 seconds


  Peak dynamic memory used =      19.13 MB 


  Timing analysis for GULP :

--------------------------------------------------------------------------------
  Task / Subroutine                                          Time (Seconds)
--------------------------------------------------------------------------------
  Calculation of reciprocal space energy and derivatives          1.2011
  Calculation of real space energy and derivatives               35.7471
  Calculation of three-body energy and derivatives                3.6750
  Calculation of matrix inversion                                 0.7437
--------------------------------------------------------------------------------
  Total CPU time                                                 41.4529
--------------------------------------------------------------------------------


  Dump file written as out.res                                                 
  CIF file written as out.cif                                                 


  Job Finished at 00:17.27 28th October    2016                               

