********************************************************************************
*                       GENERAL UTILITY LATTICE PROGRAM                        *
*                                 Julian Gale                                  *
*                      Nanochemistry Research Institute                        *
*                           Department of Chemistry                            *
*                    Curtin University, Western Australia                      *
********************************************************************************
* Version = 4.2.0 * Last modified =  20th January 2014                         *
********************************************************************************
*  optimise     - perform optimisation run                                     *
*  conp         - constant pressure calculation                                *
*  qok          - running with non charge neutral cell is OK                   *
*  rfo          - optimisation step to be determined by RFO method             *
********************************************************************************

  Job Started  at 20:36.38  5th December   2016                               

  Number of CPUs =     1


  Total number of configurations input =   1

********************************************************************************
*  Input for Configuration =   1                                               *
********************************************************************************

  Formula = Ge4Si56O120F6                                               

  Number of irreducible atoms/shells =     312


  Total number atoms/shells =     312

  Dimensionality = 3               :  Bulk   


  Charge on solid   =  -6.000000 =>neutralising background added


  Cartesian lattice vectors (Angstroms) :

       11.981114    0.000000    0.000000
       -6.047948   10.369135    0.000000
        0.040365   -0.206079   29.509715

  Cell parameters (Angstroms/Degrees):

  a =      11.9811    alpha =  90.3851
  b =      12.0040    beta  =  89.9216
  c =      29.5105    gamma = 120.2535

  Initial cell volume =        3666.103696 Angs**3

  Temperature of configuration =  0.000     K 

  Pressure of configuration =         0.000 GPa 

  Fractional coordinates of asymmetric unit :

--------------------------------------------------------------------------------
   No.  Atomic       x           y          z         Charge      Occupancy
        Label      (Frac)      (Frac)     (Frac)        (e)         (Frac)  
--------------------------------------------------------------------------------
      1 Ge    c    0.699600    0.375700    0.033890     4.00000    1.000000    
      2 Si    c    0.623757 *  0.320020 *  0.368620 *   4.00000    1.000000    
      3 Si    c    0.680105 *  0.299482 *  0.700423 *   4.00000    1.000000    
      4 Si    c    0.297566 *  0.620448 *  0.532659 *   4.00000    1.000000    
      5 Si    c    0.385905 *  0.679960 *  0.863271 *   4.00000    1.000000    
      6 Si    c    0.321744 *  0.696721 *  0.203208 *   4.00000    1.000000    
      7 Si    c    0.380914 *  0.697277 *  0.303045 *   4.00000    1.000000    
      8 Si    c    0.335384 *  0.635622 *  0.963910 *   4.00000    1.000000    
      9 Si    c    0.300755 *  0.678278 *  0.632976 *   4.00000    1.000000    
     10 Si    c    0.623878 *  0.296330 *  0.800942 *   4.00000    1.000000    
     11 Si    c    0.677137 *  0.377077 *  0.469177 *   4.00000    1.000000    
     12 Si    c    0.696887 *  0.317494 *  0.136556 *   4.00000    1.000000    
     13 Si    c    0.525168 *  0.418024 *  0.968073 *   4.00000    1.000000    
     14 Si    c    0.587740 *  0.108349 *  0.304698 *   4.00000    1.000000    
     15 Si    c    0.890024 *  0.471020 *  0.635393 *   4.00000    1.000000    
     16 Si    c    0.469850 *  0.580333 *  0.468485 *   4.00000    1.000000    
     17 Si    c    0.419904 *  0.887724 *  0.798640 *   4.00000    1.000000    
     18 Si    c    0.120460 *  0.529491 *  0.133871 *   4.00000    1.000000    
     19 Si    c    0.419323 *  0.524949 *  0.366982 *   4.00000    1.000000    
     20 Ge    c    0.119610 *  0.579259 *  0.029375 *   4.00000    1.000000    
     21 Si    c    0.473882 *  0.890543 *  0.697287 *   4.00000    1.000000    
     22 Si    c    0.582327 *  0.466775 *  0.866351 *   4.00000    1.000000    
     23 Si    c    0.888247 *  0.416722 *  0.533832 *   4.00000    1.000000    
     24 Si    c    0.533594 *  0.108806 *  0.203518 *   4.00000    1.000000    
     25 Si    c    0.302526 *  0.399553 *  0.851251 *   4.00000    1.000000    
     26 Si    c    0.600073 *  0.897865 *  0.187215 *   4.00000    1.000000    
     27 Si    c    0.096732 *  0.697133 *  0.518766 *   4.00000    1.000000    
     28 Si    c    0.699978 *  0.596989 *  0.353439 *   4.00000    1.000000    
     29 Si    c    0.401846 *  0.098278 *  0.684155 *   4.00000    1.000000    
     30 Ge    c    0.897334 *  0.295337 *  0.020357 *   4.00000    1.000000    
     31 Si    c    0.398410 *  0.300204 *  0.482849 *   4.00000    1.000000    
     32 Si    c    0.905198 *  0.600180 *  0.147904 *   4.00000    1.000000    
     33 Si    c    0.701649 *  0.095796 *  0.814477 *   4.00000    1.000000    
     34 Si    c    0.609739 *  0.703338 *  0.979921 *   4.00000    1.000000    
     35 Si    c    0.099867 *  0.400293 *  0.648426 *   4.00000    1.000000    
     36 Si    c    0.306293 *  0.899493 *  0.319339 *   4.00000    1.000000    
     37 Si    c    0.247607 *  0.349483 *  0.951934 *   4.00000    1.000000    
     38 Si    c    0.663302 *  0.906716 *  0.287388 *   4.00000    1.000000    
     39 Si    c    0.091605 *  0.749864 *  0.619356 *   4.00000    1.000000    
     40 Si    c    0.748943 *  0.657312 *  0.453942 *   4.00000    1.000000    
     41 Si    c    0.342120 *  0.088006 *  0.784604 *   4.00000    1.000000    
     42 Si    c    0.911512 *  0.246022 *  0.121218 *   4.00000    1.000000    
     43 Si    c    0.342273 *  0.247253 *  0.382242 *   4.00000    1.000000    
     44 Si    c    0.915093 *  0.662483 *  0.045616 *   4.00000    1.000000    
     45 Si    c    0.752809 *  0.091679 *  0.713714 *   4.00000    1.000000    
     46 Si    c    0.665101 *  0.747959 *  0.879217 *   4.00000    1.000000    
     47 Si    c    0.089389 *  0.339542 *  0.547876 *   4.00000    1.000000    
     48 Si    c    0.254957 *  0.907338 *  0.219079 *   4.00000    1.000000    
     49 Si    c    0.968978 *  0.120070 *  0.965541 *   4.00000    1.000000    
     50 Si    c    0.879905 *  0.843339 *  0.302317 *   4.00000    1.000000    
     51 Si    c    0.153268 *  0.029778 *  0.633862 *   4.00000    1.000000    
     52 Si    c    0.028760 *  0.876288 *  0.468397 *   4.00000    1.000000    
     53 Si    c    0.124968 *  0.150831 *  0.799264 *   4.00000    1.000000    
     54 Ge    c    0.850293 *  0.967991 *  0.135534 *   4.00000    1.000000    
     55 Si    c    0.123762 *  0.966717 *  0.367757 *   4.00000    1.000000    
     56 Si    c    0.859317 *  0.883920 *  0.030764 *   4.00000    1.000000    
     57 Si    c    0.032868 *  0.153294 *  0.698534 *   4.00000    1.000000    
     58 Si    c    0.882430 *  0.027259 *  0.864224 *   4.00000    1.000000    
     59 Si    c    0.150211 *  0.120912 *  0.533288 *   4.00000    1.000000    
     60 Si    c    0.976144 *  0.845769 *  0.201552 *   4.00000    1.000000    
     61 O2    c    0.942428 *  0.998125 *  0.996184 *   0.87073    1.000000    
     62 O2    c    0.004574 *  0.924177 *  0.333737 *   0.87073    1.000000    
     63 O2    c    0.073014 *  0.072223 *  0.665849 *   0.87073    1.000000    
     64 O2    c    0.070584 *  0.999355 *  0.500340 *   0.87073    1.000000    
     65 O2    c    0.001061 *  0.068205 *  0.830288 *   0.87073    1.000000    
     66 O3    c    0.941649 *  0.925303 *  0.167775 *   1.33043    1.000000    
     67 O2    c    0.342818 *  0.573752 *  0.334802 *   0.87073    1.000000    
     68 O2    c    0.425793 *  0.765035 *  0.664716 *   0.87073    1.000000    
     69 O3    c    0.254399 *  0.675961 *  0.996378 *   1.33043    1.000000    
     70 O2    c    0.659772 *  0.416970 *  0.834701 *   0.87073    1.000000    
     71 O2    c    0.581891 *  0.235840 *  0.172378 *   0.87073    1.000000    
     72 O2    c    0.761090 *  0.339148 *  0.501930 *   0.87073    1.000000    
     73 O3    c    0.563112 *  0.339821 *  0.001549 *   1.33043    1.000000    
     74 O2    c    0.765769 *  0.423303 *  0.668260 *   0.87073    1.000000    
     75 O2    c    0.664171 *  0.234647 *  0.336970 *   0.87073    1.000000    
     76 O2    c    0.420688 *  0.658062 *  0.500018 *   0.87073    1.000000    
     77 O2    c    0.236915 *  0.574125 *  0.170166 *   0.87073    1.000000    
     78 O2    c    0.345223 *  0.761120 *  0.830160 *   0.87073    1.000000    
     79 O2    c    0.120841 *  0.226971 *  0.972803 *   0.87073    1.000000    
     80 O2    c    0.789452 *  0.906930 *  0.307532 *   0.87073    1.000000    
     81 O2    c    0.091290 *  0.875920 *  0.639464 *   0.87073    1.000000    
     82 O2    c    0.874559 *  0.784679 *  0.474148 *   0.87073    1.000000    
     83 O2    c    0.215727 *  0.087775 *  0.804495 *   0.87073    1.000000    
     84 O3    c    0.910680 *  0.129175 *  0.147547 *   1.33043    1.000000    
     85 O2    c    0.215520 *  0.120587 *  0.362061 *   0.87073    1.000000    
     86 O2    c    0.922673 *  0.793621 *  0.028702 *   0.87073    1.000000    
     87 O2    c    0.878628 *  0.091355 *  0.693402 *   0.87073    1.000000    
     88 O2    c    0.792068 *  0.872706 *  0.858778 *   0.87073    1.000000    
     89 O2    c    0.087618 *  0.212005 *  0.528070 *   0.87073    1.000000    
     90 O2    c    0.130702 *  0.909635 *  0.199152 *   0.87073    1.000000    
     91 O2    c    0.927387 *  0.852924 *  0.251247 *   0.87073    1.000000    
     92 O2    c    0.137664 *  0.067019 *  0.583358 *   0.87073    1.000000    
     93 O2    c    0.940874 *  0.069796 *  0.913868 *   0.87073    1.000000    
     94 O2    c    0.074735 *  0.140783 *  0.748539 *   0.87073    1.000000    
     95 O3    c    0.871865 *  0.941557 *  0.080392 *   1.33043    1.000000    
     96 O2    c    0.066618 *  0.927480 *  0.417668 *   0.87073    1.000000    
     97 O3    c    0.883694 *  0.178735 *  0.979930 *   1.33043    1.000000    
     98 O2    c    0.798499 *  0.692634 *  0.315057 *   0.87073    1.000000    
     99 O2    c    0.305390 *  0.100670 *  0.645835 *   0.87073    1.000000    
    100 O2    c    0.098400 *  0.795011 *  0.480526 *   0.87073    1.000000    
    101 O2    c    0.205402 *  0.301478 *  0.812725 *   0.87073    1.000000    
    102 O3    c    0.687849 *  0.888128 *  0.147988 *   1.33043    1.000000    
    103 O2    c    0.207611 *  0.897902 *  0.357500 *   0.87073    1.000000    
    104 O2    c    0.707113 *  0.800396 *  0.018583 *   0.87073    1.000000    
    105 O2    c    0.103031 *  0.304779 *  0.686466 *   0.87073    1.000000    
    106 O2    c    0.798506 *  0.095225 *  0.852772 *   0.87073    1.000000    
    107 O2    c    0.301891 *  0.203171 *  0.521182 *   0.87073    1.000000    
    108 O2    c    0.907516 *  0.695063 *  0.187328 *   0.87073    1.000000    
    109 O2    c    0.321532 *  0.639164 *  0.253026 *   0.87073    1.000000    
    110 O2    c    0.356942 *  0.678589 *  0.582586 *   0.87073    1.000000    
    111 O2    c    0.331492 *  0.686937 *  0.913210 *   0.87073    1.000000    
    112 O2    c    0.681169 *  0.355835 *  0.751003 *   0.87073    1.000000    
    113 O3    c    0.637512 *  0.317469 *  0.088258 *   1.33043    1.000000    
    114 O2    c    0.679190 *  0.320412 *  0.418997 *   0.87073    1.000000    
    115 O2    c    0.368150 *  0.336584 *  0.969610 *   0.87073    1.000000    
    116 O2    c    0.674595 *  0.039195 *  0.306470 *   0.87073    1.000000    
    117 O2    c    0.959474 *  0.627394 *  0.637856 *   0.87073    1.000000    
    118 O2    c    0.626376 *  0.667626 *  0.471654 *   0.87073    1.000000    
    119 O2    c    0.331601 *  0.955241 *  0.802226 *   0.87073    1.000000    
    120 O2    c    0.045022 *  0.373983 *  0.135825 *   0.87073    1.000000    
    121 O2    c    0.332156 *  0.368632 *  0.363437 *   0.87073    1.000000    
    122 O3    c    0.047184 *  0.673937 *  0.029564 *   1.33043    1.000000    
    123 O2    c    0.630375 *  0.959764 *  0.694556 *   0.87073    1.000000    
    124 O2    c    0.670989 *  0.622708 *  0.861804 *   0.87073    1.000000    
    125 O2    c    0.956486 *  0.329239 *  0.529976 *   0.87073    1.000000    
    126 O2    c    0.377194 *  0.038835 *  0.200175 *   0.87073    1.000000    
    127 O1    c    0.750808 *  0.282733 *  0.007293 *   1.73396    1.000000    
    128 O2    c    0.699072 *  0.462619 *  0.345956 *   0.87073    1.000000    
    129 O2    c    0.536943 *  0.232397 *  0.677572 *   0.87073    1.000000    
    130 O2    c    0.229625 *  0.695352 *  0.510431 *   0.87073    1.000000    
    131 O2    c    0.309136 *  0.535413 *  0.841551 *   0.87073    1.000000    
    132 O2    c    0.463756 *  0.765332 *  0.180371 *   0.87073    1.000000    
    133 O2    c    0.306985 *  0.765964 *  0.325882 *   0.87073    1.000000    
    134 O2    c    0.478926 *  0.709586 *  0.986543 *   0.87073    1.000000    
    135 O2    c    0.233716 *  0.535549 *  0.655370 *   0.87073    1.000000    
    136 O2    c    0.699920 *  0.228744 *  0.822548 *   0.87073    1.000000    
    137 O2    c    0.532887 *  0.301833 *  0.490764 *   0.87073    1.000000    
    138 O2    c    0.774019 *  0.464916 *  0.155697 *   0.87073    1.000000    
    139 O3    c    0.789444 *  0.541913 *  0.024880 *   1.33043    1.000000    
    140 O2    c    0.467433 *  0.245079 *  0.362998 *   0.87073    1.000000    
    141 O2    c    0.754828 *  0.218653 *  0.694959 *   0.87073    1.000000    
    142 O2    c    0.215556 *  0.464168 *  0.527764 *   0.87073    1.000000    
    143 O2    c    0.542143 *  0.752129 *  0.858897 *   0.87073    1.000000    
    144 O2    c    0.247251 *  0.777852 *  0.199335 *   0.87073    1.000000    
    145 O2    c    0.537430 *  0.780112 *  0.306529 *   0.87073    1.000000    
    146 O2    c    0.253902 *  0.479066 *  0.971244 *   0.87073    1.000000    
    147 O2    c    0.218492 *  0.751557 *  0.638396 *   0.87073    1.000000    
    148 O2    c    0.467571 *  0.213564 *  0.804895 *   0.87073    1.000000    
    149 O2    c    0.749936 *  0.533060 *  0.473810 *   0.87073    1.000000    
    150 O2    c    0.786210 *  0.252567 *  0.137742 *   0.87073    1.000000    
    151 O2    c    0.227740 *  0.331308 *  0.897542 *   0.87073    1.000000    
    152 O2    c    0.679727 *  0.904992 *  0.232907 *   0.87073    1.000000    
    153 O2    c    0.093398 *  0.768306 *  0.565089 *   0.87073    1.000000    
    154 O2    c    0.769903 *  0.673262 *  0.399711 *   0.87073    1.000000    
    155 O2    c    0.325664 *  0.091250 *  0.730352 *   0.87073    1.000000    
    156 O3    c    0.906168 *  0.213514 *  0.068548 *   1.33043    1.000000    
    157 O2    c    0.323998 *  0.228792 *  0.436422 *   0.87073    1.000000    
    158 O2    c    0.901896 *  0.663861 *  0.100632 *   0.87073    1.000000    
    159 O2    c    0.771780 *  0.092809 *  0.767916 *   0.87073    1.000000    
    160 O2    c    0.685370 *  0.769696 *  0.933390 *   0.87073    1.000000    
    161 O2    c    0.093384 *  0.324341 *  0.602055 *   0.87073    1.000000    
    162 O2    c    0.236660 *  0.906037 *  0.273286 *   0.87073    1.000000    
    163 O2    c    0.588708 *  0.562340 *  0.990083 *   0.87073    1.000000    
    164 O2    c    0.447119 *  0.023571 *  0.328172 *   0.87073    1.000000    
    165 O2    c    0.975097 *  0.414760 *  0.657734 *   0.87073    1.000000    
    166 O2    c    0.412439 *  0.439510 *  0.491395 *   0.87073    1.000000    
    167 O2    c    0.560928 *  0.971177 *  0.822197 *   0.87073    1.000000    
    168 O2    c    0.029739 *  0.584497 *  0.151770 *   0.87073    1.000000    
    169 O2    c    0.560940 *  0.583270 *  0.343988 *   0.87073    1.000000    
    170 O1    c    0.036520 *  0.432566 *  0.003348 *   1.73396    1.000000    
    171 O2    c    0.416326 *  0.973766 *  0.674269 *   0.87073    1.000000    
    172 O2    c    0.440026 *  0.407886 *  0.843884 *   0.87073    1.000000    
    173 O2    c    0.970415 *  0.557375 *  0.510319 *   0.87073    1.000000    
    174 O2    c    0.591008 *  0.026435 *  0.179191 *   0.87073    1.000000    
    175 O2    c    0.587170 *  0.161771 *  0.254237 *   0.87073    1.000000    
    176 O2    c    0.835769 *  0.416639 *  0.584681 *   0.87073    1.000000    
    177 O2    c    0.581136 *  0.417326 *  0.917502 *   0.87073    1.000000    
    178 O2    c    0.419469 *  0.835811 *  0.747603 *   0.87073    1.000000    
    179 O3    c    0.175449 *  0.578227 *  0.084354 *   1.33043    1.000000    
    180 O2    c    0.417840 *  0.578711 *  0.417493 *   0.87073    1.000000    
    181 F     c    0.454874 *  0.900680 *  0.252392 *   0.56000    1.000000    
    182 F     c    0.097984 *  0.548311 *  0.582980 *   0.56000    1.000000    
    183 F     c    0.454163 *  0.554661 *  0.915621 *   0.56000    1.000000    
    184 F     c    0.550571 *  0.096604 *  0.748688 *   0.56000    1.000000    
    185 F     c    0.898129 *  0.429489 *  0.069570 *   0.56000    1.000000    
    186 F     c    0.548641 *  0.448608 *  0.417400 *   0.56000    1.000000    
    187 O2    s    0.935965 *  0.998274 *  0.996814 *  -2.87073    1.000000    
    188 O2    s    0.003855 *  0.919845 *  0.334007 *  -2.87073    1.000000    
    189 O2    s    0.077544 *  0.076500 *  0.665908 *  -2.87073    1.000000    
    190 O2    s    0.074782 *  0.999105 *  0.500433 *  -2.87073    1.000000    
    191 O2    s    0.001832 *  0.072988 *  0.830571 *  -2.87073    1.000000    
    192 O3    s    0.937568 *  0.920300 *  0.168690 *  -3.33043    1.000000    
    193 O2    s    0.354636 *  0.581615 *  0.334784 *  -2.87073    1.000000    
    194 O2    s    0.417764 *  0.768941 *  0.664761 *  -2.87073    1.000000    
    195 O3    s    0.252031 *  0.664647 *  0.995719 *  -3.33043    1.000000    
    196 O2    s    0.648154 *  0.409575 *  0.834440 *  -2.87073    1.000000    
    197 O2    s    0.588823 *  0.231243 *  0.171856 *  -2.87073    1.000000    
    198 O2    s    0.765403 *  0.351046 *  0.501785 *  -2.87073    1.000000    
    199 O3    s    0.569394 *  0.350579 *  0.000520 *  -3.33043    1.000000    
    200 O2    s    0.769873 *  0.415613 *  0.668154 *  -2.87073    1.000000    
    201 O2    s    0.652158 *  0.230273 *  0.336864 *  -2.87073    1.000000    
    202 O2    s    0.413180 *  0.646132 *  0.500088 *  -2.87073    1.000000    
    203 O2    s    0.233647 *  0.582206 *  0.169827 *  -2.87073    1.000000    
    204 O2    s    0.357174 *  0.765976 *  0.830286 *  -2.87073    1.000000    
    205 O2    s    0.118811 *  0.229073 *  0.969895 *  -2.87073    1.000000    
    206 O2    s    0.785999 *  0.900191 *  0.304923 *  -2.87073    1.000000    
    207 O2    s    0.097881 *  0.879172 *  0.636820 *  -2.87073    1.000000    
    208 O2    s    0.877911 *  0.781189 *  0.471462 *  -2.87073    1.000000    
    209 O2    s    0.219236 *  0.094464 *  0.801903 *  -2.87073    1.000000    
    210 O3    s    0.905918 *  0.127581 *  0.144029 *  -3.33043    1.000000    
    211 O2    s    0.218849 *  0.117294 *  0.364723 *  -2.87073    1.000000    
    212 O2    s    0.914953 *  0.789432 *  0.030721 *  -2.87073    1.000000    
    213 O2    s    0.882047 *  0.097990 *  0.696021 *  -2.87073    1.000000    
    214 O2    s    0.788483 *  0.876117 *  0.861437 *  -2.87073    1.000000    
    215 O2    s    0.094415 *  0.215457 *  0.530631 *  -2.87073    1.000000    
    216 O2    s    0.127252 *  0.902503 *  0.201510 *  -2.87073    1.000000    
    217 O2    s    0.927528 *  0.851042 *  0.251429 *  -2.87073    1.000000    
    218 O2    s    0.140863 *  0.068977 *  0.583348 *  -2.87073    1.000000    
    219 O2    s    0.937220 *  0.070352 *  0.913773 *  -2.87073    1.000000    
    220 O2    s    0.075634 *  0.143352 *  0.748560 *  -2.87073    1.000000    
    221 O3    s    0.868630 *  0.937863 *  0.080126 *  -3.33043    1.000000    
    222 O2    s    0.068869 *  0.926200 *  0.417692 *  -2.87073    1.000000    
    223 O3    s    0.894065 *  0.180290 *  0.981140 *  -3.33043    1.000000    
    224 O2    s    0.797149 *  0.698984 *  0.317612 *  -2.87073    1.000000    
    225 O2    s    0.299032 *  0.092922 *  0.648439 *  -2.87073    1.000000    
    226 O2    s    0.090819 *  0.793712 *  0.483114 *  -2.87073    1.000000    
    227 O2    s    0.206733 *  0.295362 *  0.815234 *  -2.87073    1.000000    
    228 O3    s    0.692599 *  0.895566 *  0.150781 *  -3.33043    1.000000    
    229 O2    s    0.208924 *  0.905280 *  0.354671 *  -2.87073    1.000000    
    230 O2    s    0.713078 *  0.799221 *  0.015916 *  -2.87073    1.000000    
    231 O2    s    0.095288 *  0.298566 *  0.683840 *  -2.87073    1.000000    
    232 O2    s    0.797291 *  0.088218 *  0.850030 *  -2.87073    1.000000    
    233 O2    s    0.295708 *  0.204448 *  0.518512 *  -2.87073    1.000000    
    234 O2    s    0.914456 *  0.700776 *  0.184632 *  -2.87073    1.000000    
    235 O2    s    0.327609 *  0.651023 *  0.252990 *  -2.87073    1.000000    
    236 O2    s    0.345057 *  0.672549 *  0.582595 *  -2.87073    1.000000    
    237 O2    s    0.337466 *  0.680985 *  0.913253 *  -2.87073    1.000000    
    238 O2    s    0.675269 *  0.344083 *  0.750902 *  -2.87073    1.000000    
    239 O3    s    0.648067 *  0.321735 *  0.089139 *  -3.33043    1.000000    
    240 O2    s    0.673270 *  0.326180 *  0.418931 *  -2.87073    1.000000    
    241 O2    s    0.371440 *  0.346352 *  0.967547 *  -2.87073    1.000000    
    242 O2    s    0.664497 *  0.032534 *  0.304292 *  -2.87073    1.000000    
    243 O2    s    0.966175 *  0.624150 *  0.635655 *  -2.87073    1.000000    
    244 O2    s    0.623118 *  0.657541 *  0.469455 *  -2.87073    1.000000    
    245 O2    s    0.341726 *  0.962148 *  0.800018 *  -2.87073    1.000000    
    246 O2    s    0.039068 *  0.377105 *  0.134075 *  -2.87073    1.000000    
    247 O2    s    0.342175 *  0.372063 *  0.365765 *  -2.87073    1.000000    
    248 O3    s    0.039163 *  0.665356 *  0.031228 *  -3.33043    1.000000    
    249 O2    s    0.627075 *  0.966463 *  0.696855 *  -2.87073    1.000000    
    250 O2    s    0.661303 *  0.619916 *  0.864106 *  -2.87073    1.000000    
    251 O2    s    0.963358 *  0.339291 *  0.532247 *  -2.87073    1.000000    
    252 O2    s    0.380562 *  0.032267 *  0.202511 *  -2.87073    1.000000    
    253 O1    s    0.757627 *  0.290914 *  0.010366 *  -3.73396    1.000000    
    254 O2    s    0.691443 *  0.462093 *  0.349089 *  -2.87073    1.000000    
    255 O2    s    0.537411 *  0.225181 *  0.680636 *  -2.87073    1.000000    
    256 O2    s    0.222660 *  0.687844 *  0.513609 *  -2.87073    1.000000    
    257 O2    s    0.316338 *  0.535962 *  0.844832 *  -2.87073    1.000000    
    258 O2    s    0.463198 *  0.772139 *  0.183544 *  -2.87073    1.000000    
    259 O2    s    0.314514 *  0.772966 *  0.322819 *  -2.87073    1.000000    
    260 O2    s    0.478115 *  0.701385 *  0.983494 *  -2.87073    1.000000    
    261 O2    s    0.226500 *  0.535968 *  0.652303 *  -2.87073    1.000000    
    262 O2    s    0.692336 *  0.221808 *  0.819467 *  -2.87073    1.000000    
    263 O2    s    0.533587 *  0.309444 *  0.487665 *  -2.87073    1.000000    
    264 O2    s    0.780242 *  0.464425 *  0.152906 *  -2.87073    1.000000    
    265 O3    s    0.795632 *  0.541465 *  0.027684 *  -3.33043    1.000000    
    266 O2    s    0.470185 *  0.253175 *  0.365613 *  -2.87073    1.000000    
    267 O2    s    0.746738 *  0.213251 *  0.697525 *  -2.87073    1.000000    
    268 O2    s    0.210351 *  0.466924 *  0.530407 *  -2.87073    1.000000    
    269 O2    s    0.539010 *  0.744032 *  0.861513 *  -2.87073    1.000000    
    270 O2    s    0.255935 *  0.783357 *  0.201840 *  -2.87073    1.000000    
    271 O2    s    0.534664 *  0.785244 *  0.304109 *  -2.87073    1.000000    
    272 O2    s    0.261334 *  0.480892 *  0.968565 *  -2.87073    1.000000    
    273 O2    s    0.213156 *  0.743643 *  0.635795 *  -2.87073    1.000000    
    274 O2    s    0.470310 *  0.208469 *  0.802294 *  -2.87073    1.000000    
    275 O2    s    0.742108 *  0.530248 *  0.471191 *  -2.87073    1.000000    
    276 O2    s    0.789906 *  0.258977 *  0.135850 *  -2.87073    1.000000    
    277 O2    s    0.237727 *  0.340456 *  0.898332 *  -2.87073    1.000000    
    278 O2    s    0.670052 *  0.904512 *  0.233947 *  -2.87073    1.000000    
    279 O2    s    0.093547 *  0.758868 *  0.565953 *  -2.87073    1.000000    
    280 O2    s    0.760327 *  0.663548 *  0.400562 *  -2.87073    1.000000    
    281 O2    s    0.335401 *  0.091629 *  0.731235 *  -2.87073    1.000000    
    282 O3    s    0.906046 *  0.222650 *  0.070417 *  -3.33043    1.000000    
    283 O2    s    0.333732 *  0.238237 *  0.435522 *  -2.87073    1.000000    
    284 O2    s    0.903529 *  0.656814 *  0.100286 *  -2.87073    1.000000    
    285 O2    s    0.762422 *  0.093012 *  0.767033 *  -2.87073    1.000000    
    286 O2    s    0.675340 *  0.760476 *  0.932535 *  -2.87073    1.000000    
    287 O2    s    0.093633 *  0.333916 *  0.601138 *  -2.87073    1.000000    
    288 O2    s    0.245936 *  0.905505 *  0.272333 *  -2.87073    1.000000    
    289 O2    s    0.584405 *  0.562978 *  0.986754 *  -2.87073    1.000000    
    290 O2    s    0.446577 *  0.018823 *  0.324767 *  -2.87073    1.000000    
    291 O2    s    0.979841 *  0.419275 *  0.654389 *  -2.87073    1.000000    
    292 O2    s    0.417122 *  0.439247 *  0.488069 *  -2.87073    1.000000    
    293 O2    s    0.561419 *  0.976130 *  0.818893 *  -2.87073    1.000000    
    294 O2    s    0.025328 *  0.580336 *  0.149433 *  -2.87073    1.000000    
    295 O2    s    0.561101 *  0.578483 *  0.347399 *  -2.87073    1.000000    
    296 O1    s    0.032520 *  0.434041 *  0.006682 *  -3.73396    1.000000    
    297 O2    s    0.420931 *  0.978680 *  0.677718 *  -2.87073    1.000000    
    298 O2    s    0.440215 *  0.413332 *  0.847039 *  -2.87073    1.000000    
    299 O2    s    0.975633 *  0.557801 *  0.513663 *  -2.87073    1.000000    
    300 O2    s    0.585899 *  0.021311 *  0.182544 *  -2.87073    1.000000    
    301 O2    s    0.581598 *  0.150656 *  0.254149 *  -2.87073    1.000000    
    302 O2    s    0.846833 *  0.422271 *  0.584636 *  -2.87073    1.000000    
    303 O2    s    0.575738 *  0.422578 *  0.917221 *  -2.87073    1.000000    
    304 O2    s    0.425194 *  0.846952 *  0.747669 *  -2.87073    1.000000    
    305 O3    s    0.165713 *  0.573301 *  0.085328 *  -3.33043    1.000000    
    306 O2    s    0.423398 *  0.573249 *  0.417509 *  -2.87073    1.000000    
    307 F     s    0.454690 *  0.900400 *  0.252279 *  -1.56000    1.000000    
    308 F     s    0.098439 *  0.548522 *  0.582905 *  -1.56000    1.000000    
    309 F     s    0.453859 *  0.555231 *  0.915639 *  -1.56000    1.000000    
    310 F     s    0.550715 *  0.096973 *  0.748622 *  -1.56000    1.000000    
    311 F     s    0.896510 *  0.425790 *  0.067576 *  -1.56000    1.000000    
    312 F     s    0.548787 *  0.448410 *  0.417311 *  -1.56000    1.000000    
--------------------------------------------------------------------------------



********************************************************************************
*  General input information                                                   *
********************************************************************************

  Species output for all configurations : 

--------------------------------------------------------------------------------
  Species    Type    Atomic    Atomic    Charge       Radii (Angs)     Library
                     Number     Mass       (e)     Cova   Ionic  VDW   Symbol
--------------------------------------------------------------------------------
    Si       Core       14      28.09   4.000000   1.200  0.000  2.100          
    O1       Core        8      16.00   1.733957   0.730  0.000  1.360          
    O1       Shell       8       0.00  -3.733957   0.730  0.000  1.360          
    O2       Core        8      16.00   0.870733   0.730  0.000  1.360          
    O2       Shell       8       0.00  -2.870733   0.730  0.000  1.360          
    O3       Core        8      16.00   1.330431   0.730  0.000  1.360          
    O3       Shell       8       0.00  -3.330431   0.730  0.000  1.360          
    F        Core        9      19.00   0.560000   0.710  0.000  1.300          
    F        Shell       9       0.00  -1.560000   0.710  0.000  1.300          
    Ge       Core       32      72.61   4.000000   1.170  0.000  1.750          
--------------------------------------------------------------------------------


  Lattice summation method               =    Ewald          (3-D)
                                         =    Parry          (2-D)
                                         =    Saunders et al (1-D)
  Accuracy factor for lattice sums       =   12.000


  Time limit = Infinity

  Maximum range for interatomic potentials =        16.000000 Angstroms

  Taper potentials to zero over   1.0000 Angstroms using polynomial

  General interatomic potentials :

--------------------------------------------------------------------------------
Atom  Types   Potential         A         B         C         D     Cutoffs(Ang)
  1     2                                                            Min    Max 
--------------------------------------------------------------------------------
Si   c O1   s Buckingham    0.132E+04 0.318      10.1      0.00     0.000 16.000
Si   c O2   s Buckingham    0.132E+04 0.318      10.1      0.00     0.000 16.000
Si   c O3   s Buckingham    0.132E+04 0.318      10.1      0.00     0.000 16.000
Ge   c O1   s Buckingham    0.150E+04 0.326      16.8      0.00     0.000 16.000
Ge   c O2   s Buckingham    0.150E+04 0.326      16.8      0.00     0.000 16.000
Ge   c O3   s Buckingham    0.150E+04 0.326      16.8      0.00     0.000 16.000
O1   s O1   s Buckingham    0.228E+05 0.149      10.9      0.00     0.000 16.000
O1   s O2   s Buckingham    0.228E+05 0.149      10.9      0.00     0.000 16.000
O1   s O3   s Buckingham    0.228E+05 0.149      10.9      0.00     0.000 16.000
O2   s O2   s Buckingham    0.228E+05 0.149      10.9      0.00     0.000 16.000
O2   s O3   s Buckingham    0.228E+05 0.149      10.9      0.00     0.000 16.000
O3   s O3   s Buckingham    0.228E+05 0.149      10.9      0.00     0.000 16.000
Si   c F    s Buckingham     977.     0.282      0.00      0.00     0.000 16.000
Ge   c F    s Buckingham     681.     0.320      0.00      0.00     0.000 16.000
F    s F    s Buckingham     540.     0.262      0.00      0.00     0.000 16.000
O1   s F    s Buckingham    0.168E+04 0.268      0.00      0.00     0.000 16.000
O2   s F    s Buckingham    0.168E+04 0.268      0.00      0.00     0.000 16.000
O3   s F    s Buckingham    0.168E+04 0.268      0.00      0.00     0.000 16.000
O2   c O2   s Spring (c-s)   76.0      0.00      0.00      0.00     0.000  0.800
O3   c O3   s Spring (c-s)   128.      0.00      0.00      0.00     0.000  0.800
O1   c O1   s Spring (c-s)   180.      0.00      0.00      0.00     0.000  0.800
F    c F    s Spring (c-s)   33.5      0.00      0.00      0.00     0.000  0.800
--------------------------------------------------------------------------------

  General Three-body potentials :

  Harmonic form:

--------------------------------------------------------------------------------
Atom    Atom    Atom           Force Constants            Theta     Cutoffs  
  1       2       3     (eVrad**-2/eVrad**-3/eVrad**-4)   (deg)  1-2  1-3  2-3
--------------------------------------------------------------------------------
Si    c O1    s O1    s  1.261        0.0000    0.0000   109.470 0.00 0.00 0.00
                                                                 1.90 1.90 3.50
Si    c O1    s O2    s  1.261        0.0000    0.0000   109.470 0.00 0.00 0.00
                                                                 1.90 1.90 3.50
Si    c O2    s O2    s  1.261        0.0000    0.0000   109.470 0.00 0.00 0.00
                                                                 1.90 1.90 3.50
--------------------------------------------------------------------------------

********************************************************************************
*  Output for configuration   1                                                *
********************************************************************************


  Components of energy : 

--------------------------------------------------------------------------------
  Interatomic potentials     =        2059.71110129 eV
  Three-body potentials      =           0.41792293 eV
  Monopole - monopole (real) =       -6580.23371044 eV
  Monopole - monopole (recip)=       -3192.62199594 eV
  Monopole - monopole (total)=       -9772.85570638 eV
  Neutralising energy        =          -6.45456576 eV
--------------------------------------------------------------------------------
  Total lattice energy       =       -7719.18124793 eV
--------------------------------------------------------------------------------
  Total lattice energy       =         -744782.9919 kJ/(mole unit cells)
--------------------------------------------------------------------------------


  Number of variables =      939

  Maximum number of calculations  =          1000
  Maximum Hessian update interval =            10
  Maximum step size               =   0.010000000
  Maximum parameter tolerance     =   0.000010000
  Maximum function  tolerance     =   0.000010000
  Maximum gradient  tolerance     =   0.001000000
  Maximum gradient  component     =   0.010000000

  Symmetry not applied to optimisation

  Cell parameters to be optimised using strains

  RFO method to be used

  DFP hessian update to be used

  Dumpfile to be written after every cycle

  Start of bulk optimisation :

  Cycle:      0 Energy:     -7719.181248  Gnorm:      0.008120  CPU:    1.050
  ** Hessian has wrong structure
  ** Imaginary eigenvectors =   1
  ** Hessian has wrong structure
  ** Imaginary eigenvectors =   1
  Cycle:      1 Energy:     -7719.182458  Gnorm:      0.008089  CPU:    8.407
  ** Hessian has wrong structure
  ** Imaginary eigenvectors =   1
  Cycle:      2 Energy:     -7719.184013  Gnorm:      0.008054  CPU:   13.430
  ** Hessian has required structure
  Cycle:      3 Energy:     -7719.185671  Gnorm:      0.007787  CPU:   17.133
  ** Hessian has required structure
  Cycle:      4 Energy:     -7719.188262  Gnorm:      0.007309  CPU:   20.505
  ** Hessian has required structure
  Cycle:      5 Energy:     -7719.190044  Gnorm:      0.006908  CPU:   23.548
  ** Hessian has required structure
  Cycle:      6 Energy:     -7719.191532  Gnorm:      0.006550  CPU:   26.780
  ** Hessian has required structure
  Cycle:      7 Energy:     -7719.192838  Gnorm:      0.006211  CPU:   29.823
  ** Hessian has required structure
  Cycle:      8 Energy:     -7719.193993  Gnorm:      0.005893  CPU:   32.868
  ** Hessian has required structure
  Cycle:      9 Energy:     -7719.195021  Gnorm:      0.005590  CPU:   35.912
  ** Hessian has required structure
  Cycle:     10 Energy:     -7719.195938  Gnorm:      0.005306  CPU:   38.955
  ** Hessian has required structure
  Cycle:     11 Energy:     -7719.196758  Gnorm:      0.005032  CPU:   41.998
  ** Hessian has required structure
  Cycle:     12 Energy:     -7719.197492  Gnorm:      0.004782  CPU:   45.041
  ** Hessian has required structure
  Cycle:     13 Energy:     -7719.198147  Gnorm:      0.004542  CPU:   48.742
  ** Hessian has required structure
  Cycle:     14 Energy:     -7719.198736  Gnorm:      0.004313  CPU:   51.783
  ** Hessian has required structure
  Cycle:     15 Energy:     -7719.199265  Gnorm:      0.004096  CPU:   54.827
  ** Hessian has required structure
  Cycle:     16 Energy:     -7719.199741  Gnorm:      0.003890  CPU:   57.869
  ** Hessian has required structure
  Cycle:     17 Energy:     -7719.200168  Gnorm:      0.003694  CPU:   60.911
  ** Hessian has required structure
  Cycle:     18 Energy:     -7719.200552  Gnorm:      0.003508  CPU:   63.953
  ** Hessian has required structure
  Cycle:     19 Energy:     -7719.200897  Gnorm:      0.003331  CPU:   66.995
  ** Hessian has required structure
  Cycle:     20 Energy:     -7719.201208  Gnorm:      0.003164  CPU:   70.037
  ** Hessian has required structure
  Cycle:     21 Energy:     -7719.201487  Gnorm:      0.003005  CPU:   73.080
  ** Hessian has required structure
  Cycle:     22 Energy:     -7719.201739  Gnorm:      0.002854  CPU:   76.122
  ** Hessian has required structure
  Cycle:     23 Energy:     -7719.201965  Gnorm:      0.002711  CPU:   79.823
  ** Hessian has required structure
  Cycle:     24 Energy:     -7719.202168  Gnorm:      0.002575  CPU:   82.864
  ** Hessian has required structure
  Cycle:     25 Energy:     -7719.202352  Gnorm:      0.002446  CPU:   85.906
  ** Hessian has required structure
  Cycle:     26 Energy:     -7719.202517  Gnorm:      0.002323  CPU:   88.948
  ** Hessian has required structure
  Cycle:     27 Energy:     -7719.202666  Gnorm:      0.002207  CPU:   91.989
  ** Hessian has required structure
  Cycle:     28 Energy:     -7719.202800  Gnorm:      0.002096  CPU:   95.029
  ** Hessian has required structure
  Cycle:     29 Energy:     -7719.202921  Gnorm:      0.001991  CPU:   98.071
  ** Hessian has required structure
  Cycle:     30 Energy:     -7719.203030  Gnorm:      0.001891  CPU:  101.113
  ** Hessian has required structure
  Cycle:     31 Energy:     -7719.203128  Gnorm:      0.001796  CPU:  104.155
  ** Hessian has required structure
  Cycle:     32 Energy:     -7719.203216  Gnorm:      0.001706  CPU:  107.197
  ** Hessian has required structure
  Cycle:     33 Energy:     -7719.203296  Gnorm:      0.001621  CPU:  110.895
  ** Hessian has required structure
  Cycle:     34 Energy:     -7719.203368  Gnorm:      0.001540  CPU:  113.936
  ** Hessian has required structure
  Cycle:     35 Energy:     -7719.203432  Gnorm:      0.001462  CPU:  116.978
  ** Hessian has required structure
  Cycle:     36 Energy:     -7719.203491  Gnorm:      0.001389  CPU:  120.020
  ** Hessian has required structure
  Cycle:     37 Energy:     -7719.203543  Gnorm:      0.001320  CPU:  123.117
  ** Hessian has required structure
  Cycle:     38 Energy:     -7719.203572  Gnorm:      0.001280  CPU:  125.502
  ** Hessian has required structure
  Cycle:     39 Energy:     -7719.203595  Gnorm:      0.001247  CPU:  127.886
  ** Hessian has required structure
  Cycle:     40 Energy:     -7719.203615  Gnorm:      0.001219  CPU:  130.270
  ** Hessian has required structure
  Cycle:     41 Energy:     -7719.203633  Gnorm:      0.001192  CPU:  132.654
  ** Hessian has required structure
  Cycle:     42 Energy:     -7719.203649  Gnorm:      0.001167  CPU:  135.039
  ** Hessian has required structure
  Cycle:     43 Energy:     -7719.203672  Gnorm:      0.001132  CPU:  138.080
  ** Hessian has required structure
  Cycle:     44 Energy:     -7719.203690  Gnorm:      0.001103  CPU:  140.464
  ** Hessian has required structure
  Cycle:     45 Energy:     -7719.203705  Gnorm:      0.001077  CPU:  142.848
  ** Hessian has required structure
  Cycle:     46 Energy:     -7719.203719  Gnorm:      0.001054  CPU:  145.232
  ** Hessian has required structure
  Cycle:     47 Energy:     -7719.203732  Gnorm:      0.001032  CPU:  147.616
  ** Hessian has required structure
  Cycle:     48 Energy:     -7719.203744  Gnorm:      0.001010  CPU:  150.000
  ** Hessian has required structure
  Cycle:     49 Energy:     -7719.203756  Gnorm:      0.000989  CPU:  152.384
  ** Hessian has required structure
  Cycle:     50 Energy:     -7719.203767  Gnorm:      0.000969  CPU:  154.782
  ** Hessian has required structure
  Cycle:     51 Energy:     -7719.203777  Gnorm:      0.000949  CPU:  157.166
  ** Hessian has required structure
  Cycle:     52 Energy:     -7719.203788  Gnorm:      0.000930  CPU:  159.550
  ** Hessian has required structure
  Cycle:     53 Energy:     -7719.203802  Gnorm:      0.000902  CPU:  162.593
  ** Hessian has required structure
  Cycle:     54 Energy:     -7719.203813  Gnorm:      0.000879  CPU:  164.977
  ** Hessian has required structure
  Cycle:     55 Energy:     -7719.203823  Gnorm:      0.000858  CPU:  167.360
  ** Hessian has required structure
  Cycle:     56 Energy:     -7719.203832  Gnorm:      0.000840  CPU:  169.743
  ** Hessian has required structure
  Cycle:     57 Energy:     -7719.203840  Gnorm:      0.000822  CPU:  172.126
  ** Hessian has required structure
  Cycle:     58 Energy:     -7719.203848  Gnorm:      0.000805  CPU:  174.511
  ** Hessian has required structure
  Cycle:     59 Energy:     -7719.203855  Gnorm:      0.000788  CPU:  176.894
  ** Hessian has required structure
  Cycle:     60 Energy:     -7719.203862  Gnorm:      0.000772  CPU:  179.278
  ** Hessian has required structure
  Cycle:     61 Energy:     -7719.203869  Gnorm:      0.000756  CPU:  181.662
  ** Hessian has required structure
  Cycle:     62 Energy:     -7719.203875  Gnorm:      0.000741  CPU:  184.045
  ** Hessian has required structure
  Cycle:     63 Energy:     -7719.203884  Gnorm:      0.000718  CPU:  187.086
  ** Hessian has required structure
  Cycle:     64 Energy:     -7719.203891  Gnorm:      0.000700  CPU:  189.469
  ** Hessian has required structure
  Cycle:     65 Energy:     -7719.203897  Gnorm:      0.000684  CPU:  191.854
  ** Hessian has required structure
  Cycle:     66 Energy:     -7719.203903  Gnorm:      0.000669  CPU:  194.238
  ** Hessian has required structure
  Cycle:     67 Energy:     -7719.203908  Gnorm:      0.000655  CPU:  196.621
  ** Hessian has required structure
  Cycle:     68 Energy:     -7719.203913  Gnorm:      0.000641  CPU:  199.003
  ** Hessian has required structure
  Cycle:     69 Energy:     -7719.203918  Gnorm:      0.000628  CPU:  201.389
  ** Hessian has required structure
  Cycle:     70 Energy:     -7719.203922  Gnorm:      0.000615  CPU:  203.772
  ** Hessian has required structure
  Cycle:     71 Energy:     -7719.203926  Gnorm:      0.000603  CPU:  206.155
  ** Hessian has required structure
  Cycle:     72 Energy:     -7719.203930  Gnorm:      0.000590  CPU:  208.539
  ** Hessian has required structure
  Cycle:     73 Energy:     -7719.203936  Gnorm:      0.000572  CPU:  211.580
  ** Hessian has required structure
  Cycle:     74 Energy:     -7719.203941  Gnorm:      0.000558  CPU:  213.965
  ** Hessian has required structure
  Cycle:     75 Energy:     -7719.203945  Gnorm:      0.000545  CPU:  216.349
  ** Hessian has required structure
  Cycle:     76 Energy:     -7719.203948  Gnorm:      0.000533  CPU:  218.732
  ** Hessian has required structure
  Cycle:     77 Energy:     -7719.203952  Gnorm:      0.000522  CPU:  221.115
  ** Hessian has required structure
  Cycle:     78 Energy:     -7719.203955  Gnorm:      0.000511  CPU:  223.500
  ** Hessian has required structure
  Cycle:     79 Energy:     -7719.203958  Gnorm:      0.000500  CPU:  225.883
  ** Hessian has required structure
  Cycle:     80 Energy:     -7719.203960  Gnorm:      0.000490  CPU:  228.267
  ** Hessian has required structure
  Cycle:     81 Energy:     -7719.203963  Gnorm:      0.000480  CPU:  230.650
  ** Hessian has required structure
  Cycle:     82 Energy:     -7719.203966  Gnorm:      0.000470  CPU:  233.033
  ** Hessian has required structure
  Cycle:     83 Energy:     -7719.203969  Gnorm:      0.000456  CPU:  236.075
  ** Hessian has required structure
  Cycle:     84 Energy:     -7719.203972  Gnorm:      0.000445  CPU:  238.459
  ** Hessian has required structure
  Cycle:     85 Energy:     -7719.203975  Gnorm:      0.000434  CPU:  240.843
  ** Hessian has required structure
  Cycle:     86 Energy:     -7719.203977  Gnorm:      0.000425  CPU:  243.226
  ** Hessian has required structure
  Cycle:     87 Energy:     -7719.203979  Gnorm:      0.000416  CPU:  245.610
  ** Hessian has required structure
  Cycle:     88 Energy:     -7719.203981  Gnorm:      0.000407  CPU:  247.994
  ** Hessian has required structure
  Cycle:     89 Energy:     -7719.203983  Gnorm:      0.000399  CPU:  250.378
  ** Hessian has required structure
  Cycle:     90 Energy:     -7719.203985  Gnorm:      0.000391  CPU:  252.762
  ** Hessian has required structure
  Cycle:     91 Energy:     -7719.203986  Gnorm:      0.000383  CPU:  255.147
  ** Hessian has required structure
  Cycle:     92 Energy:     -7719.203988  Gnorm:      0.000375  CPU:  257.531
  ** Hessian has required structure
  Cycle:     93 Energy:     -7719.203990  Gnorm:      0.000364  CPU:  260.573
  ** Hessian has required structure
  Cycle:     94 Energy:     -7719.203992  Gnorm:      0.000354  CPU:  262.957
  ** Hessian has required structure
  Cycle:     95 Energy:     -7719.203994  Gnorm:      0.000346  CPU:  265.340
  ** Hessian has required structure
  Cycle:     96 Energy:     -7719.203995  Gnorm:      0.000339  CPU:  267.724
  ** Hessian has required structure
  Cycle:     97 Energy:     -7719.203996  Gnorm:      0.000331  CPU:  270.107
  ** Hessian has required structure
  Cycle:     98 Energy:     -7719.203998  Gnorm:      0.000324  CPU:  272.490
  ** Hessian has required structure
  Cycle:     99 Energy:     -7719.203999  Gnorm:      0.000318  CPU:  274.873
  ** Hessian has required structure
  Cycle:    100 Energy:     -7719.204000  Gnorm:      0.000311  CPU:  277.258
  ** Hessian has required structure
  Cycle:    101 Energy:     -7719.204001  Gnorm:      0.000305  CPU:  279.641
  ** Hessian has required structure
  Cycle:    102 Energy:     -7719.204002  Gnorm:      0.000299  CPU:  282.026
  ** Hessian has required structure
  Cycle:    103 Energy:     -7719.204004  Gnorm:      0.000290  CPU:  285.067
  ** Hessian has required structure
  Cycle:    104 Energy:     -7719.204005  Gnorm:      0.000282  CPU:  287.451
  ** Hessian has required structure
  Cycle:    105 Energy:     -7719.204006  Gnorm:      0.000276  CPU:  289.834
  ** Hessian has required structure
  Cycle:    106 Energy:     -7719.204007  Gnorm:      0.000270  CPU:  292.217
  ** Hessian has required structure
  Cycle:    107 Energy:     -7719.204007  Gnorm:      0.000264  CPU:  294.602
  ** Hessian has required structure
  Cycle:    108 Energy:     -7719.204008  Gnorm:      0.000259  CPU:  296.986
  ** Hessian has required structure
  Cycle:    109 Energy:     -7719.204009  Gnorm:      0.000253  CPU:  299.368
  ** Hessian has required structure
  Cycle:    110 Energy:     -7719.204010  Gnorm:      0.000248  CPU:  301.752
  ** Hessian has required structure
  Cycle:    111 Energy:     -7719.204010  Gnorm:      0.000243  CPU:  304.135
  ** Hessian has required structure
  Cycle:    112 Energy:     -7719.204011  Gnorm:      0.000238  CPU:  306.519
  ** Hessian has required structure
  Cycle:    113 Energy:     -7719.204012  Gnorm:      0.000231  CPU:  309.560
  ** Hessian has required structure
  Cycle:    114 Energy:     -7719.204013  Gnorm:      0.000225  CPU:  311.944
  ** Hessian has required structure
  Cycle:    115 Energy:     -7719.204013  Gnorm:      0.000220  CPU:  314.327
  ** Hessian has required structure
  Cycle:    116 Energy:     -7719.204014  Gnorm:      0.000215  CPU:  316.711
  ** Hessian has required structure
  Cycle:    117 Energy:     -7719.204014  Gnorm:      0.000210  CPU:  319.094
  ** Hessian has required structure
  Cycle:    118 Energy:     -7719.204015  Gnorm:      0.000206  CPU:  321.477
  ** Hessian has required structure
  Cycle:    119 Energy:     -7719.204015  Gnorm:      0.000202  CPU:  323.861
  ** Hessian has required structure
  Cycle:    120 Energy:     -7719.204016  Gnorm:      0.000198  CPU:  326.247
  ** Hessian has required structure
  Cycle:    121 Energy:     -7719.204016  Gnorm:      0.000194  CPU:  328.630
  ** Hessian has required structure
  Cycle:    122 Energy:     -7719.204017  Gnorm:      0.000190  CPU:  331.013
  ** Hessian has required structure
  Cycle:    123 Energy:     -7719.204017  Gnorm:      0.000184  CPU:  334.054
  ** Hessian has required structure
  Cycle:    124 Energy:     -7719.204018  Gnorm:      0.000179  CPU:  336.437
  ** Hessian has required structure
  Cycle:    125 Energy:     -7719.204018  Gnorm:      0.000175  CPU:  338.820
  ** Hessian has required structure
  Cycle:    126 Energy:     -7719.204019  Gnorm:      0.000171  CPU:  341.205
  ** Hessian has required structure
  Cycle:    127 Energy:     -7719.204019  Gnorm:      0.000168  CPU:  343.587
  ** Hessian has required structure
  Cycle:    128 Energy:     -7719.204019  Gnorm:      0.000164  CPU:  345.970
  ** Hessian has required structure
  Cycle:    129 Energy:     -7719.204019  Gnorm:      0.000161  CPU:  348.353
  ** Hessian has required structure
  Cycle:    130 Energy:     -7719.204020  Gnorm:      0.000158  CPU:  350.736
  ** Hessian has required structure
  Cycle:    131 Energy:     -7719.204020  Gnorm:      0.000154  CPU:  353.118
  ** Hessian has required structure
  Cycle:    132 Energy:     -7719.204020  Gnorm:      0.000151  CPU:  355.502
  ** Hessian has required structure
  Cycle:    133 Energy:     -7719.204021  Gnorm:      0.000147  CPU:  358.542
  ** Hessian has required structure
  Cycle:    134 Energy:     -7719.204021  Gnorm:      0.000143  CPU:  360.927
  ** Hessian has required structure
  Cycle:    135 Energy:     -7719.204021  Gnorm:      0.000140  CPU:  363.310
  ** Hessian has required structure
  Cycle:    136 Energy:     -7719.204021  Gnorm:      0.000137  CPU:  365.694
  ** Hessian has required structure
  Cycle:    137 Energy:     -7719.204022  Gnorm:      0.000134  CPU:  368.078
  ** Hessian has required structure
  Cycle:    138 Energy:     -7719.204022  Gnorm:      0.000131  CPU:  370.462
  ** Hessian has required structure
  Cycle:    139 Energy:     -7719.204022  Gnorm:      0.000128  CPU:  372.846
  ** Hessian has required structure
  Cycle:    140 Energy:     -7719.204022  Gnorm:      0.000126  CPU:  375.229
  ** Hessian has required structure
  Cycle:    141 Energy:     -7719.204022  Gnorm:      0.000123  CPU:  377.614
  ** Hessian has required structure
  Cycle:    142 Energy:     -7719.204023  Gnorm:      0.000120  CPU:  379.998
  ** Hessian has required structure
  Cycle:    143 Energy:     -7719.204023  Gnorm:      0.000117  CPU:  383.041
  ** Hessian has required structure
  Cycle:    144 Energy:     -7719.204023  Gnorm:      0.000114  CPU:  385.425
  ** Hessian has required structure
  Cycle:    145 Energy:     -7719.204023  Gnorm:      0.000111  CPU:  388.071
  ** Hessian has required structure
  Cycle:    146 Energy:     -7719.204023  Gnorm:      0.000109  CPU:  390.455
  ** Hessian has required structure
  Cycle:    147 Energy:     -7719.204023  Gnorm:      0.000106  CPU:  393.035
  ** Hessian has required structure
  Cycle:    148 Energy:     -7719.204024  Gnorm:      0.000104  CPU:  395.471
  ** Hessian has required structure
  Cycle:    149 Energy:     -7719.204024  Gnorm:      0.000102  CPU:  398.050
  ** Hessian has required structure
  Cycle:    150 Energy:     -7719.204024  Gnorm:      0.000100  CPU:  400.442
  ** Hessian has required structure
  Cycle:    151 Energy:     -7719.204024  Gnorm:      0.000098  CPU:  402.823
  ** Hessian has required structure
  Cycle:    152 Energy:     -7719.204024  Gnorm:      0.000096  CPU:  405.206
  ** Hessian has required structure
  Cycle:    153 Energy:     -7719.204024  Gnorm:      0.000093  CPU:  408.246
  ** Hessian has required structure
  Cycle:    154 Energy:     -7719.204024  Gnorm:      0.000091  CPU:  410.862
  ** Hessian has required structure
  Cycle:    155 Energy:     -7719.204024  Gnorm:      0.000089  CPU:  413.246
  ** Hessian has required structure
  Cycle:    156 Energy:     -7719.204025  Gnorm:      0.000087  CPU:  415.830
  ** Hessian has required structure
  Cycle:    157 Energy:     -7719.204025  Gnorm:      0.000085  CPU:  418.239
  ** Hessian has required structure
  Cycle:    158 Energy:     -7719.204025  Gnorm:      0.000083  CPU:  420.623
  ** Hessian has required structure
  Cycle:    159 Energy:     -7719.204025  Gnorm:      0.000081  CPU:  423.006
  ** Hessian has required structure
  Cycle:    160 Energy:     -7719.204025  Gnorm:      0.000080  CPU:  425.389
  ** Hessian has required structure
  Cycle:    161 Energy:     -7719.204025  Gnorm:      0.000078  CPU:  427.771
  ** Hessian has required structure
  Cycle:    162 Energy:     -7719.204025  Gnorm:      0.000076  CPU:  430.156
  ** Hessian has required structure
  Cycle:    163 Energy:     -7719.204025  Gnorm:      0.000074  CPU:  433.255
  ** Hessian has required structure
  Cycle:    164 Energy:     -7719.204025  Gnorm:      0.000072  CPU:  435.638
  ** Hessian has required structure
  Cycle:    165 Energy:     -7719.204025  Gnorm:      0.000071  CPU:  438.022
  ** Hessian has required structure
  Cycle:    166 Energy:     -7719.204025  Gnorm:      0.000069  CPU:  440.405
  ** Hessian has required structure
  Cycle:    167 Energy:     -7719.204025  Gnorm:      0.000068  CPU:  442.788
  ** Hessian has required structure
  Cycle:    168 Energy:     -7719.204025  Gnorm:      0.000066  CPU:  445.172
  ** Hessian has required structure
  Cycle:    169 Energy:     -7719.204025  Gnorm:      0.000065  CPU:  447.772
  ** Hessian has required structure
  Cycle:    170 Energy:     -7719.204025  Gnorm:      0.000064  CPU:  450.156
  ** Hessian has required structure
  Cycle:    171 Energy:     -7719.204026  Gnorm:      0.000062  CPU:  452.542
  ** Hessian has required structure
  Cycle:    172 Energy:     -7719.204026  Gnorm:      0.000061  CPU:  454.927
  ** Hessian has required structure
  Cycle:    173 Energy:     -7719.204026  Gnorm:      0.000059  CPU:  457.970
  ** Hessian has required structure
  Cycle:    174 Energy:     -7719.204026  Gnorm:      0.000058  CPU:  460.574
  ** Hessian has required structure
  Cycle:    175 Energy:     -7719.204026  Gnorm:      0.000056  CPU:  462.957
  ** Hessian has required structure
  Cycle:    176 Energy:     -7719.204026  Gnorm:      0.000055  CPU:  465.341
  ** Hessian has required structure
  Cycle:    177 Energy:     -7719.204026  Gnorm:      0.000054  CPU:  467.726
  ** Hessian has required structure
  Cycle:    178 Energy:     -7719.204026  Gnorm:      0.000053  CPU:  470.111
  ** Hessian has required structure
  Cycle:    179 Energy:     -7719.204026  Gnorm:      0.000052  CPU:  472.495
  ** Hessian has required structure
  Cycle:    180 Energy:     -7719.204026  Gnorm:      0.000051  CPU:  474.878
  ** Hessian has required structure
  Cycle:    181 Energy:     -7719.204026  Gnorm:      0.000050  CPU:  477.262
  ** Hessian has required structure
  Cycle:    182 Energy:     -7719.204026  Gnorm:      0.000049  CPU:  479.647
  ** Hessian has required structure
  Cycle:    183 Energy:     -7719.204026  Gnorm:      0.000047  CPU:  482.688
  ** Hessian has required structure
  Cycle:    184 Energy:     -7719.204026  Gnorm:      0.000046  CPU:  485.073
  ** Hessian has required structure
  Cycle:    185 Energy:     -7719.204026  Gnorm:      0.000045  CPU:  487.650
  ** Hessian has required structure
  Cycle:    186 Energy:     -7719.204026  Gnorm:      0.000044  CPU:  490.032
  ** Hessian has required structure
  Cycle:    187 Energy:     -7719.204026  Gnorm:      0.000043  CPU:  492.415
  ** Hessian has required structure
  Cycle:    188 Energy:     -7719.204026  Gnorm:      0.000042  CPU:  494.798
  ** Hessian has required structure
  Cycle:    189 Energy:     -7719.204026  Gnorm:      0.000041  CPU:  497.181
  ** Hessian has required structure
  Cycle:    190 Energy:     -7719.204026  Gnorm:      0.000040  CPU:  499.565
  ** Hessian has required structure
  Cycle:    191 Energy:     -7719.204026  Gnorm:      0.000039  CPU:  501.950
  ** Hessian has required structure
  Cycle:    192 Energy:     -7719.204026  Gnorm:      0.000039  CPU:  504.334
  ** Hessian has required structure
  Cycle:    193 Energy:     -7719.204026  Gnorm:      0.000038  CPU:  507.375
  ** Hessian has required structure
  Cycle:    194 Energy:     -7719.204026  Gnorm:      0.000037  CPU:  509.758
  ** Hessian has required structure
  Cycle:    195 Energy:     -7719.204026  Gnorm:      0.000036  CPU:  512.142
  ** Hessian has required structure
  Cycle:    196 Energy:     -7719.204026  Gnorm:      0.000035  CPU:  514.525
  ** Hessian has required structure
  Cycle:    197 Energy:     -7719.204026  Gnorm:      0.000034  CPU:  516.908
  ** Hessian has required structure
  Cycle:    198 Energy:     -7719.204026  Gnorm:      0.000033  CPU:  519.292
  ** Hessian has required structure
  Cycle:    199 Energy:     -7719.204026  Gnorm:      0.000033  CPU:  521.739
  ** Hessian has required structure


  **** Optimisation achieved ****


  Final energy =   -7719.20402632 eV
  Final Gnorm  =       0.00003213

  Components of energy : 

--------------------------------------------------------------------------------
  Interatomic potentials     =        2059.72660410 eV
  Three-body potentials      =           0.42818462 eV
  Monopole - monopole (real) =       -6579.19631079 eV
  Monopole - monopole (recip)=       -3193.70575258 eV
  Monopole - monopole (total)=       -9772.90206337 eV
  Neutralising energy        =          -6.45675167 eV
--------------------------------------------------------------------------------
  Total lattice energy       =       -7719.20402632 eV
--------------------------------------------------------------------------------
  Total lattice energy       =         -744785.1897 kJ/(mole unit cells)
--------------------------------------------------------------------------------

  Final fractional coordinates of atoms :

--------------------------------------------------------------------------------
   No.  Atomic        x           y          z          Radius
        Label       (Frac)      (Frac)     (Frac)       (Angs) 
--------------------------------------------------------------------------------
     1  Ge    c     0.699600    0.375700    0.033890    0.000000
     2  Si    c     0.634394    0.323086    0.369998    0.000000
     3  Si    c     0.692734    0.307973    0.702277    0.000000
     4  Si    c     0.307101    0.624874    0.533458    0.000000
     5  Si    c     0.398605    0.689937    0.864147    0.000000
     6  Si    c     0.333705    0.700820    0.202922    0.000000
     7  Si    c     0.392298    0.700304    0.302902    0.000000
     8  Si    c     0.347843    0.647783    0.964717    0.000000
     9  Si    c     0.312764    0.685283    0.633948    0.000000
    10  Si    c     0.635611    0.303939    0.802830    0.000000
    11  Si    c     0.687528    0.382800    0.470727    0.000000
    12  Si    c     0.707097    0.321654    0.137307    0.000000
    13  Si    c     0.531364    0.428306    0.969702    0.000000
    14  Si    c     0.598820    0.110895    0.305831    0.000000
    15  Si    c     0.902543    0.478999    0.637420    0.000000
    16  Si    c     0.479913    0.585638    0.468891    0.000000
    17  Si    c     0.433172    0.896930    0.799439    0.000000
    18  Si    c     0.130918    0.534284    0.133212    0.000000
    19  Si    c     0.429491    0.528163    0.367212    0.000000
    20  Ge    c     0.128841    0.583127    0.028351    0.000000
    21  Si    c     0.487277    0.899016    0.697957    0.000000
    22  Si    c     0.592766    0.474702    0.868269    0.000000
    23  Si    c     0.897988    0.421864    0.535698    0.000000
    24  Si    c     0.545618    0.113167    0.204487    0.000000
    25  Si    c     0.313075    0.408435    0.852917    0.000000
    26  Si    c     0.612049    0.901870    0.187526    0.000000
    27  Si    c     0.106279    0.701680    0.520194    0.000000
    28  Si    c     0.709948    0.599511    0.354342    0.000000
    29  Si    c     0.415053    0.106948    0.685408    0.000000
    30  Ge    c     0.903579    0.302554    0.022514    0.000000
    31  Si    c     0.408872    0.306125    0.483843    0.000000
    32  Si    c     0.915414    0.605247    0.147391    0.000000
    33  Si    c     0.714504    0.104240    0.815950    0.000000
    34  Si    c     0.620619    0.714460    0.981864    0.000000
    35  Si    c     0.112138    0.408087    0.650103    0.000000
    36  Si    c     0.317529    0.902507    0.320085    0.000000
    37  Si    c     0.254388    0.359826    0.953677    0.000000
    38  Si    c     0.674602    0.909361    0.287840    0.000000
    39  Si    c     0.103813    0.757185    0.620916    0.000000
    40  Si    c     0.758935    0.662667    0.454914    0.000000
    41  Si    c     0.354235    0.096378    0.785975    0.000000
    42  Si    c     0.921802    0.250028    0.121792    0.000000
    43  Si    c     0.352936    0.250813    0.383106    0.000000
    44  Si    c     0.921307    0.663756    0.044860    0.000000
    45  Si    c     0.765744    0.100193    0.714964    0.000000
    46  Si    c     0.677062    0.756798    0.880912    0.000000
    47  Si    c     0.099013    0.344593    0.549416    0.000000
    48  Si    c     0.267170    0.911672    0.219733    0.000000
    49  Si    c     0.977322    0.128063    0.967872    0.000000
    50  Si    c     0.890743    0.845283    0.303514    0.000000
    51  Si    c     0.166458    0.037855    0.635264    0.000000
    52  Si    c     0.039066    0.880931    0.469636    0.000000
    53  Si    c     0.136549    0.158556    0.800916    0.000000
    54  Ge    c     0.863887    0.973603    0.136947    0.000000
    55  Si    c     0.134883    0.969735    0.368892    0.000000
    56  Si    c     0.871814    0.890376    0.031892    0.000000
    57  Si    c     0.045518    0.161658    0.700053    0.000000
    58  Si    c     0.894523    0.035427    0.866075    0.000000
    59  Si    c     0.161169    0.126807    0.534573    0.000000
    60  Si    c     0.988829    0.851163    0.202586    0.000000
    61  O2    c     0.955333    0.006907    0.998269    0.000000
    62  O2    c     0.014141    0.926054    0.335574    0.000000
    63  O2    c     0.086569    0.080940    0.667339    0.000000
    64  O2    c     0.081478    0.004235    0.501831    0.000000
    65  O2    c     0.013586    0.076184    0.832290    0.000000
    66  O3    c     0.955325    0.935444    0.171053    0.000000
    67  O2    c     0.353821    0.576603    0.334564    0.000000
    68  O2    c     0.438835    0.773216    0.665226    0.000000
    69  O3    c     0.264043    0.686207    0.996696    0.000000
    70  O2    c     0.670460    0.424183    0.837014    0.000000
    71  O2    c     0.593632    0.240567    0.173700    0.000000
    72  O2    c     0.770558    0.344806    0.503863    0.000000
    73  O3    c     0.563885    0.345292    0.003211    0.000000
    74  O2    c     0.778830    0.432132    0.670484    0.000000
    75  O2    c     0.674864    0.236882    0.338569    0.000000
    76  O2    c     0.429395    0.662742    0.500398    0.000000
    77  O2    c     0.248180    0.579514    0.169290    0.000000
    78  O2    c     0.358340    0.770164    0.830666    0.000000
    79  O2    c     0.128617    0.237814    0.974711    0.000000
    80  O2    c     0.800435    0.909289    0.308003    0.000000
    81  O2    c     0.104567    0.884097    0.641050    0.000000
    82  O2    c     0.884676    0.790686    0.474923    0.000000
    83  O2    c     0.227637    0.095798    0.805832    0.000000
    84  O3    c     0.922248    0.134692    0.148583    0.000000
    85  O2    c     0.226563    0.123508    0.362929    0.000000
    86  O2    c     0.927643    0.793665    0.027068    0.000000
    87  O2    c     0.891530    0.099957    0.694541    0.000000
    88  O2    c     0.804079    0.880681    0.860377    0.000000
    89  O2    c     0.096900    0.216486    0.529654    0.000000
    90  O2    c     0.143007    0.913691    0.199778    0.000000
    91  O2    c     0.940967    0.853869    0.252913    0.000000
    92  O2    c     0.150630    0.074257    0.584722    0.000000
    93  O2    c     0.951331    0.077177    0.915969    0.000000
    94  O2    c     0.085713    0.148110    0.750224    0.000000
    95  O3    c     0.890848    0.943426    0.082686    0.000000
    96  O2    c     0.079379    0.932240    0.419079    0.000000
    97  O3    c     0.889462    0.183406    0.982104    0.000000
    98  O2    c     0.808507    0.694565    0.315992    0.000000
    99  O2    c     0.318591    0.108986    0.647092    0.000000
   100  O2    c     0.107084    0.798381    0.481853    0.000000
   101  O2    c     0.216953    0.309508    0.814264    0.000000
   102  O3    c     0.700845    0.893255    0.148289    0.000000
   103  O2    c     0.218478    0.900623    0.358296    0.000000
   104  O2    c     0.718671    0.812162    0.020442    0.000000
   105  O2    c     0.115808    0.313262    0.688250    0.000000
   106  O2    c     0.810991    0.103505    0.854256    0.000000
   107  O2    c     0.312349    0.209901    0.522223    0.000000
   108  O2    c     0.918364    0.701667    0.186520    0.000000
   109  O2    c     0.333475    0.642554    0.252625    0.000000
   110  O2    c     0.367399    0.683743    0.583369    0.000000
   111  O2    c     0.344511    0.698897    0.914014    0.000000
   112  O2    c     0.693438    0.364190    0.753052    0.000000
   113  O3    c     0.645744    0.321813    0.089358    0.000000
   114  O2    c     0.689795    0.325067    0.420564    0.000000
   115  O2    c     0.375059    0.347302    0.971260    0.000000
   116  O2    c     0.685728    0.041774    0.307374    0.000000
   117  O2    c     0.972056    0.635485    0.639805    0.000000
   118  O2    c     0.636283    0.673471    0.472365    0.000000
   119  O2    c     0.344391    0.963857    0.803322    0.000000
   120  O2    c     0.054349    0.379009    0.136641    0.000000
   121  O2    c     0.342522    0.371648    0.363999    0.000000
   122  O3    c     0.053903    0.675835    0.029638    0.000000
   123  O2    c     0.643638    0.968201    0.695513    0.000000
   124  O2    c     0.681734    0.630450    0.863752    0.000000
   125  O2    c     0.965766    0.333828    0.531802    0.000000
   126  O2    c     0.389390    0.043196    0.201104    0.000000
   127  O1    c     0.753751    0.283836    0.008597    0.000000
   128  O2    c     0.709545    0.465141    0.347141    0.000000
   129  O2    c     0.549889    0.241283    0.679221    0.000000
   130  O2    c     0.238657    0.699383    0.511520    0.000000
   131  O2    c     0.321494    0.544753    0.842711    0.000000
   132  O2    c     0.475891    0.769402    0.180243    0.000000
   133  O2    c     0.318124    0.768728    0.326054    0.000000
   134  O2    c     0.490403    0.722091    0.988131    0.000000
   135  O2    c     0.246288    0.543267    0.656723    0.000000
   136  O2    c     0.712040    0.236935    0.824415    0.000000
   137  O2    c     0.543264    0.308111    0.492143    0.000000
   138  O2    c     0.786082    0.469405    0.156342    0.000000
   139  O3    c     0.796792    0.541108    0.024519    0.000000
   140  O2    c     0.478271    0.248332    0.364217    0.000000
   141  O2    c     0.767393    0.227045    0.696450    0.000000
   142  O2    c     0.224581    0.468462    0.528831    0.000000
   143  O2    c     0.554569    0.760695    0.860202    0.000000
   144  O2    c     0.259685    0.782394    0.199639    0.000000
   145  O2    c     0.548679    0.782564    0.306687    0.000000
   146  O2    c     0.263126    0.491147    0.972827    0.000000
   147  O2    c     0.230931    0.759033    0.639653    0.000000
   148  O2    c     0.479394    0.221773    0.806625    0.000000
   149  O2    c     0.760113    0.538966    0.475184    0.000000
   150  O2    c     0.795518    0.255913    0.137908    0.000000
   151  O2    c     0.236542    0.342152    0.899097    0.000000
   152  O2    c     0.691352    0.908281    0.233265    0.000000
   153  O2    c     0.104038    0.774071    0.566580    0.000000
   154  O2    c     0.779615    0.677072    0.400624    0.000000
   155  O2    c     0.338489    0.099549    0.731641    0.000000
   156  O3    c     0.915786    0.216097    0.069191    0.000000
   157  O2    c     0.334699    0.233807    0.437370    0.000000
   158  O2    c     0.906997    0.664941    0.099953    0.000000
   159  O2    c     0.784668    0.101533    0.769243    0.000000
   160  O2    c     0.696485    0.778867    0.935197    0.000000
   161  O2    c     0.104307    0.330834    0.603679    0.000000
   162  O2    c     0.248793    0.910221    0.274020    0.000000
   163  O2    c     0.597434    0.572444    0.992356    0.000000
   164  O2    c     0.458355    0.026153    0.329293    0.000000
   165  O2    c     0.988018    0.423389    0.659773    0.000000
   166  O2    c     0.422664    0.445564    0.492170    0.000000
   167  O2    c     0.573801    0.979640    0.823322    0.000000
   168  O2    c     0.041532    0.592094    0.150366    0.000000
   169  O2    c     0.571043    0.585261    0.344464    0.000000
   170  O1    c     0.042626    0.436603    0.002390    0.000000
   171  O2    c     0.430469    0.982938    0.675173    0.000000
   172  O2    c     0.450368    0.416060    0.846114    0.000000
   173  O2    c     0.979936    0.561874    0.512005    0.000000
   174  O2    c     0.602733    0.030458    0.179940    0.000000
   175  O2    c     0.598538    0.164977    0.255490    0.000000
   176  O2    c     0.847128    0.423355    0.586777    0.000000
   177  O2    c     0.590073    0.426554    0.919720    0.000000
   178  O2    c     0.432965    0.844907    0.748293    0.000000
   179  O3    c     0.184279    0.579355    0.083344    0.000000
   180  O2    c     0.428058    0.583071    0.417753    0.000000
   181  F     c     0.466784    0.903744    0.253051    0.000000
   182  F     c     0.108827    0.554384    0.584630    0.000000
   183  F     c     0.463949    0.565011    0.918149    0.000000
   184  F     c     0.563803    0.105853    0.750243    0.000000
   185  F     c     0.908764    0.428665    0.069915    0.000000
   186  F     c     0.559133    0.453337    0.418496    0.000000
   187  O2    s     0.948329    0.006509    0.998861    0.000000
   188  O2    s     0.013795    0.921894    0.335705    0.000000
   189  O2    s     0.090953    0.085123    0.667392    0.000000
   190  O2    s     0.085623    0.004091    0.501874    0.000000
   191  O2    s     0.014245    0.080969    0.832497    0.000000
   192  O3    s     0.951172    0.929445    0.171598    0.000000
   193  O2    s     0.365565    0.584433    0.334626    0.000000
   194  O2    s     0.430792    0.777080    0.665353    0.000000
   195  O3    s     0.261952    0.674634    0.995985    0.000000
   196  O2    s     0.658872    0.416977    0.836703    0.000000
   197  O2    s     0.600387    0.235863    0.173092    0.000000
   198  O2    s     0.775031    0.356648    0.503686    0.000000
   199  O3    s     0.571306    0.356005    0.002281    0.000000
   200  O2    s     0.782814    0.424306    0.670326    0.000000
   201  O2    s     0.662905    0.232669    0.338404    0.000000
   202  O2    s     0.422102    0.650854    0.500524    0.000000
   203  O2    s     0.245007    0.587482    0.169069    0.000000
   204  O2    s     0.370312    0.775092    0.830882    0.000000
   205  O2    s     0.126844    0.239830    0.971799    0.000000
   206  O2    s     0.797000    0.902539    0.305471    0.000000
   207  O2    s     0.111045    0.887249    0.638381    0.000000
   208  O2    s     0.888039    0.787006    0.472314    0.000000
   209  O2    s     0.231156    0.102489    0.803272    0.000000
   210  O3    s     0.917475    0.132888    0.145050    0.000000
   211  O2    s     0.229874    0.120313    0.365616    0.000000
   212  O2    s     0.920920    0.790333    0.029449    0.000000
   213  O2    s     0.894905    0.106550    0.697211    0.000000
   214  O2    s     0.800411    0.884078    0.863075    0.000000
   215  O2    s     0.103912    0.220154    0.532178    0.000000
   216  O2    s     0.139612    0.906732    0.202185    0.000000
   217  O2    s     0.940655    0.852590    0.253004    0.000000
   218  O2    s     0.153613    0.076127    0.584722    0.000000
   219  O2    s     0.947562    0.077797    0.915759    0.000000
   220  O2    s     0.086876    0.150839    0.750228    0.000000
   221  O3    s     0.886442    0.940565    0.082212    0.000000
   222  O2    s     0.081144    0.930723    0.419068    0.000000
   223  O3    s     0.900277    0.185044    0.983172    0.000000
   224  O2    s     0.807219    0.700955    0.318583    0.000000
   225  O2    s     0.312271    0.101263    0.649717    0.000000
   226  O2    s     0.099740    0.797314    0.484463    0.000000
   227  O2    s     0.218216    0.303479    0.816810    0.000000
   228  O3    s     0.705516    0.900583    0.151145    0.000000
   229  O2    s     0.219832    0.908041    0.355509    0.000000
   230  O2    s     0.724454    0.810276    0.017706    0.000000
   231  O2    s     0.108017    0.306957    0.685595    0.000000
   232  O2    s     0.809728    0.096512    0.851531    0.000000
   233  O2    s     0.306179    0.210985    0.519569    0.000000
   234  O2    s     0.925466    0.707113    0.184025    0.000000
   235  O2    s     0.339471    0.654381    0.252645    0.000000
   236  O2    s     0.355583    0.677833    0.583420    0.000000
   237  O2    s     0.350429    0.692741    0.914077    0.000000
   238  O2    s     0.687517    0.352380    0.752925    0.000000
   239  O3    s     0.655821    0.325725    0.090115    0.000000
   240  O2    s     0.683866    0.330769    0.420482    0.000000
   241  O2    s     0.378539    0.357160    0.969194    0.000000
   242  O2    s     0.675642    0.035144    0.305177    0.000000
   243  O2    s     0.978709    0.632148    0.637571    0.000000
   244  O2    s     0.633055    0.663312    0.470170    0.000000
   245  O2    s     0.354513    0.970816    0.801105    0.000000
   246  O2    s     0.048651    0.382054    0.134712    0.000000
   247  O2    s     0.352536    0.375152    0.366323    0.000000
   248  O3    s     0.045802    0.667401    0.031141    0.000000
   249  O2    s     0.640294    0.974886    0.697809    0.000000
   250  O2    s     0.672106    0.627766    0.866030    0.000000
   251  O2    s     0.972705    0.343969    0.534044    0.000000
   252  O2    s     0.392727    0.036614    0.203416    0.000000
   253  O1    s     0.759987    0.292443    0.011626    0.000000
   254  O2    s     0.701878    0.464672    0.350269    0.000000
   255  O2    s     0.550327    0.233993    0.682262    0.000000
   256  O2    s     0.231780    0.691964    0.514715    0.000000
   257  O2    s     0.328545    0.545289    0.846022    0.000000
   258  O2    s     0.475329    0.776203    0.183434    0.000000
   259  O2    s     0.325663    0.775789    0.323024    0.000000
   260  O2    s     0.489614    0.713720    0.985045    0.000000
   261  O2    s     0.238997    0.543629    0.653654    0.000000
   262  O2    s     0.704486    0.230003    0.821293    0.000000
   263  O2    s     0.543982    0.315622    0.489019    0.000000
   264  O2    s     0.791877    0.468889    0.153438    0.000000
   265  O3    s     0.802337    0.541029    0.027306    0.000000
   266  O2    s     0.480969    0.256438    0.366813    0.000000
   267  O2    s     0.759359    0.221649    0.699028    0.000000
   268  O2    s     0.219515    0.471346    0.531499    0.000000
   269  O2    s     0.551379    0.752752    0.862823    0.000000
   270  O2    s     0.268328    0.787864    0.202140    0.000000
   271  O2    s     0.545928    0.787758    0.304274    0.000000
   272  O2    s     0.270364    0.492571    0.970156    0.000000
   273  O2    s     0.225552    0.751071    0.637059    0.000000
   274  O2    s     0.482140    0.216638    0.804000    0.000000
   275  O2    s     0.752298    0.536053    0.472546    0.000000
   276  O2    s     0.799204    0.262524    0.136131    0.000000
   277  O2    s     0.246504    0.351044    0.899896    0.000000
   278  O2    s     0.681703    0.907807    0.234325    0.000000
   279  O2    s     0.104245    0.764673    0.567451    0.000000
   280  O2    s     0.770102    0.667396    0.401503    0.000000
   281  O2    s     0.348185    0.099977    0.732537    0.000000
   282  O3    s     0.915548    0.225449    0.071343    0.000000
   283  O2    s     0.344409    0.243195    0.436467    0.000000
   284  O2    s     0.909291    0.658367    0.099647    0.000000
   285  O2    s     0.775312    0.101684    0.768368    0.000000
   286  O2    s     0.686525    0.769816    0.934342    0.000000
   287  O2    s     0.104558    0.340384    0.602762    0.000000
   288  O2    s     0.257994    0.909586    0.273069    0.000000
   289  O2    s     0.593078    0.572964    0.988951    0.000000
   290  O2    s     0.457782    0.021445    0.325853    0.000000
   291  O2    s     0.992642    0.427729    0.656388    0.000000
   292  O2    s     0.427348    0.445185    0.488825    0.000000
   293  O2    s     0.574322    0.984654    0.820022    0.000000
   294  O2    s     0.036776    0.587417    0.148220    0.000000
   295  O2    s     0.571181    0.580653    0.347908    0.000000
   296  O1    s     0.039342    0.438772    0.005911    0.000000
   297  O2    s     0.434896    0.987707    0.678640    0.000000
   298  O2    s     0.450658    0.421567    0.849186    0.000000
   299  O2    s     0.985184    0.562362    0.515352    0.000000
   300  O2    s     0.597682    0.025383    0.183272    0.000000
   301  O2    s     0.593020    0.153942    0.255356    0.000000
   302  O2    s     0.858131    0.428932    0.586689    0.000000
   303  O2    s     0.584529    0.431765    0.919384    0.000000
   304  O2    s     0.438658    0.856015    0.748373    0.000000
   305  O3    s     0.174781    0.574975    0.084440    0.000000
   306  O2    s     0.433593    0.577617    0.417793    0.000000
   307  F     s     0.466622    0.903435    0.252954    0.000000
   308  F     s     0.109261    0.554583    0.584573    0.000000
   309  F     s     0.463579    0.565639    0.918279    0.000000
   310  F     s     0.563971    0.106293    0.750203    0.000000
   311  F     s     0.907712    0.423428    0.067490    0.000000
   312  F     s     0.559294    0.453175    0.418426    0.000000
--------------------------------------------------------------------------------

  Final Cartesian lattice vectors (Angstroms) :

       11.988991    0.008780    0.011416
       -6.044326   10.361635   -0.031205
        0.068358   -0.278396   29.469869


  Final cell parameters and derivatives :

--------------------------------------------------------------------------------
       a           11.989000 Angstrom     dE/de1(xx)    -0.000034 eV/strain
       b           11.995763 Angstrom     dE/de2(yy)    -0.000210 eV/strain
       c           29.471263 Angstrom     dE/de3(zz)     0.000638 eV/strain
       alpha       90.683524 Degrees      dE/de4(yz)     0.000211 eV/strain
       beta        89.812944 Degrees      dE/de5(xz)    -0.000067 eV/strain
       gamma      120.214674 Degrees      dE/de6(xy)     0.000063 eV/strain
--------------------------------------------------------------------------------

  Primitive cell volume =          3662.381523 Angs**3

  Density of cell =      1.767162 g/cm**3

  Non-primitive cell volume =          3662.381523 Angs**3


[...]
     58 Si    c      -0.000101      0.000085     -0.000206      0.000000
     59 Si    c      -0.000099     -0.000064      0.000230      0.000000
     60 Si    c      -0.000037     -0.000050      0.000410      0.000000
     61 O2    c      -0.000172     -0.000093     -0.000642      0.000000
     62 O2    c       0.000029      0.000199     -0.000683      0.000000
     63 O2    c       0.000046     -0.000130     -0.001304      0.000000
     64 O2    c      -0.000124     -0.000035     -0.001036      0.000000
     65 O2    c      -0.000025      0.000005     -0.001032      0.000000
     66 O3    c      -0.000193     -0.000082      0.001681      0.000000
     67 O2    c      -0.000003     -0.000149      0.000577      0.000000
     68 O2    c       0.000111      0.000019      0.000885      0.000000
     69 O3    c      -0.000097      0.000260      0.002544      0.000000
     70 O2    c      -0.000062      0.000195     -0.000293      0.000000
     71 O2    c      -0.000061      0.000177     -0.000958      0.000000
     72 O2    c      -0.000015     -0.000165      0.000350      0.000000
     73 O3    c       0.000544     -0.000867      0.009131      0.000000
     74 O2    c      -0.000068      0.000106     -0.000018      0.000000
     75 O2    c       0.000061      0.000066      0.000166      0.000000
     76 O2    c       0.000177      0.000096      0.000692      0.000000
     77 O2    c      -0.000103     -0.000101      0.000113      0.000000
     78 O2    c      -0.000084     -0.000226      0.000545      0.000000
     79 O2    c      -0.000036     -0.000051     -0.000692      0.000000
     80 O2    c       0.000042      0.000048      0.000371      0.000000
     81 O2    c       0.000009     -0.000036     -0.000233      0.000000
     82 O2    c      -0.000029     -0.000003     -0.000114      0.000000
     83 O2    c      -0.000037      0.000052     -0.000485      0.000000
     84 O3    c      -0.000384      0.000257      0.005102      0.000000
     85 O2    c       0.000013      0.000051     -0.000135      0.000000
     86 O2    c       0.000447     -0.000208     -0.000904      0.000000
     87 O2    c      -0.000067     -0.000007     -0.000118      0.000000
     88 O2    c      -0.000013      0.000038     -0.000062      0.000000
     89 O2    c       0.000057      0.000112     -0.000194      0.000000
     90 O2    c      -0.000052      0.000110     -0.000306      0.000000
     91 O2    c      -0.000100      0.000047     -0.000284      0.000000
     92 O2    c      -0.000307     -0.000047     -0.001440      0.000000
     93 O2    c      -0.000050      0.000168     -0.000230      0.000000
     94 O2    c      -0.000173      0.000049     -0.001250      0.000000
     95 O3    c      -0.000553      0.000148     -0.001656      0.000000
     96 O2    c      -0.000100      0.000038     -0.000951      0.000000
     97 O3    c       0.000569     -0.000683     -0.004770      0.000000
     98 O2    c       0.000143      0.000078     -0.000151      0.000000
     99 O2    c      -0.000071      0.000142     -0.000657      0.000000
    100 O2    c       0.000065      0.000170      0.000021      0.000000
    101 O2    c      -0.000109      0.000056     -0.000756      0.000000
    102 O3    c       0.000440     -0.000482     -0.007568      0.000000
    103 O2    c      -0.000113     -0.000003     -0.000016      0.000000
    104 O2    c      -0.000302     -0.000215      0.000104      0.000000
    105 O2    c       0.000019      0.000042     -0.000757      0.000000
    106 O2    c       0.000022      0.000005     -0.000070      0.000000
    107 O2    c      -0.000024     -0.000160     -0.000437      0.000000
    108 O2    c       0.000018     -0.000278     -0.000574      0.000000
    109 O2    c      -0.000127     -0.000176      0.000234      0.000000
    110 O2    c       0.000215      0.000190      0.000621      0.000000
    111 O2    c      -0.000138      0.000109      0.000220      0.000000
    112 O2    c      -0.000000      0.000192      0.000033      0.000000
    113 O3    c      -0.000478      0.000124      0.007526      0.000000
    114 O2    c      -0.000004     -0.000154      0.000191      0.000000
    115 O2    c      -0.000087     -0.000172      0.000457      0.000000
    116 O2    c      -0.000041      0.000045      0.000394      0.000000
    117 O2    c      -0.000000     -0.000043     -0.000331      0.000000
    118 O2    c       0.000025     -0.000073      0.000018      0.000000
    119 O2    c      -0.000065     -0.000034     -0.000375      0.000000
    120 O2    c      -0.000015     -0.000072      0.000112      0.000000
    121 O2    c       0.000116      0.000021      0.000211      0.000000
    122 O3    c      -0.000084      0.000308     -0.006586      0.000000
    123 O2    c      -0.000053     -0.000008     -0.000046      0.000000
    124 O2    c      -0.000104      0.000023     -0.000259      0.000000
    125 O2    c       0.000020      0.000077      0.000029      0.000000
    126 O2    c      -0.000011      0.000099     -0.000311      0.000000
    127 O1    c       0.000122     -0.000126      0.002717      0.000000
    128 O2    c       0.000079      0.000073      0.000071      0.000000
    129 O2    c      -0.000058      0.000091     -0.000170      0.000000
    130 O2    c       0.000092      0.000188      0.000454      0.000000
    131 O2    c      -0.000105      0.000023     -0.000264      0.000000
    132 O2    c      -0.000178      0.000048     -0.000195      0.000000
    133 O2    c      -0.000147     -0.000014      0.000132      0.000000
    134 O2    c      -0.000045     -0.000042      0.000406      0.000000
    135 O2    c       0.000009     -0.000010     -0.000139      0.000000
    136 O2    c       0.000006     -0.000019     -0.000367      0.000000
    137 O2    c      -0.000074     -0.000211     -0.000027      0.000000
    138 O2    c      -0.000080     -0.000078     -0.000618      0.000000
    139 O3    c      -0.000138      0.000671     -0.001225      0.000000
    140 O2    c       0.000006     -0.000057      0.000175      0.000000
    141 O2    c      -0.000019      0.000117     -0.000052      0.000000
    142 O2    c       0.000192      0.000147      0.000011      0.000000
    143 O2    c      -0.000016      0.000092     -0.000004      0.000000
    144 O2    c      -0.000134     -0.000064      0.000098      0.000000
    145 O2    c      -0.000068     -0.000103      0.000404      0.000000
    146 O2    c      -0.000144     -0.000042      0.000532      0.000000
    147 O2    c       0.000141      0.000084     -0.000171      0.000000
    148 O2    c      -0.000033      0.000153     -0.000522      0.000000
    149 O2    c       0.000043     -0.000131      0.000087      0.000000
    150 O2    c      -0.000070     -0.000080     -0.000347      0.000000
    151 O2    c      -0.000208     -0.000191     -0.000926      0.000000
    152 O2    c      -0.000073      0.000001      0.000912      0.000000
    153 O2    c       0.000092      0.000118     -0.000116      0.000000
    154 O2    c       0.000182      0.000129     -0.000020      0.000000
    155 O2    c      -0.000059      0.000100     -0.000550      0.000000
    156 O3    c       0.000412     -0.000543     -0.001962      0.000000
    157 O2    c      -0.000141     -0.000247     -0.000906      0.000000
    158 O2    c      -0.000088      0.000304      0.000687      0.000000
    159 O2    c      -0.000066     -0.000042     -0.000012      0.000000
    160 O2    c       0.000067      0.000065      0.000294      0.000000
    161 O2    c       0.000029     -0.000059     -0.000674      0.000000
    162 O2    c      -0.000154      0.000079     -0.000061      0.000000
    163 O2    c      -0.000043     -0.000077      0.000456      0.000000
    164 O2    c      -0.000098      0.000132      0.000078      0.000000
    165 O2    c      -0.000164     -0.000204     -0.000303      0.000000
    166 O2    c      -0.000134     -0.000155     -0.000025      0.000000
    167 O2    c      -0.000046     -0.000136     -0.000207      0.000000
    168 O2    c       0.000160      0.000012      0.000042      0.000000
    169 O2    c       0.000141      0.000205      0.000172      0.000000
    170 O1    c       0.000344      0.000598      0.006105      0.000000
    171 O2    c      -0.000200     -0.000034      0.000029      0.000000
    172 O2    c      -0.000125     -0.000133     -0.000524      0.000000
    173 O2    c      -0.000060      0.000109      0.000151      0.000000
    174 O2    c       0.000023      0.000280     -0.000559      0.000000
    175 O2    c       0.000092      0.000312      0.000169      0.000000
    176 O2    c      -0.000211     -0.000140     -0.000006      0.000000
    177 O2    c      -0.000033     -0.000171     -0.001215      0.000000
    178 O2    c      -0.000184     -0.000197      0.000814      0.000000
    179 O3    c       0.000670      0.000003      0.001099      0.000000
    180 O2    c       0.000055      0.000085      0.000634      0.000000
    181 F     c      -0.000063      0.000147     -0.000378      0.000000
    182 F     c      -0.000071     -0.000009      0.000070      0.000000
    183 F     c       0.000019     -0.000056     -0.000455      0.000000
    184 F     c      -0.000155     -0.000072     -0.000108      0.000000
    185 F     c       0.000005     -0.000052     -0.001067      0.000000
    186 F     c       0.000011     -0.000058     -0.000115      0.000000
    187 O2    s      -0.000132      0.000058      0.000387      0.000000
    188 O2    s       0.000045      0.000120      0.000556      0.000000
    189 O2    s       0.000008     -0.000123      0.001344      0.000000
    190 O2    s      -0.000099     -0.000009      0.000877      0.000000
    191 O2    s       0.000100     -0.000010      0.001242      0.000000
    192 O3    s      -0.000050     -0.000359     -0.002658      0.000000
    193 O2    s      -0.000087     -0.000012     -0.000610      0.000000
    194 O2    s       0.000015      0.000072     -0.000972      0.000000
    195 O3    s      -0.000048     -0.000140     -0.002980      0.000000
    196 O2    s       0.000110     -0.000060      0.000478      0.000000
    197 O2    s      -0.000040      0.000002      0.001370      0.000000
    198 O2    s      -0.000024     -0.000122     -0.000509      0.000000
    199 O3    s       0.000474     -0.000166     -0.009937      0.000000
    200 O2    s      -0.000061      0.000076     -0.000099      0.000000
    201 O2    s       0.000054      0.000056     -0.000308      0.000000
    202 O2    s       0.000039      0.000209     -0.000936      0.000000
    203 O2    s       0.000018     -0.000047     -0.000145      0.000000
    204 O2    s      -0.000251      0.000041     -0.000385      0.000000
    205 O2    s       0.000038     -0.000018      0.000762      0.000000
    206 O2    s      -0.000041      0.000072     -0.000638      0.000000
    207 O2    s       0.000001     -0.000010      0.000258      0.000000
    208 O2    s       0.000021     -0.000039      0.000047      0.000000
    209 O2    s       0.000003      0.000002      0.000609      0.000000
    210 O3    s       0.000287     -0.000509     -0.006717      0.000000
    211 O2    s       0.000010      0.000014      0.000095      0.000000
    212 O2    s       0.000184      0.000119      0.001469      0.000000
    213 O2    s      -0.000069     -0.000002      0.000106      0.000000
    214 O2    s       0.000025      0.000045      0.000185      0.000000
    215 O2    s       0.000036      0.000076      0.000106      0.000000
    216 O2    s       0.000059      0.000015      0.000310      0.000000
    217 O2    s      -0.000034     -0.000029      0.000469      0.000000
    218 O2    s      -0.000173     -0.000180      0.000851      0.000000
    219 O2    s       0.000038      0.000037     -0.000410      0.000000
    220 O2    s      -0.000127      0.000003      0.000873      0.000000
    221 O3    s      -0.000151      0.000016      0.001806      0.000000
    222 O2    s      -0.000058     -0.000055      0.000528      0.000000
    223 O3    s      -0.000492      0.000477      0.005213      0.000000
    224 O2    s       0.000134      0.000076      0.000210      0.000000
    225 O2    s      -0.000025      0.000049      0.000637      0.000000
    226 O2    s       0.000133      0.000060     -0.000177      0.000000
    227 O2    s      -0.000137     -0.000066      0.000957      0.000000
    228 O3    s      -0.000202     -0.000009      0.008199      0.000000
    229 O2    s      -0.000017     -0.000099     -0.000102      0.000000
    230 O2    s      -0.000246     -0.000167     -0.000840      0.000000
    231 O2    s      -0.000024      0.000060      0.000794      0.000000
    232 O2    s      -0.000108      0.000116      0.000069      0.000000
    233 O2    s      -0.000021     -0.000185      0.000300      0.000000
    234 O2    s       0.000033     -0.000114      0.000428      0.000000
    235 O2    s      -0.000123     -0.000086     -0.000026      0.000000
    236 O2    s       0.000193      0.000258     -0.000545      0.000000
    237 O2    s      -0.000043     -0.000059      0.000090      0.000000
    238 O2    s       0.000054      0.000168     -0.000063      0.000000
    239 O3    s       0.000520     -0.000440     -0.006555      0.000000
    240 O2    s       0.000049     -0.000166     -0.000134      0.000000
    241 O2    s       0.000151     -0.000235     -0.001106      0.000000
    242 O2    s      -0.000098      0.000035     -0.000760      0.000000
    243 O2    s      -0.000026      0.000004      0.000276      0.000000
    244 O2    s       0.000017     -0.000068     -0.000174      0.000000
    245 O2    s      -0.000108      0.000034      0.000421      0.000000
    246 O2    s       0.000076     -0.000096     -0.000625      0.000000
    247 O2    s       0.000052      0.000106     -0.000228      0.000000
    248 O3    s       0.000336     -0.000103      0.008692      0.000000
    249 O2    s      -0.000096      0.000030      0.000048      0.000000
    250 O2    s      -0.000042     -0.000064      0.000552      0.000000
    251 O2    s       0.000041      0.000076     -0.000164      0.000000
    252 O2    s      -0.000016      0.000097      0.000533      0.000000
    253 O1    s       0.000088      0.000162     -0.003699      0.000000
    254 O2    s       0.000115      0.000048     -0.000025      0.000000
    255 O2    s      -0.000029      0.000060      0.000143      0.000000
    256 O2    s       0.000145      0.000133     -0.000703      0.000000
    257 O2    s      -0.000157     -0.000040      0.000591      0.000000
    258 O2    s       0.000085     -0.000002      0.000376      0.000000
    259 O2    s      -0.000062     -0.000053     -0.000402      0.000000
    260 O2    s      -0.000044     -0.000124     -0.001044      0.000000
    261 O2    s      -0.000003      0.000021      0.000043      0.000000
    262 O2    s      -0.000094      0.000084      0.000426      0.000000
    263 O2    s      -0.000084     -0.000196     -0.000153      0.000000
    264 O2    s       0.000065      0.000153      0.000814      0.000000
    265 O3    s       0.000157     -0.000422      0.001782      0.000000
    266 O2    s       0.000082     -0.000098     -0.000224      0.000000
    267 O2    s      -0.000014      0.000095      0.000083      0.000000
    268 O2    s       0.000096      0.000207     -0.000079      0.000000
    269 O2    s      -0.000074      0.000131      0.000199      0.000000
    270 O2    s      -0.000160     -0.000023      0.000006      0.000000
    271 O2    s      -0.000167     -0.000005     -0.000735      0.000000
    272 O2    s       0.000172     -0.000040     -0.001187      0.000000
    273 O2    s       0.000117      0.000126      0.000070      0.000000
    274 O2    s       0.000021      0.000052      0.000607      0.000000
    275 O2    s       0.000041     -0.000114     -0.000312      0.000000
    276 O2    s       0.000046     -0.000233      0.000082      0.000000
    277 O2    s      -0.000058     -0.000164      0.000893      0.000000
    278 O2    s      -0.000012     -0.000091     -0.001323      0.000000
    279 O2    s       0.000038      0.000183     -0.000093      0.000000
    280 O2    s       0.000177      0.000102     -0.000024      0.000000
    281 O2    s      -0.000101      0.000090      0.000341      0.000000
    282 O3    s      -0.000397      0.000435      0.001134      0.000000
    283 O2    s      -0.000101     -0.000221      0.000751      0.000000
    284 O2    s       0.000245      0.000159     -0.001290      0.000000
    285 O2    s      -0.000037     -0.000024      0.000005      0.000000
    286 O2    s      -0.000019     -0.000028     -0.000268      0.000000
    287 O2    s       0.000024     -0.000030      0.000366      0.000000
    288 O2    s      -0.000060      0.000019     -0.000021      0.000000
    289 O2    s       0.000069     -0.000345     -0.001288      0.000000
    290 O2    s      -0.000002      0.000025     -0.000389      0.000000
    291 O2    s      -0.000177     -0.000146      0.000223      0.000000
    292 O2    s      -0.000106     -0.000145     -0.000217      0.000000
    293 O2    s      -0.000135     -0.000020      0.000236      0.000000
    294 O2    s       0.000064      0.000242     -0.000336      0.000000
    295 O2    s       0.000116      0.000227     -0.000124      0.000000
    296 O1    s       0.000247     -0.000588     -0.007169      0.000000
    297 O2    s      -0.000131     -0.000089     -0.000055      0.000000
    298 O2    s      -0.000108     -0.000220      0.000908      0.000000
    299 O2    s      -0.000009      0.000057     -0.000283      0.000000
    300 O2    s       0.000258     -0.000063      0.000923      0.000000
    301 O2    s       0.000090      0.000180     -0.000140      0.000000
    302 O2    s      -0.000223     -0.000109     -0.000119      0.000000
    303 O2    s       0.000044     -0.000338      0.001555      0.000000
    304 O2    s      -0.000206     -0.000154     -0.000578      0.000000
    305 O3    s      -0.000099      0.000616     -0.000819      0.000000
    306 O2    s      -0.000014      0.000146     -0.000458      0.000000
    307 F     s      -0.000043      0.000159      0.000363      0.000000
    308 F     s      -0.000076     -0.000015     -0.000153      0.000000
    309 F     s       0.000053     -0.000116      0.000356      0.000000
    310 F     s      -0.000158     -0.000076     -0.000032      0.000000
    311 F     s       0.000477      0.000199      0.000937      0.000000
    312 F     s       0.000021     -0.000051      0.000120      0.000000
--------------------------------------------------------------------------------
  Maximum abs         0.000864      0.000867      0.009937      0.000000
--------------------------------------------------------------------------------


  Time to end of optimisation =     524.1250 seconds


  Peak dynamic memory used =      19.13 MB 


  Timing analysis for GULP :

--------------------------------------------------------------------------------
  Task / Subroutine                                          Time (Seconds)
--------------------------------------------------------------------------------
  Calculation of reciprocal space energy and derivatives          9.6277
  Calculation of real space energy and derivatives              277.4496
  Calculation of three-body energy and derivatives               31.1310
  Global summation overhead                                       0.0002
--------------------------------------------------------------------------------
  Total CPU time                                                524.1251
--------------------------------------------------------------------------------


  Dump file written as out.res                                                 
  CIF file written as out.cif                                                 


  Job Finished at 20:45.22  5th December   2016                               

