********************************************************************************
*                       GENERAL UTILITY LATTICE PROGRAM                        *
*                                 Julian Gale                                  *
*                      Nanochemistry Research Institute                        *
*                           Department of Chemistry                            *
*                    Curtin University, Western Australia                      *
********************************************************************************
* Version = 4.2.0 * Last modified =  20th January 2014                         *
********************************************************************************
*  optimise     - perform optimisation run                                     *
*  conp         - constant pressure calculation                                *
*  qok          - running with non charge neutral cell is OK                   *
*  rfo          - optimisation step to be determined by RFO method             *
********************************************************************************

  Job Started  at 19:29.25  5th December   2016                               

  Number of CPUs =     1


  Total number of configurations input =   1

********************************************************************************
*  Input for Configuration =   1                                               *
********************************************************************************

  Formula = Ge4Si56O120F6                                               

  Number of irreducible atoms/shells =     312


  Total number atoms/shells =     312

  Dimensionality = 3               :  Bulk   


  Charge on solid   =  -6.000000 =>neutralising background added


  Cartesian lattice vectors (Angstroms) :

       11.964687    0.000000    0.000000
       -6.045140   10.379328    0.000000
        0.007048   -0.213715   29.455145

  Cell parameters (Angstroms/Degrees):

  a =      11.9647    alpha =  90.3661
  b =      12.0114    beta  =  89.9863
  c =      29.4559    gamma = 120.2174

  Initial cell volume =        3657.899273 Angs**3

  Temperature of configuration =  0.000     K 

  Pressure of configuration =         0.000 GPa 

  Fractional coordinates of asymmetric unit :

--------------------------------------------------------------------------------
   No.  Atomic       x           y          z         Charge      Occupancy
        Label      (Frac)      (Frac)     (Frac)        (e)         (Frac)  
--------------------------------------------------------------------------------
      1 Ge    c    0.699600    0.375700    0.033890     4.00000    1.000000    
      2 Si    c    0.623460 *  0.322891 *  0.367452 *   4.00000    1.000000    
      3 Si    c    0.680813 *  0.297557 *  0.700806 *   4.00000    1.000000    
      4 Si    c    0.297690 *  0.619527 *  0.532882 *   4.00000    1.000000    
      5 Si    c    0.384207 *  0.677270 *  0.863703 *   4.00000    1.000000    
      6 Si    c    0.324719 *  0.694115 *  0.201735 *   4.00000    1.000000    
      7 Si    c    0.378721 *  0.697308 *  0.302597 *   4.00000    1.000000    
      8 Si    c    0.332694 *  0.633232 *  0.964535 *   4.00000    1.000000    
      9 Si    c    0.300261 *  0.676462 *  0.633470 *   4.00000    1.000000    
     10 Si    c    0.624940 *  0.294378 *  0.801524 *   4.00000    1.000000    
     11 Si    c    0.678629 *  0.379258 *  0.468178 *   4.00000    1.000000    
     12 Si    c    0.694393 *  0.310102 *  0.135592 *   4.00000    1.000000    
     13 Si    c    0.525125 *  0.418107 *  0.968159 *   4.00000    1.000000    
     14 Si    c    0.583396 *  0.108589 *  0.303736 *   4.00000    1.000000    
     15 Si    c    0.889739 *  0.469835 *  0.635426 *   4.00000    1.000000    
     16 Si    c    0.470711 *  0.581622 *  0.468179 *   4.00000    1.000000    
     17 Si    c    0.420524 *  0.886358 *  0.799484 *   4.00000    1.000000    
     18 Si    c    0.120118 *  0.522406 *  0.134704 *   4.00000    1.000000    
     19 Si    c    0.418438 *  0.526264 *  0.366535 *   4.00000    1.000000    
     20 Ge    c    0.116145 *  0.579017 *  0.029920 *   4.00000    1.000000    
     21 Si    c    0.474060 *  0.888476 *  0.697931 *   4.00000    1.000000    
     22 Si    c    0.582253 *  0.465173 *  0.866325 *   4.00000    1.000000    
     23 Si    c    0.888291 *  0.416378 *  0.533593 *   4.00000    1.000000    
     24 Si    c    0.529090 *  0.101334 *  0.202188 *   4.00000    1.000000    
     25 Si    c    0.302242 *  0.398040 *  0.851310 *   4.00000    1.000000    
     26 Si    c    0.604130 *  0.896357 *  0.187422 *   4.00000    1.000000    
     27 Si    c    0.096813 *  0.696448 *  0.518887 *   4.00000    1.000000    
     28 Si    c    0.699680 *  0.599548 *  0.351985 *   4.00000    1.000000    
     29 Si    c    0.402281 *  0.096336 *  0.684738 *   4.00000    1.000000    
     30 Ge    c    0.896875 *  0.293775 *  0.017141 *   4.00000    1.000000    
     31 Si    c    0.399468 *  0.301817 *  0.482527 *   4.00000    1.000000    
     32 Ge    c    0.904668 *  0.595985 *  0.149660 *   4.00000    1.000000    
     33 Si    c    0.702673 *  0.094026 *  0.815526 *   4.00000    1.000000    
     34 Si    c    0.608736 *  0.702977 *  0.980125 *   4.00000    1.000000    
     35 Si    c    0.099523 *  0.398686 *  0.648784 *   4.00000    1.000000    
     36 Si    c    0.301643 *  0.897892 *  0.317114 *   4.00000    1.000000    
     37 Si    c    0.247044 *  0.347936 *  0.952053 *   4.00000    1.000000    
     38 Si    c    0.660649 *  0.907528 *  0.288519 *   4.00000    1.000000    
     39 Si    c    0.091083 *  0.748515 *  0.619667 *   4.00000    1.000000    
     40 Si    c    0.749840 *  0.659041 *  0.452824 *   4.00000    1.000000    
     41 Si    c    0.342851 *  0.086549 *  0.785342 *   4.00000    1.000000    
     42 Si    c    0.911334 *  0.241514 *  0.118821 *   4.00000    1.000000    
     43 Si    c    0.341776 *  0.249093 *  0.381761 *   4.00000    1.000000    
     44 Si    c    0.913999 *  0.663755 *  0.046390 *   4.00000    1.000000    
     45 Si    c    0.752956 *  0.089583 *  0.714488 *   4.00000    1.000000    
     46 Si    c    0.663839 *  0.745520 *  0.879151 *   4.00000    1.000000    
     47 Si    c    0.089344 *  0.338864 *  0.547955 *   4.00000    1.000000    
     48 Si    c    0.249764 *  0.900357 *  0.216302 *   4.00000    1.000000    
     49 Si    c    0.969023 *  0.116974 *  0.965692 *   4.00000    1.000000    
     50 Si    c    0.879563 *  0.848249 *  0.302438 *   4.00000    1.000000    
     51 Si    c    0.153921 *  0.028762 *  0.634033 *   4.00000    1.000000    
     52 Si    c    0.030267 *  0.876942 *  0.468481 *   4.00000    1.000000    
     53 Si    c    0.125241 *  0.148949 *  0.799684 *   4.00000    1.000000    
     54 Si    c    0.851091 *  0.966213 *  0.135495 *   4.00000    1.000000    
     55 Si    c    0.123596 *  0.968538 *  0.367640 *   4.00000    1.000000    
     56 Si    c    0.855675 *  0.882957 *  0.032707 *   4.00000    1.000000    
     57 Si    c    0.032982 *  0.151568 *  0.698829 *   4.00000    1.000000    
     58 Si    c    0.882468 *  0.023096 *  0.864726 *   4.00000    1.000000    
     59 Si    c    0.151798 *  0.121502 *  0.533382 *   4.00000    1.000000    
     60 Si    c    0.970085 *  0.845415 *  0.201590 *   4.00000    1.000000    
     61 O2    c    0.941146 *  0.003051 *  0.000660 *   0.87073    1.000000    
     62 O2    c    0.000960 *  0.926393 *  0.335427 *   0.87073    1.000000    
     63 O2    c    0.073307 *  0.071246 *  0.665847 *   0.87073    1.000000    
     64 O2    c    0.071647 *  0.999033 *  0.500877 *   0.87073    1.000000    
     65 O2    c    0.001597 *  0.066221 *  0.830867 *   0.87073    1.000000    
     66 O2    c    0.933706 *  0.924856 *  0.166829 *   0.87073    1.000000    
     67 O2    c    0.340407 *  0.574172 *  0.334608 *   0.87073    1.000000    
     68 O2    c    0.425420 *  0.762950 *  0.665334 *   0.87073    1.000000    
     69 O3    c    0.252868 *  0.674020 *  0.997328 *   1.33043    1.000000    
     70 O2    c    0.660504 *  0.415407 *  0.835031 *   0.87073    1.000000    
     71 O2    c    0.577049 *  0.225558 *  0.170110 *   0.87073    1.000000    
     72 O2    c    0.761885 *  0.340367 *  0.501089 *   0.87073    1.000000    
     73 O3    c    0.563263 *  0.339496 *  0.001315 *   1.33043    1.000000    
     74 O2    c    0.765420 *  0.421076 *  0.668407 *   0.87073    1.000000    
     75 O2    c    0.661033 *  0.235956 *  0.335420 *   0.87073    1.000000    
     76 O2    c    0.421105 *  0.658141 *  0.500190 *   0.87073    1.000000    
     77 O2    c    0.242928 *  0.569698 *  0.168935 *   0.87073    1.000000    
     78 O2    c    0.344395 *  0.759632 *  0.830775 *   0.87073    1.000000    
     79 O2    c    0.120581 *  0.224530 *  0.972803 *   0.87073    1.000000    
     80 O2    c    0.787090 *  0.909096 *  0.309159 *   0.87073    1.000000    
     81 O2    c    0.090967 *  0.874852 *  0.639534 *   0.87073    1.000000    
     82 O2    c    0.875573 *  0.786200 *  0.473118 *   0.87073    1.000000    
     83 O2    c    0.216502 *  0.086501 *  0.805272 *   0.87073    1.000000    
     84 O2    c    0.910151 *  0.119116 *  0.142813 *   0.87073    1.000000    
     85 O2    c    0.215477 *  0.122059 *  0.361593 *   0.87073    1.000000    
     86 O2    c    0.919292 *  0.793760 *  0.028567 *   0.87073    1.000000    
     87 O2    c    0.878544 *  0.089082 *  0.693929 *   0.87073    1.000000    
     88 O2    c    0.790629 *  0.869371 *  0.858143 *   0.87073    1.000000    
     89 O2    c    0.087995 *  0.211590 *  0.528153 *   0.87073    1.000000    
     90 O2    c    0.123651 *  0.898774 *  0.195444 *   0.87073    1.000000    
     91 O2    c    0.934409 *  0.868611 *  0.251829 *   0.87073    1.000000    
     92 O2    c    0.140598 *  0.068115 *  0.583531 *   0.87073    1.000000    
     93 O2    c    0.940318 *  0.058488 *  0.914990 *   0.87073    1.000000    
     94 O2    c    0.075137 *  0.138185 *  0.748803 *   0.87073    1.000000    
     95 O2    c    0.861998 *  0.931193 *  0.084079 *   0.87073    1.000000    
     96 O2    c    0.072051 *  0.930511 *  0.418220 *   0.87073    1.000000    
     97 O3    c    0.884287 *  0.179586 *  0.976443 *   1.33043    1.000000    
     98 O2    c    0.797603 *  0.695827 *  0.313338 *   0.87073    1.000000    
     99 O2    c    0.305876 *  0.098726 *  0.646301 *   0.87073    1.000000    
    100 O2    c    0.098598 *  0.794452 *  0.480685 *   0.87073    1.000000    
    101 O2    c    0.204863 *  0.299656 *  0.812803 *   0.87073    1.000000    
    102 O2    c    0.699653 *  0.892568 *  0.149095 *   0.87073    1.000000    
    103 O2    c    0.203810 *  0.897380 *  0.355366 *   0.87073    1.000000    
    104 O2    c    0.704820 *  0.802162 *  0.018690 *   0.87073    1.000000    
    105 O2    c    0.102436 *  0.302981 *  0.686863 *   0.87073    1.000000    
    106 O2    c    0.799695 *  0.093081 *  0.854014 *   0.87073    1.000000    
    107 O2    c    0.303412 *  0.204609 *  0.520969 *   0.87073    1.000000    
    108 O3    c    0.896708 *  0.694827 *  0.191490 *   1.33043    1.000000    
    109 O2    c    0.323557 *  0.638846 *  0.252146 *   0.87073    1.000000    
    110 O2    c    0.356633 *  0.676907 *  0.583022 *   0.87073    1.000000    
    111 O2    c    0.328945 *  0.683767 *  0.913592 *   0.87073    1.000000    
    112 O2    c    0.682187 *  0.353737 *  0.751505 *   0.87073    1.000000    
    113 O3    c    0.635666 *  0.302816 *  0.086260 *   1.33043    1.000000    
    114 O2    c    0.680541 *  0.323417 *  0.417708 *   0.87073    1.000000    
    115 O2    c    0.368059 *  0.336092 *  0.969943 *   0.87073    1.000000    
    116 O2    c    0.670887 *  0.040169 *  0.306503 *   0.87073    1.000000    
    117 O2    c    0.958711 *  0.626059 *  0.638087 *   0.87073    1.000000    
    118 O2    c    0.627423 *  0.669310 *  0.470962 *   0.87073    1.000000    
    119 O2    c    0.332263 *  0.953971 *  0.803009 *   0.87073    1.000000    
    120 O2    c    0.049535 *  0.366231 *  0.132278 *   0.87073    1.000000    
    121 O2    c    0.330995 *  0.370106 *  0.363061 *   0.87073    1.000000    
    122 O3    c    0.039824 *  0.669190 *  0.025621 *   1.33043    1.000000    
    123 O2    c    0.630681 *  0.957683 *  0.695242 *   0.87073    1.000000    
    124 O2    c    0.670597 *  0.620904 *  0.861730 *   0.87073    1.000000    
    125 O2    c    0.956281 *  0.328553 *  0.529884 *   0.87073    1.000000    
    126 O2    c    0.372621 *  0.031704 *  0.197824 *   0.87073    1.000000    
    127 O1    c    0.756121 *  0.291161 *  0.004275 *   1.73396    1.000000    
    128 O2    c    0.698748 *  0.465105 *  0.344443 *   0.87073    1.000000    
    129 O2    c    0.537329 *  0.230215 *  0.678037 *   0.87073    1.000000    
    130 O2    c    0.229821 *  0.694626 *  0.510662 *   0.87073    1.000000    
    131 O2    c    0.307652 *  0.533267 *  0.841553 *   0.87073    1.000000    
    132 O2    c    0.468387 *  0.763651 *  0.179555 *   0.87073    1.000000    
    133 O2    c    0.302423 *  0.764756 *  0.324505 *   0.87073    1.000000    
    134 O2    c    0.476953 *  0.707465 *  0.986656 *   0.87073    1.000000    
    135 O2    c    0.233396 *  0.533829 *  0.655846 *   0.87073    1.000000    
    136 O2    c    0.701216 *  0.227114 *  0.823450 *   0.87073    1.000000    
    137 O2    c    0.534464 *  0.303800 *  0.489912 *   0.87073    1.000000    
    138 O3    c    0.758444 *  0.455775 *  0.153933 *   1.33043    1.000000    
    139 O3    c    0.780314 *  0.543538 *  0.030041 *   1.33043    1.000000    
    140 O2    c    0.467023 *  0.247560 *  0.362236 *   0.87073    1.000000    
    141 O2    c    0.755401 *  0.216537 *  0.695501 *   0.87073    1.000000    
    142 O2    c    0.215589 *  0.463405 *  0.527847 *   0.87073    1.000000    
    143 O2    c    0.540531 *  0.749615 *  0.858994 *   0.87073    1.000000    
    144 O2    c    0.246989 *  0.772640 *  0.196750 *   0.87073    1.000000    
    145 O2    c    0.534820 *  0.781897 *  0.307975 *   0.87073    1.000000    
    146 O2    c    0.252064 *  0.476716 *  0.971385 *   0.87073    1.000000    
    147 O2    c    0.217781 *  0.749644 *  0.638907 *   0.87073    1.000000    
    148 O2    c    0.468538 *  0.211866 *  0.805641 *   0.87073    1.000000    
    149 O2    c    0.751547 *  0.535110 *  0.472690 *   0.87073    1.000000    
    150 O2    c    0.793491 *  0.255250 *  0.139202 *   0.87073    1.000000    
    151 O2    c    0.227028 *  0.329241 *  0.897582 *   0.87073    1.000000    
    152 O2    c    0.677709 *  0.902178 *  0.234246 *   0.87073    1.000000    
    153 O2    c    0.092953 *  0.767029 *  0.565329 *   0.87073    1.000000    
    154 O2    c    0.769996 *  0.675190 *  0.398441 *   0.87073    1.000000    
    155 O2    c    0.326179 *  0.089574 *  0.730984 *   0.87073    1.000000    
    156 O3    c    0.899321 *  0.211908 *  0.065983 *   1.33043    1.000000    
    157 O2    c    0.324363 *  0.231012 *  0.436057 *   0.87073    1.000000    
    158 O3    c    0.922974 *  0.679942 *  0.100960 *   1.33043    1.000000    
    159 O2    c    0.772568 *  0.090896 *  0.768811 *   0.87073    1.000000    
    160 O2    c    0.684184 *  0.768483 *  0.933400 *   0.87073    1.000000    
    161 O2    c    0.093179 *  0.323317 *  0.602223 *   0.87073    1.000000    
    162 O2    c    0.230535 *  0.900242 *  0.270610 *   0.87073    1.000000    
    163 O2    c    0.588730 *  0.562447 *  0.990082 *   0.87073    1.000000    
    164 O2    c    0.441558 *  0.023315 *  0.326317 *   0.87073    1.000000    
    165 O2    c    0.974855 *  0.413622 *  0.657919 *   0.87073    1.000000    
    166 O2    c    0.414187 *  0.441194 *  0.491227 *   0.87073    1.000000    
    167 O2    c    0.561665 *  0.969759 *  0.823227 *   0.87073    1.000000    
    168 O3    c    0.027547 *  0.565338 *  0.159069 *   1.33043    1.000000    
    169 O2    c    0.559645 *  0.584506 *  0.342981 *   0.87073    1.000000    
    170 O1    c    0.037503 *  0.431813 *  0.003924 *   1.73396    1.000000    
    171 O2    c    0.416650 *  0.971852 *  0.674860 *   0.87073    1.000000    
    172 O2    c    0.439840 *  0.406296 *  0.843656 *   0.87073    1.000000    
    173 O2    c    0.970652 *  0.556938 *  0.510186 *   0.87073    1.000000    
    174 O2    c    0.591150 *  0.021975 *  0.178676 *   0.87073    1.000000    
    175 O2    c    0.582122 *  0.158582 *  0.252723 *   0.87073    1.000000    
    176 O2    c    0.835506 *  0.416029 *  0.584520 *   0.87073    1.000000    
    177 O2    c    0.581307 *  0.416707 *  0.917642 *   0.87073    1.000000    
    178 O2    c    0.420227 *  0.834448 *  0.748383 *   0.87073    1.000000    
    179 O3    c    0.169374 *  0.582382 *  0.085578 *   1.33043    1.000000    
    180 O2    c    0.417739 *  0.579950 *  0.417221 *   0.87073    1.000000    
    181 F     c    0.451312 *  0.898318 *  0.251395 *   0.56000    1.000000    
    182 F     c    0.097603 *  0.547153 *  0.583156 *   0.56000    1.000000    
    183 F     c    0.452820 *  0.551966 *  0.915256 *   0.56000    1.000000    
    184 F     c    0.551626 *  0.095049 *  0.749464 *   0.56000    1.000000    
    185 F     c    0.896363 *  0.435716 *  0.070704 *   0.56000    1.000000    
    186 F     c    0.549357 *  0.450927 *  0.416511 *   0.56000    1.000000    
    187 O2    s    0.934522 *  0.001721 *  0.000531 *  -2.87073    1.000000    
    188 O2    s    0.001030 *  0.922282 *  0.335320 *  -2.87073    1.000000    
    189 O2    s    0.077866 *  0.075447 *  0.665955 *  -2.87073    1.000000    
    190 O2    s    0.075964 *  0.999010 *  0.500872 *  -2.87073    1.000000    
    191 O2    s    0.002195 *  0.070745 *  0.831144 *  -2.87073    1.000000    
    192 O2    s    0.928605 *  0.920685 *  0.167199 *  -2.87073    1.000000    
    193 O2    s    0.352391 *  0.582060 *  0.334544 *  -2.87073    1.000000    
    194 O2    s    0.417450 *  0.766903 *  0.665374 *  -2.87073    1.000000    
    195 O3    s    0.250375 *  0.662803 *  0.996571 *  -3.33043    1.000000    
    196 O2    s    0.648838 *  0.407966 *  0.834757 *  -2.87073    1.000000    
    197 O2    s    0.584258 *  0.221266 *  0.169877 *  -2.87073    1.000000    
    198 O2    s    0.766207 *  0.352188 *  0.500996 *  -2.87073    1.000000    
    199 O3    s    0.569559 *  0.350408 *  0.000343 *  -3.33043    1.000000    
    200 O2    s    0.769649 *  0.413535 *  0.668312 *  -2.87073    1.000000    
    201 O2    s    0.649168 *  0.231627 *  0.335409 *  -2.87073    1.000000    
    202 O2    s    0.413630 *  0.646240 *  0.500218 *  -2.87073    1.000000    
    203 O2    s    0.238936 *  0.577631 *  0.168839 *  -2.87073    1.000000    
    204 O2    s    0.356430 *  0.764399 *  0.830901 *  -2.87073    1.000000    
    205 O2    s    0.118328 *  0.226491 *  0.969924 *  -2.87073    1.000000    
    206 O2    s    0.783756 *  0.902480 *  0.306329 *  -2.87073    1.000000    
    207 O2    s    0.097629 *  0.878054 *  0.636927 *  -2.87073    1.000000    
    208 O2    s    0.879001 *  0.782656 *  0.470537 *  -2.87073    1.000000    
    209 O2    s    0.219964 *  0.093129 *  0.802630 *  -2.87073    1.000000    
    210 O2    s    0.904025 *  0.115342 *  0.139657 *  -2.87073    1.000000    
    211 O2    s    0.218779 *  0.118865 *  0.364299 *  -2.87073    1.000000    
    212 O2    s    0.911679 *  0.790164 *  0.030847 *  -2.87073    1.000000    
    213 O2    s    0.882057 *  0.095823 *  0.696554 *  -2.87073    1.000000    
    214 O2    s    0.787303 *  0.872907 *  0.860977 *  -2.87073    1.000000    
    215 O2    s    0.094879 *  0.215129 *  0.530713 *  -2.87073    1.000000    
    216 O2    s    0.120919 *  0.893412 *  0.198216 *  -2.87073    1.000000    
    217 O2    s    0.932244 *  0.863768 *  0.251914 *  -2.87073    1.000000    
    218 O2    s    0.143377 *  0.069759 *  0.583512 *  -2.87073    1.000000    
    219 O2    s    0.936944 *  0.060847 *  0.914834 *  -2.87073    1.000000    
    220 O2    s    0.075992 *  0.140940 *  0.748847 *  -2.87073    1.000000    
    221 O2    s    0.860073 *  0.929908 *  0.084325 *  -2.87073    1.000000    
    222 O2    s    0.073217 *  0.928791 *  0.418122 *  -2.87073    1.000000    
    223 O3    s    0.894375 *  0.180932 *  0.978178 *  -3.33043    1.000000    
    224 O2    s    0.796352 *  0.702095 *  0.316066 *  -2.87073    1.000000    
    225 O2    s    0.299501 *  0.091038 *  0.648897 *  -2.87073    1.000000    
    226 O2    s    0.091128 *  0.793249 *  0.483277 *  -2.87073    1.000000    
    227 O2    s    0.206275 *  0.293517 *  0.815338 *  -2.87073    1.000000    
    228 O2    s    0.705684 *  0.900644 *  0.151618 *  -2.87073    1.000000    
    229 O2    s    0.205389 *  0.904976 *  0.352719 *  -2.87073    1.000000    
    230 O2    s    0.711002 *  0.800600 *  0.016228 *  -2.87073    1.000000    
    231 O2    s    0.094810 *  0.296821 *  0.684218 *  -2.87073    1.000000    
    232 O2    s    0.798421 *  0.085961 *  0.851220 *  -2.87073    1.000000    
    233 O2    s    0.297210 *  0.205814 *  0.518319 *  -2.87073    1.000000    
    234 O3    s    0.904791 *  0.702537 *  0.189312 *  -3.33043    1.000000    
    235 O2    s    0.329316 *  0.650541 *  0.252104 *  -2.87073    1.000000    
    236 O2    s    0.344784 *  0.670941 *  0.583015 *  -2.87073    1.000000    
    237 O2    s    0.334984 *  0.677938 *  0.913660 *  -2.87073    1.000000    
    238 O2    s    0.676268 *  0.342011 *  0.751396 *  -2.87073    1.000000    
    239 O3    s    0.646363 *  0.308984 *  0.087268 *  -3.33043    1.000000    
    240 O2    s    0.674494 *  0.329064 *  0.417681 *  -2.87073    1.000000    
    241 O2    s    0.371228 *  0.345836 *  0.967817 *  -2.87073    1.000000    
    242 O2    s    0.660811 *  0.033294 *  0.304323 *  -2.87073    1.000000    
    243 O2    s    0.965467 *  0.622834 *  0.635879 *  -2.87073    1.000000    
    244 O2    s    0.624109 *  0.659188 *  0.468759 *  -2.87073    1.000000    
    245 O2    s    0.342419 *  0.960900 *  0.800792 *  -2.87073    1.000000    
    246 O2    s    0.042568 *  0.369381 *  0.131122 *  -2.87073    1.000000    
    247 O2    s    0.341117 *  0.373518 *  0.365379 *  -2.87073    1.000000    
    248 O3    s    0.033026 *  0.661466 *  0.028055 *  -3.33043    1.000000    
    249 O2    s    0.627334 *  0.964379 *  0.697548 *  -2.87073    1.000000    
    250 O2    s    0.660823 *  0.618074 *  0.864045 *  -2.87073    1.000000    
    251 O2    s    0.963177 *  0.338624 *  0.532156 *  -2.87073    1.000000    
    252 O2    s    0.375784 *  0.024990 *  0.200238 *  -2.87073    1.000000    
    253 O1    s    0.762699 *  0.297933 *  0.007577 *  -3.73396    1.000000    
    254 O2    s    0.691184 *  0.464622 *  0.347596 *  -2.87073    1.000000    
    255 O2    s    0.537829 *  0.223029 *  0.681111 *  -2.87073    1.000000    
    256 O2    s    0.222816 *  0.687101 *  0.513836 *  -2.87073    1.000000    
    257 O2    s    0.314943 *  0.533817 *  0.844880 *  -2.87073    1.000000    
    258 O2    s    0.467875 *  0.770487 *  0.182707 *  -2.87073    1.000000    
    259 O2    s    0.310182 *  0.771809 *  0.321440 *  -2.87073    1.000000    
    260 O2    s    0.476171 *  0.699371 *  0.983651 *  -2.87073    1.000000    
    261 O2    s    0.226164 *  0.534254 *  0.652767 *  -2.87073    1.000000    
    262 O2    s    0.693614 *  0.220124 *  0.820360 *  -2.87073    1.000000    
    263 O2    s    0.535061 *  0.311382 *  0.486851 *  -2.87073    1.000000    
    264 O3    s    0.764304 *  0.453246 *  0.151781 *  -3.33043    1.000000    
    265 O3    s    0.787878 *  0.542779 *  0.032025 *  -3.33043    1.000000    
    266 O2    s    0.469812 *  0.255672 *  0.364856 *  -2.87073    1.000000    
    267 O2    s    0.747268 *  0.211190 *  0.698077 *  -2.87073    1.000000    
    268 O2    s    0.210399 *  0.466162 *  0.530501 *  -2.87073    1.000000    
    269 O2    s    0.537486 *  0.741513 *  0.861636 *  -2.87073    1.000000    
    270 O2    s    0.255209 *  0.778174 *  0.199282 *  -2.87073    1.000000    
    271 O2    s    0.532143 *  0.786797 *  0.305324 *  -2.87073    1.000000    
    272 O2    s    0.259582 *  0.478598 *  0.968726 *  -2.87073    1.000000    
    273 O2    s    0.212495 *  0.741822 *  0.636284 *  -2.87073    1.000000    
    274 O2    s    0.471252 *  0.206760 *  0.803018 *  -2.87073    1.000000    
    275 O2    s    0.743623 *  0.532229 *  0.470084 *  -2.87073    1.000000    
    276 O2    s    0.795906 *  0.259581 *  0.136667 *  -2.87073    1.000000    
    277 O2    s    0.237019 *  0.338452 *  0.898403 *  -2.87073    1.000000    
    278 O2    s    0.668177 *  0.902113 *  0.235064 *  -2.87073    1.000000    
    279 O2    s    0.093155 *  0.757632 *  0.566192 *  -2.87073    1.000000    
    280 O2    s    0.760504 *  0.665557 *  0.399283 *  -2.87073    1.000000    
    281 O2    s    0.335942 *  0.089955 *  0.731863 *  -2.87073    1.000000    
    282 O3    s    0.900339 *  0.221104 *  0.067855 *  -3.33043    1.000000    
    283 O2    s    0.334088 *  0.240364 *  0.435156 *  -2.87073    1.000000    
    284 O3    s    0.920605 *  0.671250 *  0.099930 *  -3.33043    1.000000    
    285 O2    s    0.763198 *  0.091094 *  0.767943 *  -2.87073    1.000000    
    286 O2    s    0.674201 *  0.759260 *  0.932557 *  -2.87073    1.000000    
    287 O2    s    0.093431 *  0.332875 *  0.601317 *  -2.87073    1.000000    
    288 O2    s    0.239984 *  0.900006 *  0.269706 *  -2.87073    1.000000    
    289 O2    s    0.584302 *  0.563076 *  0.986768 *  -2.87073    1.000000    
    290 O2    s    0.441370 *  0.018584 *  0.322958 *  -2.87073    1.000000    
    291 O2    s    0.979592 *  0.418070 *  0.654570 *  -2.87073    1.000000    
    292 O2    s    0.418689 *  0.440841 *  0.487869 *  -2.87073    1.000000    
    293 O2    s    0.562207 *  0.974694 *  0.819914 *  -2.87073    1.000000    
    294 O3    s    0.026018 *  0.563658 *  0.155889 *  -3.33043    1.000000    
    295 O2    s    0.560032 *  0.579907 *  0.346385 *  -2.87073    1.000000    
    296 O1    s    0.032570 *  0.432740 *  0.007028 *  -3.73396    1.000000    
    297 O2    s    0.421248 *  0.976741 *  0.678318 *  -2.87073    1.000000    
    298 O2    s    0.440022 *  0.411731 *  0.846853 *  -2.87073    1.000000    
    299 O2    s    0.975849 *  0.557349 *  0.513560 *  -2.87073    1.000000    
    300 O2    s    0.586009 *  0.016609 *  0.182029 *  -2.87073    1.000000    
    301 O2    s    0.576715 *  0.147388 *  0.252777 *  -2.87073    1.000000    
    302 O2    s    0.846553 *  0.421598 *  0.584482 *  -2.87073    1.000000    
    303 O2    s    0.575845 *  0.421965 *  0.917312 *  -2.87073    1.000000    
    304 O2    s    0.425897 *  0.845533 *  0.748424 *  -2.87073    1.000000    
    305 O3    s    0.160357 *  0.576075 *  0.086328 *  -3.33043    1.000000    
    306 O2    s    0.423325 *  0.574510 *  0.417227 *  -2.87073    1.000000    
    307 F     s    0.451045 *  0.898095 *  0.251286 *  -1.56000    1.000000    
    308 F     s    0.098027 *  0.547349 *  0.583080 *  -1.56000    1.000000    
    309 F     s    0.452487 *  0.552405 *  0.915199 *  -1.56000    1.000000    
    310 F     s    0.551787 *  0.095430 *  0.749404 *  -1.56000    1.000000    
    311 F     s    0.894653 *  0.433688 *  0.069208 *  -1.56000    1.000000    
    312 F     s    0.549524 *  0.450738 *  0.416410 *  -1.56000    1.000000    
--------------------------------------------------------------------------------



********************************************************************************
*  General input information                                                   *
********************************************************************************

  Species output for all configurations : 

--------------------------------------------------------------------------------
  Species    Type    Atomic    Atomic    Charge       Radii (Angs)     Library
                     Number     Mass       (e)     Cova   Ionic  VDW   Symbol
--------------------------------------------------------------------------------
    Si       Core       14      28.09   4.000000   1.200  0.000  2.100          
    O1       Core        8      16.00   1.733957   0.730  0.000  1.360          
    O1       Shell       8       0.00  -3.733957   0.730  0.000  1.360          
    O2       Core        8      16.00   0.870733   0.730  0.000  1.360          
    O2       Shell       8       0.00  -2.870733   0.730  0.000  1.360          
    O3       Core        8      16.00   1.330431   0.730  0.000  1.360          
    O3       Shell       8       0.00  -3.330431   0.730  0.000  1.360          
    F        Core        9      19.00   0.560000   0.710  0.000  1.300          
    F        Shell       9       0.00  -1.560000   0.710  0.000  1.300          
    Ge       Core       32      72.61   4.000000   1.170  0.000  1.750          
--------------------------------------------------------------------------------


  Lattice summation method               =    Ewald          (3-D)
                                         =    Parry          (2-D)
                                         =    Saunders et al (1-D)
  Accuracy factor for lattice sums       =   12.000


  Time limit = Infinity

  Maximum range for interatomic potentials =        16.000000 Angstroms

  Taper potentials to zero over   1.0000 Angstroms using polynomial

  General interatomic potentials :

--------------------------------------------------------------------------------
Atom  Types   Potential         A         B         C         D     Cutoffs(Ang)
  1     2                                                            Min    Max 
--------------------------------------------------------------------------------
Si   c O1   s Buckingham    0.132E+04 0.318      10.1      0.00     0.000 16.000
Si   c O2   s Buckingham    0.132E+04 0.318      10.1      0.00     0.000 16.000
Si   c O3   s Buckingham    0.132E+04 0.318      10.1      0.00     0.000 16.000
Ge   c O1   s Buckingham    0.150E+04 0.326      16.8      0.00     0.000 16.000
Ge   c O2   s Buckingham    0.150E+04 0.326      16.8      0.00     0.000 16.000
Ge   c O3   s Buckingham    0.150E+04 0.326      16.8      0.00     0.000 16.000
O1   s O1   s Buckingham    0.228E+05 0.149      10.9      0.00     0.000 16.000
O1   s O2   s Buckingham    0.228E+05 0.149      10.9      0.00     0.000 16.000
O1   s O3   s Buckingham    0.228E+05 0.149      10.9      0.00     0.000 16.000
O2   s O2   s Buckingham    0.228E+05 0.149      10.9      0.00     0.000 16.000
O2   s O3   s Buckingham    0.228E+05 0.149      10.9      0.00     0.000 16.000
O3   s O3   s Buckingham    0.228E+05 0.149      10.9      0.00     0.000 16.000
Si   c F    s Buckingham     977.     0.282      0.00      0.00     0.000 16.000
Ge   c F    s Buckingham     681.     0.320      0.00      0.00     0.000 16.000
F    s F    s Buckingham     540.     0.262      0.00      0.00     0.000 16.000
O1   s F    s Buckingham    0.168E+04 0.268      0.00      0.00     0.000 16.000
O2   s F    s Buckingham    0.168E+04 0.268      0.00      0.00     0.000 16.000
O3   s F    s Buckingham    0.168E+04 0.268      0.00      0.00     0.000 16.000
O2   c O2   s Spring (c-s)   76.0      0.00      0.00      0.00     0.000  0.800
O3   c O3   s Spring (c-s)   128.      0.00      0.00      0.00     0.000  0.800
O1   c O1   s Spring (c-s)   180.      0.00      0.00      0.00     0.000  0.800
F    c F    s Spring (c-s)   33.5      0.00      0.00      0.00     0.000  0.800
--------------------------------------------------------------------------------

  General Three-body potentials :

  Harmonic form:

--------------------------------------------------------------------------------
Atom    Atom    Atom           Force Constants            Theta     Cutoffs  
  1       2       3     (eVrad**-2/eVrad**-3/eVrad**-4)   (deg)  1-2  1-3  2-3
--------------------------------------------------------------------------------
Si    c O1    s O1    s  1.261        0.0000    0.0000   109.470 0.00 0.00 0.00
                                                                 1.90 1.90 3.50
Si    c O1    s O2    s  1.261        0.0000    0.0000   109.470 0.00 0.00 0.00
                                                                 1.90 1.90 3.50
Si    c O2    s O2    s  1.261        0.0000    0.0000   109.470 0.00 0.00 0.00
                                                                 1.90 1.90 3.50
--------------------------------------------------------------------------------

********************************************************************************
*  Output for configuration   1                                                *
********************************************************************************


  Components of energy : 

--------------------------------------------------------------------------------
  Interatomic potentials     =        2060.18454471 eV
  Three-body potentials      =           0.42381493 eV
  Monopole - monopole (real) =       -6578.24829210 eV
  Monopole - monopole (recip)=       -3194.99811610 eV
  Monopole - monopole (total)=       -9773.24640820 eV
  Neutralising energy        =          -6.45938788 eV
--------------------------------------------------------------------------------
  Total lattice energy       =       -7719.09743644 eV
--------------------------------------------------------------------------------
  Total lattice energy       =         -744774.9054 kJ/(mole unit cells)
--------------------------------------------------------------------------------


  Number of variables =      939

  Maximum number of calculations  =          1000
  Maximum Hessian update interval =            10
  Maximum step size               =   0.010000000
  Maximum parameter tolerance     =   0.000010000
  Maximum function  tolerance     =   0.000010000
  Maximum gradient  tolerance     =   0.001000000
  Maximum gradient  component     =   0.010000000

  Symmetry not applied to optimisation

  Cell parameters to be optimised using strains

  RFO method to be used

  DFP hessian update to be used

  Dumpfile to be written after every cycle

  Start of bulk optimisation :

  Cycle:      0 Energy:     -7719.097436  Gnorm:      0.000413  CPU:    1.039
  ** Hessian has wrong structure
  ** Imaginary eigenvectors =   1
  Cycle:      1 Energy:     -7719.098654  Gnorm:      0.000583  CPU:    6.408
  ** Hessian has wrong structure
  ** Imaginary eigenvectors =   1
  Cycle:      2 Energy:     -7719.101557  Gnorm:      0.001591  CPU:   12.985
  ** Hessian has wrong structure
  ** Imaginary eigenvectors =   1
  Cycle:      3 Energy:     -7719.108170  Gnorm:      0.004221  CPU:   19.009
  ** Hessian has wrong structure
  ** Imaginary eigenvectors =   1
  Cycle:      4 Energy:     -7719.117681  Gnorm:      0.007959  CPU:   24.698
  ** Hessian has required structure
  Cycle:      5 Energy:     -7719.120842  Gnorm:      0.007686  CPU:   28.416
  ** Hessian has required structure
  Cycle:      6 Energy:     -7719.123722  Gnorm:      0.007529  CPU:   31.476
  ** Hessian has required structure
  Cycle:      7 Energy:     -7719.126352  Gnorm:      0.007151  CPU:   34.535
  ** Hessian has required structure
  Cycle:      8 Energy:     -7719.128527  Gnorm:      0.007012  CPU:   37.595
  ** Hessian has required structure
  Cycle:      9 Energy:     -7719.131248  Gnorm:      0.006112  CPU:   40.656
  ** Hessian has required structure
  Cycle:     10 Energy:     -7719.133500  Gnorm:      0.006020  CPU:   43.714
  ** Hessian has required structure
  Cycle:     11 Energy:     -7719.135035  Gnorm:      0.005696  CPU:   46.774
  ** Hessian has required structure
  Cycle:     12 Energy:     -7719.136218  Gnorm:      0.005446  CPU:   49.834
  ** Hessian has required structure
  Cycle:     13 Energy:     -7719.137293  Gnorm:      0.005179  CPU:   52.892
  ** Hessian has required structure
  Cycle:     14 Energy:     -7719.138265  Gnorm:      0.004949  CPU:   55.951
  ** Hessian has required structure
  Cycle:     15 Energy:     -7719.139192  Gnorm:      0.004720  CPU:   59.670
  ** Hessian has required structure
  Cycle:     16 Energy:     -7719.140027  Gnorm:      0.004514  CPU:   62.730
  ** Hessian has required structure
  Cycle:     17 Energy:     -7719.140776  Gnorm:      0.004307  CPU:   65.791
  ** Hessian has required structure
  Cycle:     18 Energy:     -7719.141446  Gnorm:      0.004106  CPU:   68.850
  ** Hessian has required structure
  Cycle:     19 Energy:     -7719.142048  Gnorm:      0.003911  CPU:   71.910
  ** Hessian has required structure
  Cycle:     20 Energy:     -7719.142588  Gnorm:      0.003723  CPU:   74.970
  ** Hessian has required structure
  Cycle:     21 Energy:     -7719.143075  Gnorm:      0.003543  CPU:   78.030
  ** Hessian has required structure
  Cycle:     22 Energy:     -7719.143513  Gnorm:      0.003371  CPU:   81.090
  ** Hessian has required structure
  Cycle:     23 Energy:     -7719.143907  Gnorm:      0.003207  CPU:   84.151
  ** Hessian has required structure
  Cycle:     24 Energy:     -7719.144262  Gnorm:      0.003050  CPU:   87.212
  ** Hessian has required structure
  Cycle:     25 Energy:     -7719.144582  Gnorm:      0.002901  CPU:   90.999
  ** Hessian has required structure
  Cycle:     26 Energy:     -7719.144870  Gnorm:      0.002762  CPU:   94.058
  ** Hessian has required structure
  Cycle:     27 Energy:     -7719.145130  Gnorm:      0.002629  CPU:   97.118
  ** Hessian has required structure
  Cycle:     28 Energy:     -7719.145364  Gnorm:      0.002502  CPU:  100.179
  ** Hessian has required structure
  Cycle:     29 Energy:     -7719.145575  Gnorm:      0.002380  CPU:  103.238
  ** Hessian has required structure
  Cycle:     30 Energy:     -7719.145765  Gnorm:      0.002264  CPU:  106.298
  ** Hessian has required structure
  Cycle:     31 Energy:     -7719.145936  Gnorm:      0.002153  CPU:  109.358
  ** Hessian has required structure
  Cycle:     32 Energy:     -7719.146091  Gnorm:      0.002048  CPU:  112.418
  ** Hessian has required structure
  Cycle:     33 Energy:     -7719.146230  Gnorm:      0.001947  CPU:  115.479
  ** Hessian has required structure
  Cycle:     34 Energy:     -7719.146356  Gnorm:      0.001852  CPU:  118.539
  ** Hessian has required structure
  Cycle:     35 Energy:     -7719.146469  Gnorm:      0.001760  CPU:  122.258
  ** Hessian has required structure
  Cycle:     36 Energy:     -7719.146571  Gnorm:      0.001674  CPU:  125.317
  ** Hessian has required structure
  Cycle:     37 Energy:     -7719.146663  Gnorm:      0.001591  CPU:  128.376
  ** Hessian has required structure
  Cycle:     38 Energy:     -7719.146747  Gnorm:      0.001513  CPU:  131.435
  ** Hessian has required structure
  Cycle:     39 Energy:     -7719.146822  Gnorm:      0.001439  CPU:  134.494
  ** Hessian has required structure
  Cycle:     40 Energy:     -7719.146889  Gnorm:      0.001368  CPU:  137.554
  ** Hessian has required structure
  Cycle:     41 Energy:     -7719.146950  Gnorm:      0.001300  CPU:  140.614
  ** Hessian has required structure
  Cycle:     42 Energy:     -7719.147005  Gnorm:      0.001236  CPU:  143.674
  ** Hessian has required structure
  Cycle:     43 Energy:     -7719.147035  Gnorm:      0.001199  CPU:  146.067
  ** Hessian has required structure
  Cycle:     44 Energy:     -7719.147059  Gnorm:      0.001169  CPU:  148.461
  ** Hessian has required structure
  Cycle:     45 Energy:     -7719.147086  Gnorm:      0.001134  CPU:  151.586
  ** Hessian has required structure
  Cycle:     46 Energy:     -7719.147108  Gnorm:      0.001105  CPU:  153.981
  ** Hessian has required structure
  Cycle:     47 Energy:     -7719.147126  Gnorm:      0.001080  CPU:  156.376
  ** Hessian has required structure
  Cycle:     48 Energy:     -7719.147143  Gnorm:      0.001056  CPU:  158.769
  ** Hessian has required structure
  Cycle:     49 Energy:     -7719.147158  Gnorm:      0.001034  CPU:  161.163
  ** Hessian has required structure
  Cycle:     50 Energy:     -7719.147173  Gnorm:      0.001013  CPU:  163.558
  ** Hessian has required structure
  Cycle:     51 Energy:     -7719.147187  Gnorm:      0.000992  CPU:  165.953
  ** Hessian has required structure
  Cycle:     52 Energy:     -7719.147200  Gnorm:      0.000972  CPU:  168.346
  ** Hessian has required structure
  Cycle:     53 Energy:     -7719.147213  Gnorm:      0.000952  CPU:  170.741
  ** Hessian has required structure
  Cycle:     54 Energy:     -7719.147225  Gnorm:      0.000932  CPU:  173.136
  ** Hessian has required structure
  Cycle:     55 Energy:     -7719.147242  Gnorm:      0.000904  CPU:  176.191
  ** Hessian has required structure
  Cycle:     56 Energy:     -7719.147256  Gnorm:      0.000881  CPU:  178.586
  ** Hessian has required structure
  Cycle:     57 Energy:     -7719.147268  Gnorm:      0.000861  CPU:  181.130
  ** Hessian has required structure
  Cycle:     58 Energy:     -7719.147278  Gnorm:      0.000843  CPU:  183.523
  ** Hessian has required structure
  Cycle:     59 Energy:     -7719.147288  Gnorm:      0.000825  CPU:  185.919
  ** Hessian has required structure
  Cycle:     60 Energy:     -7719.147297  Gnorm:      0.000808  CPU:  188.314
  ** Hessian has required structure
  Cycle:     61 Energy:     -7719.147306  Gnorm:      0.000791  CPU:  190.709
  ** Hessian has required structure
  Cycle:     62 Energy:     -7719.147315  Gnorm:      0.000775  CPU:  193.104
  ** Hessian has required structure
  Cycle:     63 Energy:     -7719.147323  Gnorm:      0.000759  CPU:  195.500
  ** Hessian has required structure
  Cycle:     64 Energy:     -7719.147330  Gnorm:      0.000744  CPU:  197.895
  ** Hessian has required structure
  Cycle:     65 Energy:     -7719.147341  Gnorm:      0.000721  CPU:  200.949
  ** Hessian has required structure
  Cycle:     66 Energy:     -7719.147350  Gnorm:      0.000703  CPU:  203.344
  ** Hessian has required structure
  Cycle:     67 Energy:     -7719.147357  Gnorm:      0.000687  CPU:  205.737
  ** Hessian has required structure
  Cycle:     68 Energy:     -7719.147364  Gnorm:      0.000672  CPU:  208.131
  ** Hessian has required structure
  Cycle:     69 Energy:     -7719.147370  Gnorm:      0.000658  CPU:  210.525
  ** Hessian has required structure
  Cycle:     70 Energy:     -7719.147376  Gnorm:      0.000644  CPU:  213.046
  ** Hessian has required structure
  Cycle:     71 Energy:     -7719.147382  Gnorm:      0.000631  CPU:  215.441
  ** Hessian has required structure
  Cycle:     72 Energy:     -7719.147387  Gnorm:      0.000618  CPU:  217.836
  ** Hessian has required structure
  Cycle:     73 Energy:     -7719.147392  Gnorm:      0.000605  CPU:  220.231
  ** Hessian has required structure
  Cycle:     74 Energy:     -7719.147397  Gnorm:      0.000593  CPU:  222.627
  ** Hessian has required structure
  Cycle:     75 Energy:     -7719.147404  Gnorm:      0.000575  CPU:  225.682
  ** Hessian has required structure
  Cycle:     76 Energy:     -7719.147409  Gnorm:      0.000561  CPU:  228.076
  ** Hessian has required structure
  Cycle:     77 Energy:     -7719.147414  Gnorm:      0.000548  CPU:  230.472
  ** Hessian has required structure
  Cycle:     78 Energy:     -7719.147418  Gnorm:      0.000536  CPU:  232.867
  ** Hessian has required structure
  Cycle:     79 Energy:     -7719.147422  Gnorm:      0.000524  CPU:  235.262
  ** Hessian has required structure
  Cycle:     80 Energy:     -7719.147426  Gnorm:      0.000513  CPU:  237.658
  ** Hessian has required structure
  Cycle:     81 Energy:     -7719.147430  Gnorm:      0.000503  CPU:  240.051
  ** Hessian has required structure
  Cycle:     82 Energy:     -7719.147433  Gnorm:      0.000493  CPU:  242.448
  ** Hessian has required structure
  Cycle:     83 Energy:     -7719.147436  Gnorm:      0.000483  CPU:  244.844
  ** Hessian has required structure
  Cycle:     84 Energy:     -7719.147439  Gnorm:      0.000473  CPU:  247.262
  ** Hessian has required structure
  Cycle:     85 Energy:     -7719.147444  Gnorm:      0.000459  CPU:  250.318
  ** Hessian has required structure
  Cycle:     86 Energy:     -7719.147447  Gnorm:      0.000447  CPU:  252.713
  ** Hessian has required structure
  Cycle:     87 Energy:     -7719.147450  Gnorm:      0.000437  CPU:  255.108
  ** Hessian has required structure
  Cycle:     88 Energy:     -7719.147453  Gnorm:      0.000427  CPU:  257.503
  ** Hessian has required structure
  Cycle:     89 Energy:     -7719.147456  Gnorm:      0.000418  CPU:  259.899
  ** Hessian has required structure
  Cycle:     90 Energy:     -7719.147458  Gnorm:      0.000409  CPU:  262.294
  ** Hessian has required structure
  Cycle:     91 Energy:     -7719.147460  Gnorm:      0.000401  CPU:  264.689
  ** Hessian has required structure
  Cycle:     92 Energy:     -7719.147462  Gnorm:      0.000393  CPU:  267.084
  ** Hessian has required structure
  Cycle:     93 Energy:     -7719.147464  Gnorm:      0.000385  CPU:  269.481
  ** Hessian has required structure
  Cycle:     94 Energy:     -7719.147466  Gnorm:      0.000377  CPU:  271.876
  ** Hessian has required structure
  Cycle:     95 Energy:     -7719.147469  Gnorm:      0.000366  CPU:  274.930
  ** Hessian has required structure
  Cycle:     96 Energy:     -7719.147471  Gnorm:      0.000356  CPU:  277.325
  ** Hessian has required structure
  Cycle:     97 Energy:     -7719.147473  Gnorm:      0.000348  CPU:  279.720
  ** Hessian has required structure
  Cycle:     98 Energy:     -7719.147475  Gnorm:      0.000340  CPU:  282.115
  ** Hessian has required structure
  Cycle:     99 Energy:     -7719.147477  Gnorm:      0.000333  CPU:  284.510
  ** Hessian has required structure
  Cycle:    100 Energy:     -7719.147478  Gnorm:      0.000326  CPU:  286.906
  ** Hessian has required structure
  Cycle:    101 Energy:     -7719.147479  Gnorm:      0.000320  CPU:  289.302
  ** Hessian has required structure
  Cycle:    102 Energy:     -7719.147481  Gnorm:      0.000313  CPU:  291.697
  ** Hessian has required structure
  Cycle:    103 Energy:     -7719.147482  Gnorm:      0.000307  CPU:  294.159
  ** Hessian has required structure
  Cycle:    104 Energy:     -7719.147483  Gnorm:      0.000300  CPU:  296.553
  ** Hessian has required structure
  Cycle:    105 Energy:     -7719.147485  Gnorm:      0.000291  CPU:  299.607
  ** Hessian has required structure
  Cycle:    106 Energy:     -7719.147487  Gnorm:      0.000284  CPU:  302.003
  ** Hessian has required structure
  Cycle:    107 Energy:     -7719.147488  Gnorm:      0.000277  CPU:  304.397
  ** Hessian has required structure
  Cycle:    108 Energy:     -7719.147489  Gnorm:      0.000271  CPU:  306.792
  ** Hessian has required structure
  Cycle:    109 Energy:     -7719.147490  Gnorm:      0.000266  CPU:  309.187
  ** Hessian has required structure
  Cycle:    110 Energy:     -7719.147491  Gnorm:      0.000260  CPU:  311.581
  ** Hessian has required structure
  Cycle:    111 Energy:     -7719.147492  Gnorm:      0.000255  CPU:  313.976
  ** Hessian has required structure
  Cycle:    112 Energy:     -7719.147493  Gnorm:      0.000250  CPU:  316.370
  ** Hessian has required structure
  Cycle:    113 Energy:     -7719.147493  Gnorm:      0.000244  CPU:  318.765
  ** Hessian has required structure
  Cycle:    114 Energy:     -7719.147494  Gnorm:      0.000239  CPU:  321.162
  ** Hessian has required structure
  Cycle:    115 Energy:     -7719.147495  Gnorm:      0.000232  CPU:  324.217
  ** Hessian has required structure
  Cycle:    116 Energy:     -7719.147496  Gnorm:      0.000226  CPU:  326.613
  ** Hessian has required structure
  Cycle:    117 Energy:     -7719.147497  Gnorm:      0.000221  CPU:  329.009
  ** Hessian has required structure
  Cycle:    118 Energy:     -7719.147498  Gnorm:      0.000216  CPU:  331.405
  ** Hessian has required structure
  Cycle:    119 Energy:     -7719.147498  Gnorm:      0.000212  CPU:  333.801
  ** Hessian has required structure
  Cycle:    120 Energy:     -7719.147499  Gnorm:      0.000207  CPU:  336.197
  ** Hessian has required structure
  Cycle:    121 Energy:     -7719.147500  Gnorm:      0.000203  CPU:  338.593
  ** Hessian has required structure
  Cycle:    122 Energy:     -7719.147500  Gnorm:      0.000199  CPU:  340.988
  ** Hessian has required structure
  Cycle:    123 Energy:     -7719.147501  Gnorm:      0.000195  CPU:  343.384
  ** Hessian has required structure
  Cycle:    124 Energy:     -7719.147501  Gnorm:      0.000191  CPU:  345.780
  ** Hessian has required structure
  Cycle:    125 Energy:     -7719.147502  Gnorm:      0.000185  CPU:  348.834
  ** Hessian has required structure
  Cycle:    126 Energy:     -7719.147502  Gnorm:      0.000180  CPU:  351.229
  ** Hessian has required structure
  Cycle:    127 Energy:     -7719.147503  Gnorm:      0.000176  CPU:  353.626
  ** Hessian has required structure
  Cycle:    128 Energy:     -7719.147503  Gnorm:      0.000172  CPU:  356.022
  ** Hessian has required structure
  Cycle:    129 Energy:     -7719.147504  Gnorm:      0.000169  CPU:  358.417
  ** Hessian has required structure
  Cycle:    130 Energy:     -7719.147504  Gnorm:      0.000165  CPU:  360.812
  ** Hessian has required structure
  Cycle:    131 Energy:     -7719.147504  Gnorm:      0.000162  CPU:  363.206
  ** Hessian has required structure
  Cycle:    132 Energy:     -7719.147505  Gnorm:      0.000159  CPU:  365.602
  ** Hessian has required structure
  Cycle:    133 Energy:     -7719.147505  Gnorm:      0.000155  CPU:  367.997
  ** Hessian has required structure
  Cycle:    134 Energy:     -7719.147505  Gnorm:      0.000152  CPU:  370.392
  ** Hessian has required structure
  Cycle:    135 Energy:     -7719.147506  Gnorm:      0.000148  CPU:  373.447
  ** Hessian has required structure
  Cycle:    136 Energy:     -7719.147506  Gnorm:      0.000144  CPU:  375.842
  ** Hessian has required structure
  Cycle:    137 Energy:     -7719.147507  Gnorm:      0.000140  CPU:  378.238
  ** Hessian has required structure
  Cycle:    138 Energy:     -7719.147507  Gnorm:      0.000137  CPU:  380.632
  ** Hessian has required structure
  Cycle:    139 Energy:     -7719.147507  Gnorm:      0.000135  CPU:  383.028
  ** Hessian has required structure
  Cycle:    140 Energy:     -7719.147507  Gnorm:      0.000132  CPU:  385.423
  ** Hessian has required structure
  Cycle:    141 Energy:     -7719.147508  Gnorm:      0.000129  CPU:  387.818
  ** Hessian has required structure
  Cycle:    142 Energy:     -7719.147508  Gnorm:      0.000126  CPU:  390.281
  ** Hessian has required structure
  Cycle:    143 Energy:     -7719.147508  Gnorm:      0.000124  CPU:  392.677
  ** Hessian has required structure
  Cycle:    144 Energy:     -7719.147508  Gnorm:      0.000121  CPU:  395.071
  ** Hessian has required structure
  Cycle:    145 Energy:     -7719.147509  Gnorm:      0.000118  CPU:  398.125
  ** Hessian has required structure
  Cycle:    146 Energy:     -7719.147509  Gnorm:      0.000115  CPU:  400.588
  ** Hessian has required structure
  Cycle:    147 Energy:     -7719.147509  Gnorm:      0.000112  CPU:  402.983
  ** Hessian has required structure
  Cycle:    148 Energy:     -7719.147509  Gnorm:      0.000110  CPU:  405.378
  ** Hessian has required structure
  Cycle:    149 Energy:     -7719.147509  Gnorm:      0.000107  CPU:  407.772
  ** Hessian has required structure
  Cycle:    150 Energy:     -7719.147509  Gnorm:      0.000105  CPU:  410.166
  ** Hessian has required structure
  Cycle:    151 Energy:     -7719.147510  Gnorm:      0.000103  CPU:  412.561
  ** Hessian has required structure
  Cycle:    152 Energy:     -7719.147510  Gnorm:      0.000101  CPU:  414.956
  ** Hessian has required structure
  Cycle:    153 Energy:     -7719.147510  Gnorm:      0.000099  CPU:  417.350
  ** Hessian has required structure
  Cycle:    154 Energy:     -7719.147510  Gnorm:      0.000097  CPU:  419.745
  ** Hessian has required structure
  Cycle:    155 Energy:     -7719.147510  Gnorm:      0.000094  CPU:  422.800
  ** Hessian has required structure
  Cycle:    156 Energy:     -7719.147510  Gnorm:      0.000091  CPU:  425.195
  ** Hessian has required structure
  Cycle:    157 Energy:     -7719.147510  Gnorm:      0.000089  CPU:  427.591
  ** Hessian has required structure
  Cycle:    158 Energy:     -7719.147511  Gnorm:      0.000087  CPU:  429.986
  ** Hessian has required structure
  Cycle:    159 Energy:     -7719.147511  Gnorm:      0.000085  CPU:  432.380
  ** Hessian has required structure
  Cycle:    160 Energy:     -7719.147511  Gnorm:      0.000084  CPU:  434.775
  ** Hessian has required structure
  Cycle:    161 Energy:     -7719.147511  Gnorm:      0.000082  CPU:  437.171
  ** Hessian has required structure
  Cycle:    162 Energy:     -7719.147511  Gnorm:      0.000080  CPU:  439.566
  ** Hessian has required structure
  Cycle:    163 Energy:     -7719.147511  Gnorm:      0.000079  CPU:  441.962
  ** Hessian has required structure
  Cycle:    164 Energy:     -7719.147511  Gnorm:      0.000077  CPU:  444.355
  ** Hessian has required structure
  Cycle:    165 Energy:     -7719.147511  Gnorm:      0.000075  CPU:  447.477
  ** Hessian has required structure
  Cycle:    166 Energy:     -7719.147511  Gnorm:      0.000073  CPU:  449.873
  ** Hessian has required structure
  Cycle:    167 Energy:     -7719.147511  Gnorm:      0.000071  CPU:  452.269
  ** Hessian has required structure
  Cycle:    168 Energy:     -7719.147511  Gnorm:      0.000070  CPU:  454.672
  ** Hessian has required structure
  Cycle:    169 Energy:     -7719.147512  Gnorm:      0.000068  CPU:  457.068
  ** Hessian has required structure
  Cycle:    170 Energy:     -7719.147512  Gnorm:      0.000067  CPU:  459.463
  ** Hessian has required structure
  Cycle:    171 Energy:     -7719.147512  Gnorm:      0.000065  CPU:  461.858
  ** Hessian has required structure
  Cycle:    172 Energy:     -7719.147512  Gnorm:      0.000064  CPU:  464.254
  ** Hessian has required structure
  Cycle:    173 Energy:     -7719.147512  Gnorm:      0.000063  CPU:  466.647
  ** Hessian has required structure
  Cycle:    174 Energy:     -7719.147512  Gnorm:      0.000061  CPU:  469.168
  ** Hessian has required structure
  Cycle:    175 Energy:     -7719.147512  Gnorm:      0.000060  CPU:  472.221
  ** Hessian has required structure
  Cycle:    176 Energy:     -7719.147512  Gnorm:      0.000058  CPU:  474.617
  ** Hessian has required structure
  Cycle:    177 Energy:     -7719.147512  Gnorm:      0.000057  CPU:  477.033
  ** Hessian has required structure
  Cycle:    178 Energy:     -7719.147512  Gnorm:      0.000055  CPU:  479.485
  ** Hessian has required structure
  Cycle:    179 Energy:     -7719.147512  Gnorm:      0.000054  CPU:  481.881
  ** Hessian has required structure
  Cycle:    180 Energy:     -7719.147512  Gnorm:      0.000053  CPU:  484.285
  ** Hessian has required structure
  Cycle:    181 Energy:     -7719.147512  Gnorm:      0.000052  CPU:  486.681
  ** Hessian has required structure
  Cycle:    182 Energy:     -7719.147512  Gnorm:      0.000051  CPU:  489.076
  ** Hessian has required structure
  Cycle:    183 Energy:     -7719.147512  Gnorm:      0.000050  CPU:  491.539
  ** Hessian has required structure
  Cycle:    184 Energy:     -7719.147512  Gnorm:      0.000049  CPU:  493.934
  ** Hessian has required structure
  Cycle:    185 Energy:     -7719.147512  Gnorm:      0.000047  CPU:  496.988
  ** Hessian has required structure
  Cycle:    186 Energy:     -7719.147512  Gnorm:      0.000046  CPU:  499.382
  ** Hessian has required structure
  Cycle:    187 Energy:     -7719.147512  Gnorm:      0.000045  CPU:  501.778
  ** Hessian has required structure
  Cycle:    188 Energy:     -7719.147512  Gnorm:      0.000044  CPU:  504.172
  ** Hessian has required structure
  Cycle:    189 Energy:     -7719.147512  Gnorm:      0.000043  CPU:  506.566
  ** Hessian has required structure
  Cycle:    190 Energy:     -7719.147512  Gnorm:      0.000042  CPU:  508.961
  ** Hessian has required structure
  Cycle:    191 Energy:     -7719.147513  Gnorm:      0.000042  CPU:  511.356
  ** Hessian has required structure
  Cycle:    192 Energy:     -7719.147513  Gnorm:      0.000041  CPU:  513.751
  ** Hessian has required structure
  Cycle:    193 Energy:     -7719.147513  Gnorm:      0.000040  CPU:  516.147
  ** Hessian has required structure
  Cycle:    194 Energy:     -7719.147513  Gnorm:      0.000039  CPU:  518.542
  ** Hessian has required structure
  Cycle:    195 Energy:     -7719.147513  Gnorm:      0.000038  CPU:  521.597
  ** Hessian has required structure
  Cycle:    196 Energy:     -7719.147513  Gnorm:      0.000037  CPU:  523.992
  ** Hessian has required structure
  Cycle:    197 Energy:     -7719.147513  Gnorm:      0.000036  CPU:  526.387
  ** Hessian has required structure
  Cycle:    198 Energy:     -7719.147513  Gnorm:      0.000035  CPU:  528.782
  ** Hessian has required structure
  Cycle:    199 Energy:     -7719.147513  Gnorm:      0.000034  CPU:  531.176
  ** Hessian has required structure
  Cycle:    200 Energy:     -7719.147513  Gnorm:      0.000034  CPU:  533.570
  ** Hessian has required structure
  Cycle:    201 Energy:     -7719.147513  Gnorm:      0.000033  CPU:  535.966
  ** Hessian has required structure
  Cycle:    202 Energy:     -7719.147513  Gnorm:      0.000032  CPU:  538.362
  ** Hessian has required structure
  Cycle:    203 Energy:     -7719.147513  Gnorm:      0.000032  CPU:  540.757
  ** Hessian has required structure
  Cycle:    204 Energy:     -7719.147513  Gnorm:      0.000031  CPU:  543.151
  ** Hessian has required structure


  **** Optimisation achieved ****


  Final energy =   -7719.14751278 eV
  Final Gnorm  =       0.00003015

  Components of energy : 

--------------------------------------------------------------------------------
  Interatomic potentials     =        2060.04481206 eV
  Three-body potentials      =           0.43402890 eV
  Monopole - monopole (real) =       -6576.74572353 eV
  Monopole - monopole (recip)=       -3196.41836966 eV
  Monopole - monopole (total)=       -9773.16409320 eV
  Neutralising energy        =          -6.46226054 eV
--------------------------------------------------------------------------------
  Total lattice energy       =       -7719.14751278 eV
--------------------------------------------------------------------------------
  Total lattice energy       =         -744779.7370 kJ/(mole unit cells)
--------------------------------------------------------------------------------

  Final fractional coordinates of atoms :

--------------------------------------------------------------------------------
   No.  Atomic        x           y          z          Radius
        Label       (Frac)      (Frac)     (Frac)       (Angs) 
--------------------------------------------------------------------------------
     1  Ge    c     0.699600    0.375700    0.033890    0.000000
     2  Si    c     0.613969    0.312016    0.364922    0.000000
     3  Si    c     0.677966    0.294275    0.699244    0.000000
     4  Si    c     0.288842    0.611165    0.529210    0.000000
     5  Si    c     0.377660    0.669744    0.859524    0.000000
     6  Si    c     0.312795    0.686415    0.197725    0.000000
     7  Si    c     0.366327    0.685074    0.298460    0.000000
     8  Si    c     0.323845    0.628949    0.959881    0.000000
     9  Si    c     0.297005    0.671447    0.629744    0.000000
    10  Si    c     0.621261    0.288527    0.800054    0.000000
    11  Si    c     0.669265    0.371209    0.465654    0.000000
    12  Si    c     0.677753    0.302413    0.133105    0.000000
    13  Si    c     0.522929    0.416795    0.968120    0.000000
    14  Si    c     0.572398    0.096584    0.301718    0.000000
    15  Si    c     0.885953    0.465718    0.633718    0.000000
    16  Si    c     0.459275    0.571468    0.463827    0.000000
    17  Si    c     0.416915    0.879655    0.795478    0.000000
    18  Si    c     0.107570    0.518205    0.129235    0.000000
    19  Si    c     0.406457    0.513745    0.362121    0.000000
    20  Ge    c     0.105334    0.574349    0.024450    0.000000
    21  Si    c     0.471699    0.884764    0.693881    0.000000
    22  Si    c     0.578231    0.458912    0.865376    0.000000
    23  Si    c     0.879397    0.409447    0.531815    0.000000
    24  Si    c     0.517530    0.093008    0.200136    0.000000
    25  Si    c     0.297040    0.391230    0.848910    0.000000
    26  Si    c     0.593074    0.888652    0.184257    0.000000
    27  Si    c     0.087558    0.688848    0.516272    0.000000
    28  Si    c     0.688876    0.587268    0.348356    0.000000
    29  Si    c     0.399475    0.092647    0.681698    0.000000
    30  Ge    c     0.881398    0.280779    0.009895    0.000000
    31  Si    c     0.389018    0.293004    0.478861    0.000000
    32  Ge    c     0.887561    0.589984    0.143877    0.000000
    33  Si    c     0.698949    0.087688    0.812711    0.000000
    34  Si    c     0.600025    0.701007    0.977116    0.000000
    35  Si    c     0.096850    0.394837    0.646108    0.000000
    36  Si    c     0.290214    0.885609    0.314314    0.000000
    37  Si    c     0.243272    0.345931    0.949672    0.000000
    38  Si    c     0.648497    0.895377    0.285417    0.000000
    39  Si    c     0.086925    0.743584    0.617122    0.000000
    40  Si    c     0.739387    0.649510    0.449187    0.000000
    41  Si    c     0.339611    0.080180    0.782271    0.000000
    42  Si    c     0.895969    0.235595    0.114167    0.000000
    43  Si    c     0.331027    0.237661    0.378101    0.000000
    44  Si    c     0.899855    0.658748    0.040872    0.000000
    45  Si    c     0.750583    0.086477    0.711738    0.000000
    46  Si    c     0.658066    0.739343    0.876180    0.000000
    47  Si    c     0.081016    0.331343    0.545350    0.000000
    48  Si    c     0.237482    0.891568    0.213650    0.000000
    49  Si    c     0.966254    0.111884    0.961396    0.000000
    50  Si    c     0.867576    0.835779    0.299260    0.000000
    51  Si    c     0.149934    0.023709    0.630913    0.000000
    52  Si    c     0.019814    0.868396    0.465491    0.000000
    53  Si    c     0.121583    0.141776    0.796526    0.000000
    54  Si    c     0.841280    0.962265    0.132201    0.000000
    55  Si    c     0.113020    0.956912    0.364575    0.000000
    56  Si    c     0.848338    0.880993    0.029399    0.000000
    57  Si    c     0.030987    0.148206    0.695613    0.000000
    58  Si    c     0.878910    0.015089    0.861163    0.000000
    59  Si    c     0.142202    0.113275    0.530230    0.000000
    60  Si    c     0.958267    0.839248    0.197997    0.000000
    61  O2    c     0.935296    0.002509    0.998249    0.000000
    62  O2    c     0.989288    0.913369    0.332470    0.000000
    63  O2    c     0.069616    0.067219    0.662383    0.000000
    64  O2    c     0.060307    0.990444    0.497890    0.000000
    65  O2    c     0.996212    0.057012    0.826688    0.000000
    66  O2    c     0.925763    0.924557    0.164383    0.000000
    67  O2    c     0.328055    0.560879    0.329795    0.000000
    68  O2    c     0.424145    0.760106    0.660923    0.000000
    69  O3    c     0.239622    0.668448    0.991355    0.000000
    70  O2    c     0.656039    0.407589    0.834512    0.000000
    71  O2    c     0.563994    0.217623    0.168745    0.000000
    72  O2    c     0.751932    0.333188    0.499475    0.000000
    73  O3    c     0.559518    0.339445    0.001478    0.000000
    74  O2    c     0.763041    0.418315    0.667317    0.000000
    75  O2    c     0.651069    0.223367    0.333716    0.000000
    76  O2    c     0.410126    0.648640    0.495639    0.000000
    77  O2    c     0.229735    0.564149    0.163961    0.000000
    78  O2    c     0.339248    0.751651    0.825778    0.000000
    79  O2    c     0.115501    0.222758    0.970296    0.000000
    80  O2    c     0.774540    0.895841    0.306387    0.000000
    81  O2    c     0.088161    0.870404    0.637051    0.000000
    82  O2    c     0.864739    0.777519    0.469503    0.000000
    83  O2    c     0.212777    0.079264    0.802283    0.000000
    84  O2    c     0.898191    0.114984    0.137865    0.000000
    85  O2    c     0.205112    0.109915    0.357876    0.000000
    86  O2    c     0.912749    0.792804    0.023883    0.000000
    87  O2    c     0.876307    0.086828    0.690911    0.000000
    88  O2    c     0.785940    0.861673    0.855132    0.000000
    89  O2    c     0.077798    0.203120    0.525737    0.000000
    90  O2    c     0.112089    0.891874    0.192631    0.000000
    91  O2    c     0.921638    0.857842    0.248621    0.000000
    92  O2    c     0.134259    0.060192    0.580230    0.000000
    93  O2    c     0.941152    0.050877    0.911189    0.000000
    94  O2    c     0.073765    0.133614    0.745407    0.000000
    95  O2    c     0.854559    0.927634    0.080922    0.000000
    96  O2    c     0.062928    0.921941    0.415385    0.000000
    97  O3    c     0.877278    0.172937    0.969365    0.000000
    98  O2    c     0.786446    0.683250    0.309696    0.000000
    99  O2    c     0.302672    0.095126    0.643133    0.000000
   100  O2    c     0.088094    0.786052    0.478124    0.000000
   101  O2    c     0.200069    0.291509    0.810534    0.000000
   102  O2    c     0.689561    0.887322    0.145735    0.000000
   103  O2    c     0.192707    0.884801    0.352800    0.000000
   104  O2    c     0.697044    0.802882    0.015178    0.000000
   105  O2    c     0.101349    0.299637    0.684064    0.000000
   106  O2    c     0.796004    0.085519    0.851329    0.000000
   107  O2    c     0.293435    0.196473    0.517349    0.000000
   108  O3    c     0.883125    0.690483    0.185907    0.000000
   109  O2    c     0.311659    0.628198    0.247620    0.000000
   110  O2    c     0.351013    0.669916    0.579088    0.000000
   111  O2    c     0.319833    0.678323    0.908754    0.000000
   112  O2    c     0.679005    0.349101    0.750244    0.000000
   113  O3    c     0.616581    0.310055    0.085952    0.000000
   114  O2    c     0.671707    0.314393    0.415403    0.000000
   115  O2    c     0.364376    0.335962    0.968437    0.000000
   116  O2    c     0.659849    0.027888    0.303913    0.000000
   117  O2    c     0.955209    0.621734    0.636118    0.000000
   118  O2    c     0.616273    0.659440    0.466815    0.000000
   119  O2    c     0.328877    0.947509    0.799436    0.000000
   120  O2    c     0.022652    0.363120    0.133662    0.000000
   121  O2    c     0.319426    0.357707    0.358966    0.000000
   122  O3    c     0.037790    0.672171    0.030183    0.000000
   123  O2    c     0.628773    0.955015    0.691827    0.000000
   124  O2    c     0.665138    0.614198    0.860083    0.000000
   125  O2    c     0.946980    0.321288    0.527974    0.000000
   126  O2    c     0.360792    0.022563    0.195604    0.000000
   127  O1    c     0.736036    0.271817    0.004249    0.000000
   128  O2    c     0.688953    0.453281    0.341476    0.000000
   129  O2    c     0.534380    0.227191    0.675991    0.000000
   130  O2    c     0.220077    0.686112    0.507469    0.000000
   131  O2    c     0.301537    0.525238    0.837788    0.000000
   132  O2    c     0.456627    0.756745    0.175485    0.000000
   133  O2    c     0.289573    0.751594    0.320815    0.000000
   134  O2    c     0.467610    0.706009    0.982932    0.000000
   135  O2    c     0.231511    0.529889    0.652671    0.000000
   136  O2    c     0.697276    0.220148    0.821595    0.000000
   137  O2    c     0.524603    0.295914    0.486972    0.000000
   138  O3    c     0.756623    0.442966    0.156633    0.000000
   139  O3    c     0.779549    0.540539    0.016736    0.000000
   140  O2    c     0.457162    0.236472    0.359231    0.000000
   141  O2    c     0.753075    0.213882    0.693542    0.000000
   142  O2    c     0.206303    0.455163    0.524611    0.000000
   143  O2    c     0.534517    0.742006    0.855064    0.000000
   144  O2    c     0.234578    0.764368    0.193965    0.000000
   145  O2    c     0.522728    0.769166    0.304457    0.000000
   146  O2    c     0.241960    0.472672    0.968370    0.000000
   147  O2    c     0.214921    0.745022    0.635691    0.000000
   148  O2    c     0.464510    0.205458    0.803315    0.000000
   149  O2    c     0.742096    0.526886    0.469692    0.000000
   150  O2    c     0.765974    0.234229    0.129328    0.000000
   151  O2    c     0.221526    0.324321    0.895250    0.000000
   152  O2    c     0.666100    0.891368    0.231064    0.000000
   153  O2    c     0.085912    0.760406    0.562761    0.000000
   154  O2    c     0.759428    0.664071    0.394793    0.000000
   155  O2    c     0.322742    0.084229    0.727911    0.000000
   156  O3    c     0.904135    0.220067    0.060833    0.000000
   157  O2    c     0.313569    0.220929    0.432438    0.000000
   158  O3    c     0.873205    0.658408    0.095091    0.000000
   159  O2    c     0.770122    0.086357    0.766123    0.000000
   160  O2    c     0.676302    0.764641    0.930395    0.000000
   161  O2    c     0.088067    0.317994    0.599643    0.000000
   162  O2    c     0.218832    0.890434    0.268033    0.000000
   163  O2    c     0.580290    0.562143    0.988554    0.000000
   164  O2    c     0.430626    0.010224    0.324235    0.000000
   165  O2    c     0.972393    0.410124    0.655863    0.000000
   166  O2    c     0.402623    0.431815    0.487191    0.000000
   167  O2    c     0.558142    0.962506    0.819783    0.000000
   168  O3    c     0.028243    0.584867    0.146499    0.000000
   169  O2    c     0.548044    0.571049    0.338951    0.000000
   170  O1    c     0.006653    0.432003    0.997495    0.000000
   171  O2    c     0.414820    0.969174    0.671216    0.000000
   172  O2    c     0.435385    0.399819    0.842534    0.000000
   173  O2    c     0.960803    0.549335    0.508210    0.000000
   174  O2    c     0.580414    0.014543    0.176695    0.000000
   175  O2    c     0.570207    0.147774    0.251015    0.000000
   176  O2    c     0.829006    0.410577    0.583007    0.000000
   177  O2    c     0.577362    0.415056    0.917143    0.000000
   178  O2    c     0.417350    0.829844    0.744119    0.000000
   179  O3    c     0.155812    0.554911    0.078149    0.000000
   180  O2    c     0.405718    0.568267    0.412708    0.000000
   181  F     c     0.439618    0.886663    0.248902    0.000000
   182  F     c     0.091971    0.541252    0.580737    0.000000
   183  F     c     0.442034    0.549384    0.913065    0.000000
   184  F     c     0.548933    0.090600    0.746877    0.000000
   185  F     c     0.860609    0.430845    0.069385    0.000000
   186  F     c     0.538910    0.440255    0.413166    0.000000
   187  O2    s     0.928943    0.000881    0.997703    0.000000
   188  O2    s     0.989481    0.909483    0.332334    0.000000
   189  O2    s     0.074335    0.071386    0.662560    0.000000
   190  O2    s     0.064904    0.990494    0.497873    0.000000
   191  O2    s     0.997086    0.061842    0.827188    0.000000
   192  O2    s     0.920001    0.919477    0.164483    0.000000
   193  O2    s     0.340033    0.568888    0.329857    0.000000
   194  O2    s     0.415920    0.763779    0.661086    0.000000
   195  O3    s     0.237243    0.657307    0.990911    0.000000
   196  O2    s     0.644557    0.400545    0.834096    0.000000
   197  O2    s     0.570903    0.213176    0.168359    0.000000
   198  O2    s     0.756471    0.344963    0.499284    0.000000
   199  O3    s     0.565290    0.350543    0.000075    0.000000
   200  O2    s     0.767037    0.410574    0.667121    0.000000
   201  O2    s     0.639176    0.219312    0.333597    0.000000
   202  O2    s     0.402781    0.636772    0.495788    0.000000
   203  O2    s     0.225827    0.571922    0.163874    0.000000
   204  O2    s     0.351324    0.756621    0.826084    0.000000
   205  O2    s     0.113032    0.223892    0.967277    0.000000
   206  O2    s     0.771313    0.889399    0.303473    0.000000
   207  O2    s     0.094541    0.873476    0.634377    0.000000
   208  O2    s     0.868295    0.773935    0.466988    0.000000
   209  O2    s     0.216242    0.086024    0.799611    0.000000
   210  O2    s     0.891926    0.111077    0.134883    0.000000
   211  O2    s     0.208388    0.106905    0.360658    0.000000
   212  O2    s     0.904308    0.788780    0.026206    0.000000
   213  O2    s     0.879836    0.093400    0.693558    0.000000
   214  O2    s     0.782686    0.865429    0.857914    0.000000
   215  O2    s     0.084918    0.206780    0.528195    0.000000
   216  O2    s     0.109240    0.886375    0.195356    0.000000
   217  O2    s     0.919644    0.853304    0.248684    0.000000
   218  O2    s     0.136932    0.062114    0.580269    0.000000
   219  O2    s     0.937059    0.053614    0.911184    0.000000
   220  O2    s     0.074302    0.136225    0.745521    0.000000
   221  O2    s     0.852363    0.926435    0.081066    0.000000
   222  O2    s     0.063754    0.919853    0.415263    0.000000
   223  O3    s     0.886799    0.174903    0.971650    0.000000
   224  O2    s     0.785123    0.689492    0.312473    0.000000
   225  O2    s     0.296304    0.087310    0.645744    0.000000
   226  O2    s     0.080747    0.784881    0.480684    0.000000
   227  O2    s     0.201582    0.285574    0.812986    0.000000
   228  O2    s     0.695571    0.895269    0.148258    0.000000
   229  O2    s     0.194275    0.892508    0.350095    0.000000
   230  O2    s     0.703265    0.800847    0.012814    0.000000
   231  O2    s     0.093489    0.293421    0.681403    0.000000
   232  O2    s     0.794848    0.078453    0.848473    0.000000
   233  O2    s     0.287137    0.197569    0.514741    0.000000
   234  O3    s     0.891266    0.698221    0.183953    0.000000
   235  O2    s     0.317332    0.639974    0.247660    0.000000
   236  O2    s     0.339099    0.664031    0.579155    0.000000
   237  O2    s     0.326113    0.672379    0.908972    0.000000
   238  O2    s     0.673092    0.337453    0.750097    0.000000
   239  O3    s     0.628615    0.313880    0.087214    0.000000
   240  O2    s     0.665560    0.319955    0.415341    0.000000
   241  O2    s     0.366811    0.345147    0.966310    0.000000
   242  O2    s     0.649654    0.021072    0.301737    0.000000
   243  O2    s     0.961860    0.618472    0.633879    0.000000
   244  O2    s     0.613003    0.649295    0.464636    0.000000
   245  O2    s     0.339048    0.954488    0.797217    0.000000
   246  O2    s     0.018167    0.365827    0.131170    0.000000
   247  O2    s     0.329571    0.361216    0.361290    0.000000
   248  O3    s     0.029525    0.663152    0.030811    0.000000
   249  O2    s     0.625294    0.961551    0.694140    0.000000
   250  O2    s     0.655485    0.611516    0.862331    0.000000
   251  O2    s     0.954041    0.331376    0.530191    0.000000
   252  O2    s     0.363966    0.015929    0.198004    0.000000
   253  O1    s     0.745323    0.279732    0.006823    0.000000
   254  O2    s     0.681338    0.452847    0.344598    0.000000
   255  O2    s     0.534886    0.219902    0.679009    0.000000
   256  O2    s     0.213200    0.678684    0.510663    0.000000
   257  O2    s     0.308873    0.526024    0.841212    0.000000
   258  O2    s     0.456156    0.763361    0.178716    0.000000
   259  O2    s     0.297495    0.758806    0.317807    0.000000
   260  O2    s     0.466745    0.697596    0.979922    0.000000
   261  O2    s     0.224082    0.530214    0.649600    0.000000
   262  O2    s     0.689744    0.213341    0.818454    0.000000
   263  O2    s     0.525196    0.303405    0.483867    0.000000
   264  O3    s     0.760035    0.441845    0.153320    0.000000
   265  O3    s     0.786832    0.541604    0.020338    0.000000
   266  O2    s     0.459864    0.244562    0.361829    0.000000
   267  O2    s     0.744862    0.208408    0.696081    0.000000
   268  O2    s     0.201235    0.457952    0.527292    0.000000
   269  O2    s     0.531566    0.734101    0.857788    0.000000
   270  O2    s     0.243058    0.769946    0.196448    0.000000
   271  O2    s     0.519976    0.774156    0.301790    0.000000
   272  O2    s     0.249872    0.474635    0.965730    0.000000
   273  O2    s     0.209443    0.737148    0.633093    0.000000
   274  O2    s     0.467452    0.200487    0.800699    0.000000
   275  O2    s     0.734075    0.523865    0.467067    0.000000
   276  O2    s     0.771250    0.241351    0.128018    0.000000
   277  O2    s     0.231708    0.333631    0.896050    0.000000
   278  O2    s     0.656586    0.891483    0.231866    0.000000
   279  O2    s     0.086185    0.751076    0.563633    0.000000
   280  O2    s     0.749944    0.654503    0.395658    0.000000
   281  O2    s     0.332587    0.084675    0.728797    0.000000
   282  O3    s     0.901609    0.226263    0.062455    0.000000
   283  O2    s     0.323345    0.230285    0.431536    0.000000
   284  O3    s     0.876702    0.652541    0.094270    0.000000
   285  O2    s     0.760636    0.086514    0.765253    0.000000
   286  O2    s     0.666477    0.755402    0.929516    0.000000
   287  O2    s     0.088231    0.327467    0.598717    0.000000
   288  O2    s     0.228227    0.890052    0.267103    0.000000
   289  O2    s     0.576500    0.562886    0.985234    0.000000
   290  O2    s     0.430403    0.005713    0.320810    0.000000
   291  O2    s     0.976963    0.414467    0.652485    0.000000
   292  O2    s     0.407255    0.431437    0.483840    0.000000
   293  O2    s     0.558686    0.967613    0.816490    0.000000
   294  O3    s     0.024131    0.578558    0.144527    0.000000
   295  O2    s     0.548446    0.566659    0.342367    0.000000
   296  O1    s     0.004820    0.431886    0.000579    0.000000
   297  O2    s     0.419265    0.973823    0.674698    0.000000
   298  O2    s     0.435490    0.405230    0.845614    0.000000
   299  O2    s     0.966177    0.549828    0.511540    0.000000
   300  O2    s     0.575120    0.008987    0.179951    0.000000
   301  O2    s     0.564915    0.136680    0.250996    0.000000
   302  O2    s     0.840050    0.416109    0.582916    0.000000
   303  O2    s     0.572155    0.419940    0.916596    0.000000
   304  O2    s     0.423001    0.840830    0.744221    0.000000
   305  O3    s     0.147186    0.552698    0.079189    0.000000
   306  O2    s     0.411371    0.562922    0.412762    0.000000
   307  F     s     0.439335    0.886273    0.248848    0.000000
   308  F     s     0.092463    0.541474    0.580687    0.000000
   309  F     s     0.441152    0.550082    0.913045    0.000000
   310  F     s     0.549122    0.091011    0.746842    0.000000
   311  F     s     0.853131    0.428259    0.067490    0.000000
   312  F     s     0.539093    0.440041    0.413091    0.000000
--------------------------------------------------------------------------------

  Final Cartesian lattice vectors (Angstroms) :

       11.932898   -0.013399   -0.024633
       -6.040702   10.405406   -0.001857
       -0.053372   -0.254708   29.439977


  Final cell parameters and derivatives :

--------------------------------------------------------------------------------
       a           11.932931 Angstrom     dE/de1(xx)     0.002900 eV/strain
       b           12.031732 Angstrom     dE/de2(yy)     0.003545 eV/strain
[...]
     58 Si    c      -0.000080      0.000082      0.000098      0.000000
     59 Si    c       0.000002      0.000020     -0.000036      0.000000
     60 Si    c       0.000145     -0.000303     -0.000356      0.000000
     61 O2    c       0.000048     -0.000411      0.000517      0.000000
     62 O2    c       0.000027      0.000086     -0.000013      0.000000
     63 O2    c      -0.000027     -0.000021      0.000007      0.000000
     64 O2    c      -0.000001      0.000027      0.000035      0.000000
     65 O2    c      -0.000021      0.000033      0.000047      0.000000
     66 O2    c      -0.000096      0.000025     -0.000268      0.000000
     67 O2    c       0.000041      0.000050      0.000069      0.000000
     68 O2    c      -0.000032     -0.000017      0.000049      0.000000
     69 O3    c      -0.000348      0.000279      0.000521      0.000000
     70 O2    c      -0.000016      0.000026     -0.000003      0.000000
     71 O2    c       0.000174     -0.000049     -0.000045      0.000000
     72 O2    c       0.000048     -0.000000      0.000072      0.000000
     73 O3    c       0.000357     -0.000124      0.000233      0.000000
     74 O2    c      -0.000056     -0.000006      0.000051      0.000000
     75 O2    c       0.000032      0.000024     -0.000026      0.000000
     76 O2    c       0.000067      0.000028     -0.000033      0.000000
     77 O2    c      -0.000213      0.000091     -0.000370      0.000000
     78 O2    c      -0.000022      0.000002      0.000051      0.000000
     79 O2    c       0.000214     -0.000077     -0.000350      0.000000
     80 O2    c       0.000013      0.000068      0.000033      0.000000
     81 O2    c      -0.000033     -0.000012      0.000016      0.000000
     82 O2    c       0.000024      0.000010      0.000069      0.000000
     83 O2    c      -0.000038      0.000022     -0.000004      0.000000
     84 O2    c      -0.000058      0.000279      0.000016      0.000000
     85 O2    c       0.000014      0.000071      0.000037      0.000000
     86 O2    c       0.000195     -0.000143      0.000549      0.000000
     87 O2    c      -0.000035     -0.000024      0.000014      0.000000
     88 O2    c      -0.000008      0.000023     -0.000009      0.000000
     89 O2    c       0.000023      0.000038     -0.000002      0.000000
     90 O2    c      -0.000014      0.000038      0.000148      0.000000
     91 O2    c       0.000005      0.000061      0.000067      0.000000
     92 O2    c      -0.000033      0.000013      0.000076      0.000000
     93 O2    c      -0.000079      0.000006     -0.000181      0.000000
     94 O2    c      -0.000084      0.000006     -0.000049      0.000000
     95 O2    c       0.000036     -0.000096     -0.000017      0.000000
     96 O2    c      -0.000032      0.000038      0.000040      0.000000
     97 O3    c      -0.000768      0.000347     -0.000856      0.000000
     98 O2    c       0.000039      0.000071     -0.000000      0.000000
     99 O2    c      -0.000031     -0.000012      0.000031      0.000000
    100 O2    c       0.000030      0.000042      0.000018      0.000000
    101 O2    c      -0.000020      0.000047     -0.000008      0.000000
    102 O2    c       0.000042      0.000034      0.000071      0.000000
    103 O2    c       0.000008      0.000053      0.000008      0.000000
    104 O2    c       0.000027     -0.000053      0.000016      0.000000
    105 O2    c      -0.000043     -0.000010     -0.000006      0.000000
    106 O2    c      -0.000074      0.000057      0.000007      0.000000
    107 O2    c       0.000008     -0.000004      0.000039      0.000000
    108 O3    c       0.000296     -0.000379     -0.000724      0.000000
    109 O2    c       0.000013      0.000059      0.000084      0.000000
    110 O2    c       0.000003      0.000027      0.000014      0.000000
    111 O2    c      -0.000056      0.000035      0.000243      0.000000
    112 O2    c      -0.000038     -0.000004     -0.000016      0.000000
    113 O3    c      -0.001840     -0.000511      0.003326      0.000000
    114 O2    c       0.000000      0.000007     -0.000034      0.000000
    115 O2    c      -0.000041     -0.000096     -0.000344      0.000000
    116 O2    c       0.000013      0.000064      0.000001      0.000000
    117 O2    c      -0.000033     -0.000006     -0.000004      0.000000
    118 O2    c       0.000012      0.000016      0.000060      0.000000
    119 O2    c      -0.000031      0.000006      0.000013      0.000000
    120 O2    c       0.000658     -0.000816      0.000596      0.000000
    121 O2    c       0.000033      0.000058      0.000052      0.000000
    122 O3    c       0.001370      0.001033     -0.002062      0.000000
    123 O2    c      -0.000046     -0.000016      0.000043      0.000000
    124 O2    c       0.000010      0.000014     -0.000150      0.000000
    125 O2    c       0.000021      0.000035     -0.000017      0.000000
    126 O2    c       0.000053      0.000045      0.000025      0.000000
    127 O1    c      -0.000786     -0.000956     -0.006095      0.000000
    128 O2    c       0.000027      0.000048      0.000032      0.000000
    129 O2    c      -0.000018     -0.000005      0.000003      0.000000
    130 O2    c       0.000040      0.000033      0.000010      0.000000
    131 O2    c      -0.000006      0.000067     -0.000040      0.000000
    132 O2    c      -0.000004      0.000061      0.000079      0.000000
    133 O2    c       0.000020      0.000048      0.000035      0.000000
    134 O2    c       0.000076     -0.000041     -0.000000      0.000000
    135 O2    c      -0.000035     -0.000015      0.000019      0.000000
    136 O2    c      -0.000032      0.000017      0.000034      0.000000
    137 O2    c       0.000010      0.000001      0.000010      0.000000
    138 O3    c      -0.001317     -0.000260      0.003922      0.000000
    139 O3    c      -0.002085      0.004191     -0.009724      0.000000
    140 O2    c       0.000025      0.000047      0.000001      0.000000
    141 O2    c      -0.000051     -0.000000     -0.000010      0.000000
    142 O2    c       0.000033      0.000042      0.000027      0.000000
    143 O2    c      -0.000023      0.000003      0.000020      0.000000
    144 O2    c      -0.000057     -0.000022      0.000061      0.000000
    145 O2    c       0.000006      0.000062      0.000037      0.000000
    146 O2    c      -0.000119      0.000125     -0.000139      0.000000
    147 O2    c      -0.000036      0.000014      0.000059      0.000000
    148 O2    c      -0.000023      0.000013      0.000003      0.000000
    149 O2    c       0.000006      0.000008      0.000024      0.000000
    150 O2    c       0.000648     -0.000460     -0.000070      0.000000
    151 O2    c       0.000011     -0.000023     -0.000077      0.000000
    152 O2    c       0.000030      0.000045      0.000028      0.000000
    153 O2    c       0.000006      0.000032      0.000022      0.000000
    154 O2    c       0.000023      0.000045      0.000022      0.000000
    155 O2    c      -0.000039      0.000012      0.000029      0.000000
    156 O3    c       0.000613     -0.001271      0.000036      0.000000
    157 O2    c       0.000017      0.000026      0.000013      0.000000
    158 O3    c      -0.001543      0.002115      0.006386      0.000000
    159 O2    c      -0.000031     -0.000019     -0.000009      0.000000
    160 O2    c       0.000023      0.000002      0.000139      0.000000
    161 O2    c      -0.000008     -0.000001     -0.000010      0.000000
    162 O2    c       0.000003      0.000058     -0.000009      0.000000
    163 O2    c       0.000143      0.000232      0.000555      0.000000
    164 O2    c       0.000002      0.000061      0.000023      0.000000
    165 O2    c      -0.000052      0.000002      0.000007      0.000000
    166 O2    c       0.000015      0.000018      0.000033      0.000000
    167 O2    c      -0.000042      0.000004     -0.000003      0.000000
    168 O3    c      -0.000372      0.000866      0.004895      0.000000
    169 O2    c       0.000045      0.000074      0.000052      0.000000
    170 O1    c       0.001734      0.000672     -0.007176      0.000000
    171 O2    c      -0.000048     -0.000019     -0.000010      0.000000
    172 O2    c       0.000012      0.000016     -0.000003      0.000000
    173 O2    c       0.000020      0.000029      0.000007      0.000000
    174 O2    c       0.000056      0.000120     -0.000027      0.000000
    175 O2    c       0.000024      0.000061     -0.000008      0.000000
    176 O2    c      -0.000005      0.000013      0.000030      0.000000
    177 O2    c      -0.000002     -0.000168      0.000045      0.000000
    178 O2    c      -0.000031     -0.000019      0.000009      0.000000
    179 O3    c       0.001195      0.000547     -0.002126      0.000000
    180 O2    c       0.000038      0.000055      0.000064      0.000000
    181 F     c       0.000029      0.000076      0.000001      0.000000
    182 F     c      -0.000000      0.000020      0.000000      0.000000
    183 F     c       0.000065     -0.000098      0.000029      0.000000
    184 F     c      -0.000042     -0.000015      0.000012      0.000000
    185 F     c      -0.001458     -0.000479     -0.008692      0.000000
    186 F     c       0.000016      0.000029      0.000020      0.000000
    187 O2    s       0.000039      0.000165      0.000061      0.000000
    188 O2    s       0.000033      0.000087      0.000060      0.000000
    189 O2    s      -0.000023     -0.000016      0.000043      0.000000
    190 O2    s      -0.000000      0.000015      0.000002      0.000000
    191 O2    s       0.000037      0.000003      0.000010      0.000000
    192 O2    s      -0.000026      0.000096      0.000223      0.000000
    193 O2    s       0.000032      0.000060      0.000036      0.000000
    194 O2    s      -0.000051     -0.000002      0.000012      0.000000
    195 O3    s       0.000827     -0.000423     -0.000709      0.000000
    196 O2    s      -0.000006      0.000028      0.000086      0.000000
    197 O2    s      -0.000607      0.000248      0.000941      0.000000
    198 O2    s       0.000009      0.000011     -0.000030      0.000000
    199 O3    s      -0.000535      0.000238     -0.000434      0.000000
    200 O2    s      -0.000037     -0.000011     -0.000035      0.000000
    201 O2    s       0.000005      0.000074     -0.000017      0.000000
    202 O2    s       0.000031      0.000037      0.000026      0.000000
    203 O2    s       0.000969     -0.000214      0.001329      0.000000
    204 O2    s      -0.000035      0.000038      0.000032      0.000000
    205 O2    s      -0.000026      0.000168      0.001279      0.000000
    206 O2    s       0.000007      0.000072      0.000029      0.000000
    207 O2    s      -0.000036     -0.000003      0.000026      0.000000
    208 O2    s       0.000008      0.000016     -0.000026      0.000000
    209 O2    s      -0.000010     -0.000004      0.000041      0.000000
    210 O2    s       0.000342     -0.000698      0.000269      0.000000
    211 O2    s       0.000022      0.000068     -0.000018      0.000000
    212 O2    s      -0.000673      0.001163     -0.002397      0.000000
    213 O2    s      -0.000047     -0.000016     -0.000022      0.000000
    214 O2    s       0.000003     -0.000022     -0.000007      0.000000
    215 O2    s       0.000013      0.000033     -0.000003      0.000000
    216 O2    s       0.000200      0.000164     -0.000297      0.000000
    217 O2    s      -0.000023      0.000133      0.000299      0.000000
    218 O2    s      -0.000038      0.000021      0.000001      0.000000
    219 O2    s       0.000058     -0.000103     -0.000247      0.000000
    220 O2    s      -0.000047     -0.000002     -0.000014      0.000000
    221 O2    s      -0.000320      0.000190     -0.000102      0.000000
    222 O2    s      -0.000024      0.000032      0.000022      0.000000
    223 O3    s       0.001005     -0.000137      0.001310      0.000000
    224 O2    s       0.000025      0.000055      0.000116      0.000000
    225 O2    s      -0.000036      0.000002     -0.000001      0.000000
    226 O2    s       0.000024      0.000041     -0.000006      0.000000
    227 O2    s       0.000013      0.000005     -0.000039      0.000000
    228 O2    s      -0.000068     -0.000086     -0.000223      0.000000
    229 O2    s       0.000008      0.000066      0.000070      0.000000
    230 O2    s      -0.000165     -0.000105      0.000260      0.000000
    231 O2    s      -0.000056     -0.000005      0.000024      0.000000
    232 O2    s      -0.000046      0.000005     -0.000068      0.000000
    233 O2    s       0.000017     -0.000006     -0.000030      0.000000
    234 O3    s      -0.000395      0.000746      0.002236      0.000000
    235 O2    s       0.000086      0.000002      0.000198      0.000000
    236 O2    s      -0.000009      0.000033      0.000029      0.000000
    237 O2    s       0.000144     -0.000170      0.000118      0.000000
    238 O2    s      -0.000043      0.000008     -0.000014      0.000000
    239 O3    s       0.000450      0.002532     -0.007488      0.000000
    240 O2    s      -0.000005      0.000021      0.000028      0.000000
    241 O2    s       0.000002      0.000028      0.000810      0.000000
    242 O2    s       0.000009      0.000067      0.000069      0.000000
    243 O2    s      -0.000027      0.000001      0.000033      0.000000
    244 O2    s       0.000020      0.000023     -0.000016      0.000000
    245 O2    s      -0.000050      0.000020      0.000028      0.000000
    246 O2    s       0.001849     -0.001577      0.001135      0.000000
    247 O2    s       0.000041      0.000066     -0.000010      0.000000
    248 O3    s       0.001342      0.000991     -0.004270      0.000000
    249 O2    s      -0.000045     -0.000015     -0.000048      0.000000
    250 O2    s       0.000071     -0.000099      0.000359      0.000000
    251 O2    s       0.000017      0.000031      0.000020      0.000000
    252 O2    s      -0.000015      0.000084     -0.000071      0.000000
    253 O1    s      -0.000985      0.000143      0.000826      0.000000
    254 O2    s       0.000017      0.000058     -0.000025      0.000000
    255 O2    s      -0.000042     -0.000005      0.000003      0.000000
    256 O2    s       0.000016      0.000047     -0.000006      0.000000
    257 O2    s      -0.000083      0.000056     -0.000025      0.000000
    258 O2    s       0.000112     -0.000012     -0.000167      0.000000
    259 O2    s       0.000036      0.000061      0.000077      0.000000
    260 O2    s      -0.000028     -0.000155      0.000260      0.000000
    261 O2    s      -0.000051      0.000001      0.000024      0.000000
    262 O2    s      -0.000050      0.000029     -0.000053      0.000000
    263 O2    s      -0.000000      0.000001      0.000012      0.000000
    264 O3    s      -0.001908      0.001296      0.001450      0.000000
    265 O3    s      -0.002007     -0.002828      0.003115      0.000000
    266 O2    s       0.000010      0.000055      0.000030      0.000000
    267 O2    s      -0.000048     -0.000012     -0.000020      0.000000
    268 O2    s       0.000023      0.000027     -0.000036      0.000000
    269 O2    s      -0.000013      0.000084     -0.000037      0.000000
    270 O2    s       0.000209      0.000319     -0.000111      0.000000
    271 O2    s       0.000022      0.000070      0.000033      0.000000
    272 O2    s       0.000131     -0.000247      0.001082      0.000000
    273 O2    s      -0.000031     -0.000006     -0.000035      0.000000
    274 O2    s      -0.000037      0.000005      0.000016      0.000000
    275 O2    s      -0.000001      0.000005      0.000005      0.000000
    276 O2    s      -0.000266     -0.001374      0.005266      0.000000
    277 O2    s      -0.000031     -0.000022      0.000286      0.000000
    278 O2    s       0.000019      0.000021      0.000111      0.000000
    279 O2    s       0.000005      0.000021      0.000005      0.000000
    280 O2    s       0.000016      0.000039      0.000019      0.000000
    281 O2    s      -0.000026      0.000007      0.000017      0.000000
    282 O3    s       0.001317     -0.000797     -0.003854      0.000000
    283 O2    s       0.000028      0.000024      0.000046      0.000000
    284 O3    s      -0.000616      0.002045     -0.000148      0.000000
    285 O2    s      -0.000053      0.000002     -0.000020      0.000000
    286 O2    s       0.000034     -0.000121      0.000049      0.000000
    287 O2    s      -0.000021      0.000014      0.000042      0.000000
    288 O2    s       0.000061      0.000100      0.000073      0.000000
    289 O2    s      -0.000220     -0.000246     -0.000477      0.000000
    290 O2    s       0.000022      0.000077      0.000025      0.000000
    291 O2    s      -0.000030     -0.000010      0.000002      0.000000
    292 O2    s       0.000022      0.000014      0.000013      0.000000
    293 O2    s      -0.000039      0.000015      0.000027      0.000000
    294 O3    s       0.001238      0.000289      0.003976      0.000000
    295 O2    s       0.000031      0.000062      0.000002      0.000000
    296 O1    s       0.000777     -0.001722      0.003077      0.000000
    297 O2    s      -0.000036     -0.000016      0.000032      0.000000
    298 O2    s       0.000093     -0.000099     -0.000044      0.000000
    299 O2    s       0.000023      0.000030     -0.000001      0.000000
    300 O2    s      -0.000084     -0.000090      0.000085      0.000000
    301 O2    s       0.000006      0.000076      0.000130      0.000000
    302 O2    s      -0.000001      0.000011     -0.000014      0.000000
    303 O2    s      -0.000010      0.000192      0.000395      0.000000
    304 O2    s      -0.000048     -0.000001     -0.000012      0.000000
    305 O3    s       0.001085     -0.000587     -0.002083      0.000000
    306 O2    s       0.000040      0.000044      0.000017      0.000000
    307 F     s       0.000023      0.000091      0.000089      0.000000
    308 F     s      -0.000011      0.000024      0.000024      0.000000
    309 F     s       0.000046      0.000037      0.000028      0.000000
    310 F     s      -0.000053      0.000002     -0.000015      0.000000
    311 F     s       0.000456      0.001131      0.009220      0.000000
    312 F     s       0.000021      0.000022      0.000019      0.000000
--------------------------------------------------------------------------------
  Maximum abs         0.002085      0.004191      0.009724      0.000000
--------------------------------------------------------------------------------


  Time to end of optimisation =     546.2085 seconds


  Peak dynamic memory used =      19.13 MB 


  Timing analysis for GULP :

--------------------------------------------------------------------------------
  Task / Subroutine                                          Time (Seconds)
--------------------------------------------------------------------------------
  Calculation of reciprocal space energy and derivatives         10.4258
  Calculation of real space energy and derivatives              294.7339
  Calculation of three-body energy and derivatives               32.7352
  Global summation overhead                                       0.0002
--------------------------------------------------------------------------------
  Total CPU time                                                546.2086
--------------------------------------------------------------------------------


  Dump file written as out.res                                                 
  CIF file written as out.cif                                                 


  Job Finished at 19:38.31  5th December   2016                               

