********************************************************************************
*                       GENERAL UTILITY LATTICE PROGRAM                        *
*                                 Julian Gale                                  *
*                      Nanochemistry Research Institute                        *
*                           Department of Chemistry                            *
*                    Curtin University, Western Australia                      *
********************************************************************************
* Version = 4.2.0 * Last modified =  20th January 2014                         *
********************************************************************************
*  optimise     - perform optimisation run                                     *
*  conp         - constant pressure calculation                                *
*  qok          - running with non charge neutral cell is OK                   *
*  rfo          - optimisation step to be determined by RFO method             *
********************************************************************************

  Job Started  at 04:47.01  6th December   2016                               

  Number of CPUs =     1


  Total number of configurations input =   1

********************************************************************************
*  Input for Configuration =   1                                               *
********************************************************************************

  Formula = Ge4Si56O120F6                                               

  Number of irreducible atoms/shells =     312


  Total number atoms/shells =     312

  Dimensionality = 3               :  Bulk   


  Charge on solid   =  -6.000000 =>neutralising background added


  Cartesian lattice vectors (Angstroms) :

       11.968420    0.000000    0.000000
       -6.048990   10.382947    0.000000
       -0.159529   -0.084840   29.453055

  Cell parameters (Angstroms/Degrees):

  a =      11.9684    alpha =  89.9864
  b =      12.0165    beta  =  90.3103
  c =      29.4536    gamma = 120.2246

  Initial cell volume =        3660.056604 Angs**3

  Temperature of configuration =  0.000     K 

  Pressure of configuration =         0.000 GPa 

  Fractional coordinates of asymmetric unit :

--------------------------------------------------------------------------------
   No.  Atomic       x           y          z         Charge      Occupancy
        Label      (Frac)      (Frac)     (Frac)        (e)         (Frac)  
--------------------------------------------------------------------------------
      1 Ge    c    0.699600    0.375700    0.033890     4.00000    1.000000    
      2 Si    c    0.621102 *  0.324023 *  0.367349 *   4.00000    1.000000    
      3 Si    c    0.678151 *  0.296488 *  0.699287 *   4.00000    1.000000    
      4 Si    c    0.295511 *  0.620593 *  0.531708 *   4.00000    1.000000    
      5 Si    c    0.380993 *  0.674531 *  0.863307 *   4.00000    1.000000    
      6 Si    c    0.324224 *  0.707404 *  0.199822 *   4.00000    1.000000    
      7 Si    c    0.377222 *  0.700806 *  0.300304 *   4.00000    1.000000    
      8 Si    c    0.328637 *  0.623577 *  0.963744 *   4.00000    1.000000    
      9 Si    c    0.298116 *  0.676146 *  0.632347 *   4.00000    1.000000    
     10 Si    c    0.623751 *  0.294399 *  0.799943 *   4.00000    1.000000    
     11 Si    c    0.675507 *  0.380904 *  0.467957 *   4.00000    1.000000    
     12 Si    c    0.691014 *  0.318232 *  0.134906 *   4.00000    1.000000    
     13 Si    c    0.526832 *  0.412938 *  0.966386 *   4.00000    1.000000    
     14 Si    c    0.583351 *  0.111283 *  0.304162 *   4.00000    1.000000    
     15 Si    c    0.887839 *  0.469694 *  0.634414 *   4.00000    1.000000    
     16 Si    c    0.467361 *  0.583151 *  0.466599 *   4.00000    1.000000    
     17 Si    c    0.418505 *  0.885108 *  0.798927 *   4.00000    1.000000    
     18 Si    c    0.118358 *  0.532723 *  0.131947 *   4.00000    1.000000    
     19 Si    c    0.415741 *  0.528166 *  0.364776 *   4.00000    1.000000    
     20 Si    c    0.119443 *  0.589924 *  0.027718 *   4.00000    1.000000    
     21 Si    c    0.470904 *  0.887237 *  0.697232 *   4.00000    1.000000    
     22 Si    c    0.581980 *  0.464951 *  0.864398 *   4.00000    1.000000    
     23 Si    c    0.886544 *  0.417651 *  0.532682 *   4.00000    1.000000    
     24 Si    c    0.529708 *  0.113424 *  0.202666 *   4.00000    1.000000    
     25 Si    c    0.301655 *  0.396917 *  0.848943 *   4.00000    1.000000    
     26 Si    c    0.603648 *  0.908022 *  0.186266 *   4.00000    1.000000    
     27 Si    c    0.094461 *  0.697784 *  0.517681 *   4.00000    1.000000    
     28 Si    c    0.696870 *  0.600248 *  0.351573 *   4.00000    1.000000    
     29 Si    c    0.399412 *  0.095518 *  0.683666 *   4.00000    1.000000    
     30 Ge    c    0.899121 *  0.301328 *  0.011573 *   4.00000    1.000000    
     31 Si    c    0.396591 *  0.303526 *  0.481426 *   4.00000    1.000000    
     32 Si    c    0.900799 *  0.600931 *  0.148065 *   4.00000    1.000000    
     33 Si    c    0.700740 *  0.093653 *  0.814026 *   4.00000    1.000000    
     34 Si    c    0.605834 *  0.696861 *  0.978949 *   4.00000    1.000000    
     35 Si    c    0.097508 *  0.398339 *  0.647645 *   4.00000    1.000000    
     36 Si    c    0.301502 *  0.901257 *  0.316935 *   4.00000    1.000000    
     37 Si    c    0.249112 *  0.341715 *  0.949339 *   4.00000    1.000000    
     38 Si    c    0.660023 *  0.910901 *  0.287161 *   4.00000    1.000000    
     39 Si    c    0.088909 *  0.748354 *  0.618489 *   4.00000    1.000000    
     40 Si    c    0.746748 *  0.660524 *  0.452242 *   4.00000    1.000000    
     41 Si    c    0.341658 *  0.086123 *  0.784308 *   4.00000    1.000000    
     42 Ge    c    0.909944 *  0.247794 *  0.116691 *   4.00000    1.000000    
     43 Si    c    0.339283 *  0.250687 *  0.380629 *   4.00000    1.000000    
     44 Ge    c    0.910665 *  0.664971 *  0.044830 *   4.00000    1.000000    
     45 Si    c    0.750342 *  0.088524 *  0.713143 *   4.00000    1.000000    
     46 Si    c    0.661442 *  0.744301 *  0.878105 *   4.00000    1.000000    
     47 Si    c    0.087294 *  0.339683 *  0.546863 *   4.00000    1.000000    
     48 Si    c    0.249892 *  0.912048 *  0.216408 *   4.00000    1.000000    
     49 Si    c    0.969737 *  0.121726 *  0.962280 *   4.00000    1.000000    
     50 Si    c    0.876703 *  0.847282 *  0.300925 *   4.00000    1.000000    
     51 Si    c    0.150814 *  0.027959 *  0.632647 *   4.00000    1.000000    
     52 Si    c    0.027244 *  0.878417 *  0.467030 *   4.00000    1.000000    
     53 Si    c    0.123933 *  0.147956 *  0.798015 *   4.00000    1.000000    
     54 Si    c    0.848623 *  0.968081 *  0.134354 *   4.00000    1.000000    
     55 Si    c    0.121662 *  0.969701 *  0.366193 *   4.00000    1.000000    
     56 Si    c    0.852394 *  0.886738 *  0.031261 *   4.00000    1.000000    
     57 Si    c    0.030091 *  0.149912 *  0.697270 *   4.00000    1.000000    
     58 Si    c    0.880592 *  0.021684 *  0.862708 *   4.00000    1.000000    
     59 Si    c    0.149113 *  0.122291 *  0.531962 *   4.00000    1.000000    
     60 Si    c    0.968794 *  0.844768 *  0.200194 *   4.00000    1.000000    
     61 O2    c    0.923333 *  0.011833 *  0.000151 *   0.87073    1.000000    
     62 O2    c    0.001418 *  0.927381 *  0.332472 *   0.87073    1.000000    
     63 O2    c    0.069560 *  0.070043 *  0.664012 *   0.87073    1.000000    
     64 O2    c    0.069855 *  0.001319 *  0.498890 *   0.87073    1.000000    
     65 O2    c    0.000126 *  0.065469 *  0.829176 *   0.87073    1.000000    
     66 O2    c    0.922350 *  0.913861 *  0.164684 *   0.87073    1.000000    
     67 O2    c    0.338936 *  0.576250 *  0.331913 *   0.87073    1.000000    
     68 O2    c    0.422553 *  0.762158 *  0.664655 *   0.87073    1.000000    
     69 O2    c    0.249647 *  0.666032 *  0.997546 *   0.87073    1.000000    
     70 O2    c    0.660218 *  0.416217 *  0.832907 *   0.87073    1.000000    
     71 O2    c    0.577887 *  0.240671 *  0.171994 *   0.87073    1.000000    
     72 O2    c    0.759091 *  0.341517 *  0.500690 *   0.87073    1.000000    
     73 O3    c    0.562745 *  0.333496 *  0.999695 *   1.33043    1.000000    
     74 O2    c    0.763081 *  0.420442 *  0.667014 *   0.87073    1.000000    
     75 O2    c    0.660292 *  0.237223 *  0.336332 *   0.87073    1.000000    
     76 O2    c    0.417850 *  0.659260 *  0.498597 *   0.87073    1.000000    
     77 O2    c    0.243698 *  0.588892 *  0.164777 *   0.87073    1.000000    
     78 O2    c    0.342143 *  0.759005 *  0.830700 *   0.87073    1.000000    
     79 O2    c    0.123693 *  0.216762 *  0.970132 *   0.87073    1.000000    
     80 O2    c    0.786046 *  0.910176 *  0.307371 *   0.87073    1.000000    
     81 O2    c    0.088508 *  0.874178 *  0.638358 *   0.87073    1.000000    
     82 O2    c    0.872733 *  0.787762 *  0.472380 *   0.87073    1.000000    
     83 O2    c    0.215581 *  0.086095 *  0.804274 *   0.87073    1.000000    
     84 O3    c    0.916485 *  0.119447 *  0.141760 *   1.33043    1.000000    
     85 O2    c    0.213059 *  0.123529 *  0.360475 *   0.87073    1.000000    
     86 O3    c    0.928883 *  0.811454 *  0.026805 *   1.33043    1.000000    
     87 O2    c    0.875581 *  0.087826 *  0.692617 *   0.87073    1.000000    
     88 O2    c    0.787789 *  0.868070 *  0.856751 *   0.87073    1.000000    
     89 O2    c    0.085335 *  0.212517 *  0.527031 *   0.87073    1.000000    
     90 O2    c    0.124299 *  0.914037 *  0.196375 *   0.87073    1.000000    
     91 O2    c    0.924759 *  0.860372 *  0.249681 *   0.87073    1.000000    
     92 O2    c    0.137542 *  0.066918 *  0.581937 *   0.87073    1.000000    
     93 O2    c    0.938115 *  0.054923 *  0.913143 *   0.87073    1.000000    
     94 O2    c    0.072969 *  0.135095 *  0.747097 *   0.87073    1.000000    
     95 O2    c    0.853831 *  0.932691 *  0.082528 *   0.87073    1.000000    
     96 O2    c    0.066443 *  0.930397 *  0.416360 *   0.87073    1.000000    
     97 O3    c    0.901569 *  0.204152 *  0.967873 *   1.33043    1.000000    
     98 O2    c    0.795293 *  0.696123 *  0.313104 *   0.87073    1.000000    
     99 O2    c    0.302622 *  0.098169 *  0.645240 *   0.87073    1.000000    
    100 O2    c    0.096073 *  0.796277 *  0.479450 *   0.87073    1.000000    
    101 O2    c    0.203960 *  0.299200 *  0.810325 *   0.87073    1.000000    
    102 O2    c    0.697220 *  0.905714 *  0.147329 *   0.87073    1.000000    
    103 O2    c    0.203856 *  0.899825 *  0.355334 *   0.87073    1.000000    
    104 O2    c    0.701827 *  0.792548 *  0.018078 *   0.87073    1.000000    
    105 O2    c    0.099963 *  0.301630 *  0.685656 *   0.87073    1.000000    
    106 O2    c    0.798589 *  0.092593 *  0.852375 *   0.87073    1.000000    
    107 O2    c    0.300687 *  0.206217 *  0.519899 *   0.87073    1.000000    
    108 O2    c    0.906985 *  0.693007 *  0.189704 *   0.87073    1.000000    
    109 O2    c    0.320882 *  0.645564 *  0.249512 *   0.87073    1.000000    
    110 O2    c    0.354717 *  0.677338 *  0.581933 *   0.87073    1.000000    
    111 O2    c    0.324029 *  0.677639 *  0.913301 *   0.87073    1.000000    
    112 O2    c    0.680202 *  0.353076 *  0.749803 *   0.87073    1.000000    
    113 O3    c    0.625157 *  0.310021 *  0.086796 *   1.33043    1.000000    
    114 O2    c    0.677515 *  0.324835 *  0.417789 *   0.87073    1.000000    
    115 O2    c    0.369616 *  0.329871 *  0.967115 *   0.87073    1.000000    
    116 O2    c    0.670442 *  0.042295 *  0.306430 *   0.87073    1.000000    
    117 O2    c    0.956933 *  0.625823 *  0.637074 *   0.87073    1.000000    
    118 O2    c    0.624065 *  0.670832 *  0.469738 *   0.87073    1.000000    
    119 O2    c    0.330985 *  0.953457 *  0.802153 *   0.87073    1.000000    
    120 O3    c    0.053235 *  0.380399 *  0.134751 *   1.33043    1.000000    
    121 O2    c    0.328636 *  0.371914 *  0.361657 *   0.87073    1.000000    
    122 O3    c    0.054827 *  0.678220 *  0.027151 *   1.33043    1.000000    
    123 O2    c    0.627460 *  0.956543 *  0.694386 *   0.87073    1.000000    
    124 O2    c    0.669213 *  0.620870 *  0.860331 *   0.87073    1.000000    
    125 O2    c    0.954305 *  0.329829 *  0.528778 *   0.87073    1.000000    
    126 O2    c    0.373104 *  0.043856 *  0.198494 *   0.87073    1.000000    
    127 O1    c    0.752463 *  0.287967 *  0.003040 *   1.73396    1.000000    
    128 O2    c    0.696247 *  0.466171 *  0.344247 *   0.87073    1.000000    
    129 O2    c    0.534471 *  0.229147 *  0.676554 *   0.87073    1.000000    
    130 O2    c    0.227450 *  0.696083 *  0.509643 *   0.87073    1.000000    
    131 O2    c    0.305347 *  0.531937 *  0.840144 *   0.87073    1.000000    
    132 O2    c    0.467668 *  0.776191 *  0.177994 *   0.87073    1.000000    
    133 O2    c    0.301483 *  0.767257 *  0.323175 *   0.87073    1.000000    
    134 O2    c    0.472891 *  0.699382 *  0.985696 *   0.87073    1.000000    
    135 O2    c    0.231504 *  0.533262 *  0.654745 *   0.87073    1.000000    
    136 O2    c    0.700064 *  0.226902 *  0.822004 *   0.87073    1.000000    
    137 O2    c    0.531402 *  0.305565 *  0.489559 *   0.87073    1.000000    
    138 O2    c    0.766971 *  0.466488 *  0.153416 *   0.87073    1.000000    
    139 O1    c    0.774747 *  0.542512 *  0.022701 *   1.73396    1.000000    
    140 O2    c    0.464711 *  0.249210 *  0.361548 *   0.87073    1.000000    
    141 O2    c    0.752463 *  0.215346 *  0.693924 *   0.87073    1.000000    
    142 O2    c    0.213480 *  0.464558 *  0.526867 *   0.87073    1.000000    
    143 O2    c    0.537455 *  0.748701 *  0.858607 *   0.87073    1.000000    
    144 O2    c    0.246148 *  0.785366 *  0.195883 *   0.87073    1.000000    
    145 O2    c    0.533582 *  0.783697 *  0.305524 *   0.87073    1.000000    
    146 O2    c    0.249982 *  0.467689 *  0.969278 *   0.87073    1.000000    
    147 O2    c    0.215884 *  0.749447 *  0.637632 *   0.87073    1.000000    
    148 O2    c    0.467463 *  0.211585 *  0.804425 *   0.87073    1.000000    
    149 O2    c    0.748278 *  0.536695 *  0.472596 *   0.87073    1.000000    
    150 O3    c    0.778040 *  0.250699 *  0.137772 *   1.33043    1.000000    
    151 O2    c    0.227119 *  0.324615 *  0.894939 *   0.87073    1.000000    
    152 O2    c    0.678026 *  0.911578 *  0.232813 *   0.87073    1.000000    
    153 O2    c    0.090353 *  0.767377 *  0.564137 *   0.87073    1.000000    
    154 O2    c    0.767256 *  0.676317 *  0.397902 *   0.87073    1.000000    
    155 O2    c    0.324314 *  0.089358 *  0.729946 *   0.87073    1.000000    
    156 O1    c    0.908945 *  0.224722 *  0.059942 *   1.73396    1.000000    
    157 O2    c    0.321801 *  0.232526 *  0.434935 *   0.87073    1.000000    
    158 O3    c    0.905063 *  0.677349 *  0.103610 *   1.33043    1.000000    
    159 O2    c    0.770546 *  0.090281 *  0.767485 *   0.87073    1.000000    
    160 O2    c    0.681566 *  0.765312 *  0.932467 *   0.87073    1.000000    
    161 O2    c    0.091033 *  0.323384 *  0.601149 *   0.87073    1.000000    
    162 O2    c    0.231137 *  0.908244 *  0.270750 *   0.87073    1.000000    
    163 O2    c    0.586683 *  0.556719 *  0.988236 *   0.87073    1.000000    
    164 O2    c    0.441949 *  0.025019 *  0.326780 *   0.87073    1.000000    
    165 O2    c    0.973050 *  0.413236 *  0.656974 *   0.87073    1.000000    
    166 O2    c    0.410493 *  0.442533 *  0.489710 *   0.87073    1.000000    
    167 O2    c    0.560257 *  0.969136 *  0.822230 *   0.87073    1.000000    
    168 O2    c    0.021134 *  0.576950 *  0.151616 *   0.87073    1.000000    
    169 O2    c    0.557410 *  0.586086 *  0.341954 *   0.87073    1.000000    
    170 O3    c    0.030813 *  0.454028 *  0.003369 *   1.33043    1.000000    
    171 O2    c    0.413080 *  0.970661 *  0.674185 *   0.87073    1.000000    
    172 O2    c    0.439969 *  0.407143 *  0.841269 *   0.87073    1.000000    
    173 O2    c    0.968577 *  0.558180 *  0.509015 *   0.87073    1.000000    
    174 O2    c    0.590601 *  0.034128 *  0.178577 *   0.87073    1.000000    
    175 O2    c    0.582417 *  0.164721 *  0.253646 *   0.87073    1.000000    
    176 O2    c    0.833950 *  0.416695 *  0.583516 *   0.87073    1.000000    
    177 O2    c    0.582134 *  0.415200 *  0.915486 *   0.87073    1.000000    
    178 O2    c    0.417850 *  0.833410 *  0.747846 *   0.87073    1.000000    
    179 O2    c    0.159254 *  0.578332 *  0.079961 *   0.87073    1.000000    
    180 O2    c    0.414767 *  0.581720 *  0.415401 *   0.87073    1.000000    
    181 F     c    0.449915 *  0.903620 *  0.250860 *   0.56000    1.000000    
    182 F     c    0.095601 *  0.547375 *  0.582183 *   0.56000    1.000000    
    183 F     c    0.450011 *  0.548768 *  0.913331 *   0.56000    1.000000    
    184 F     c    0.549952 *  0.094921 *  0.748387 *   0.56000    1.000000    
    185 F     c    0.870544 *  0.433953 *  0.070658 *   0.56000    1.000000    
    186 F     c    0.546831 *  0.452419 *  0.415843 *   0.56000    1.000000    
    187 O2    s    0.920423 *  0.009842 *  0.999469 *  -2.87073    1.000000    
    188 O2    s    0.000807 *  0.923081 *  0.332689 *  -2.87073    1.000000    
    189 O2    s    0.074271 *  0.074229 *  0.664202 *  -2.87073    1.000000    
    190 O2    s    0.073923 *  0.001034 *  0.499007 *  -2.87073    1.000000    
    191 O2    s    0.000600 *  0.069826 *  0.829442 *  -2.87073    1.000000    
    192 O2    s    0.919430 *  0.912052 *  0.165347 *  -2.87073    1.000000    
    193 O2    s    0.350713 *  0.584174 *  0.331997 *  -2.87073    1.000000    
    194 O2    s    0.414650 *  0.766121 *  0.664650 *  -2.87073    1.000000    
    195 O2    s    0.244318 *  0.653945 *  0.997200 *  -2.87073    1.000000    
    196 O2    s    0.648484 *  0.408590 *  0.832704 *  -2.87073    1.000000    
    197 O2    s    0.584295 *  0.235164 *  0.171441 *  -2.87073    1.000000    
    198 O2    s    0.763512 *  0.353464 *  0.500566 *  -2.87073    1.000000    
    199 O3    s    0.568763 *  0.345050 *  0.998622 *  -3.33043    1.000000    
    200 O2    s    0.767330 *  0.412895 *  0.666944 *  -2.87073    1.000000    
    201 O2    s    0.648313 *  0.233015 *  0.336167 *  -2.87073    1.000000    
    202 O2    s    0.410482 *  0.647435 *  0.498674 *  -2.87073    1.000000    
    203 O2    s    0.238734 *  0.595170 *  0.164930 *  -2.87073    1.000000    
    204 O2    s    0.354051 *  0.763485 *  0.830735 *  -2.87073    1.000000    
    205 O2    s    0.120791 *  0.219916 *  0.967190 *  -2.87073    1.000000    
    206 O2    s    0.782570 *  0.903604 *  0.304622 *  -2.87073    1.000000    
    207 O2    s    0.095135 *  0.877433 *  0.635729 *  -2.87073    1.000000    
    208 O2    s    0.876106 *  0.784218 *  0.469750 *  -2.87073    1.000000    
    209 O2    s    0.218930 *  0.092652 *  0.801566 *  -2.87073    1.000000    
    210 O3    s    0.909100 *  0.113779 *  0.139137 *  -3.33043    1.000000    
    211 O2    s    0.216390 *  0.120331 *  0.363136 *  -2.87073    1.000000    
    212 O3    s    0.919565 *  0.808063 *  0.028625 *  -3.33043    1.000000    
    213 O2    s    0.879122 *  0.094533 *  0.695208 *  -2.87073    1.000000    
    214 O2    s    0.784672 *  0.871681 *  0.859550 *  -2.87073    1.000000    
    215 O2    s    0.092274 *  0.216029 *  0.529562 *  -2.87073    1.000000    
    216 O2    s    0.120841 *  0.906525 *  0.198823 *  -2.87073    1.000000    
    217 O2    s    0.924347 *  0.857140 *  0.249843 *  -2.87073    1.000000    
    218 O2    s    0.140349 *  0.068829 *  0.581964 *  -2.87073    1.000000    
    219 O2    s    0.935167 *  0.058540 *  0.912904 *  -2.87073    1.000000    
    220 O2    s    0.073844 *  0.138253 *  0.747176 *  -2.87073    1.000000    
    221 O2    s    0.853094 *  0.931672 *  0.082782 *  -2.87073    1.000000    
    222 O2    s    0.068311 *  0.929015 *  0.416355 *  -2.87073    1.000000    
    223 O3    s    0.908606 *  0.202788 *  0.970541 *  -3.33043    1.000000    
    224 O2    s    0.793963 *  0.702481 *  0.315714 *  -2.87073    1.000000    
    225 O2    s    0.296293 *  0.090423 *  0.647801 *  -2.87073    1.000000    
    226 O2    s    0.088583 *  0.794985 *  0.482019 *  -2.87073    1.000000    
    227 O2    s    0.205364 *  0.292992 *  0.812945 *  -2.87073    1.000000    
    228 O2    s    0.703042 *  0.912377 *  0.150063 *  -2.87073    1.000000    
    229 O2    s    0.205188 *  0.907323 *  0.352546 *  -2.87073    1.000000    
    230 O2    s    0.707621 *  0.792488 *  0.015413 *  -2.87073    1.000000    
    231 O2    s    0.092335 *  0.295522 *  0.682984 *  -2.87073    1.000000    
    232 O2    s    0.797222 *  0.085321 *  0.849570 *  -2.87073    1.000000    
    233 O2    s    0.294420 *  0.207324 *  0.517211 *  -2.87073    1.000000    
    234 O2    s    0.912884 *  0.699661 *  0.186620 *  -2.87073    1.000000    
    235 O2    s    0.326876 *  0.657398 *  0.249587 *  -2.87073    1.000000    
    236 O2    s    0.342898 *  0.671400 *  0.581914 *  -2.87073    1.000000    
    237 O2    s    0.330224 *  0.671810 *  0.913366 *  -2.87073    1.000000    
    238 O2    s    0.674262 *  0.341330 *  0.749738 *  -2.87073    1.000000    
    239 O3    s    0.637108 *  0.315509 *  0.087865 *  -3.33043    1.000000    
    240 O2    s    0.671465 *  0.330526 *  0.417710 *  -2.87073    1.000000    
    241 O2    s    0.372360 *  0.339722 *  0.965041 *  -2.87073    1.000000    
    242 O2    s    0.660426 *  0.035669 *  0.304181 *  -2.87073    1.000000    
    243 O2    s    0.963648 *  0.622621 *  0.634848 *  -2.87073    1.000000    
    244 O2    s    0.620792 *  0.660730 *  0.467569 *  -2.87073    1.000000    
    245 O2    s    0.341067 *  0.960331 *  0.799945 *  -2.87073    1.000000    
    246 O3    s    0.048535 *  0.385406 *  0.133037 *  -3.33043    1.000000    
    247 O2    s    0.338661 *  0.375313 *  0.363955 *  -2.87073    1.000000    
    248 O3    s    0.049874 *  0.668320 *  0.028605 *  -3.33043    1.000000    
    249 O2    s    0.624209 *  0.963257 *  0.696659 *  -2.87073    1.000000    
    250 O2    s    0.659436 *  0.617867 *  0.862628 *  -2.87073    1.000000    
    251 O2    s    0.961240 *  0.339871 *  0.531075 *  -2.87073    1.000000    
    252 O2    s    0.376120 *  0.037002 *  0.200831 *  -2.87073    1.000000    
    253 O1    s    0.760433 *  0.295309 *  0.005995 *  -3.73396    1.000000    
    254 O2    s    0.688609 *  0.465626 *  0.347407 *  -2.87073    1.000000    
    255 O2    s    0.535018 *  0.222010 *  0.679666 *  -2.87073    1.000000    
    256 O2    s    0.220465 *  0.688509 *  0.512781 *  -2.87073    1.000000    
    257 O2    s    0.312684 *  0.532332 *  0.843460 *  -2.87073    1.000000    
    258 O2    s    0.467056 *  0.782974 *  0.181198 *  -2.87073    1.000000    
    259 O2    s    0.309226 *  0.774521 *  0.320143 *  -2.87073    1.000000    
    260 O2    s    0.471895 *  0.691262 *  0.982666 *  -2.87073    1.000000    
    261 O2    s    0.224228 *  0.533717 *  0.651663 *  -2.87073    1.000000    
    262 O2    s    0.692377 *  0.219888 *  0.818896 *  -2.87073    1.000000    
    263 O2    s    0.532023 *  0.313146 *  0.486429 *  -2.87073    1.000000    
    264 O2    s    0.773671 *  0.466014 *  0.150951 *  -2.87073    1.000000    
    265 O1    s    0.781463 *  0.541758 *  0.025305 *  -3.73396    1.000000    
    266 O2    s    0.467433 *  0.257223 *  0.364170 *  -2.87073    1.000000    
    267 O2    s    0.744409 *  0.210011 *  0.696529 *  -2.87073    1.000000    
    268 O2    s    0.208292 *  0.467283 *  0.529493 *  -2.87073    1.000000    
    269 O2    s    0.534548 *  0.740401 *  0.861181 *  -2.87073    1.000000    
    270 O2    s    0.254660 *  0.790837 *  0.198455 *  -2.87073    1.000000    
    271 O2    s    0.530973 *  0.788947 *  0.303008 *  -2.87073    1.000000    
    272 O2    s    0.258024 *  0.470399 *  0.966633 *  -2.87073    1.000000    
    273 O2    s    0.210532 *  0.741614 *  0.635030 *  -2.87073    1.000000    
    274 O2    s    0.470139 *  0.206496 *  0.801791 *  -2.87073    1.000000    
    275 O2    s    0.740409 *  0.533855 *  0.469931 *  -2.87073    1.000000    
    276 O3    s    0.780827 *  0.257082 *  0.135699 *  -3.33043    1.000000    
    277 O2    s    0.237195 *  0.333989 *  0.895815 *  -2.87073    1.000000    
    278 O2    s    0.668335 *  0.911144 *  0.233694 *  -2.87073    1.000000    
    279 O2    s    0.090625 *  0.758030 *  0.564998 *  -2.87073    1.000000    
    280 O2    s    0.757700 *  0.666667 *  0.398770 *  -2.87073    1.000000    
    281 O2    s    0.334046 *  0.089656 *  0.730825 *  -2.87073    1.000000    
    282 O1    s    0.908293 *  0.232191 *  0.061007 *  -3.73396    1.000000    
    283 O2    s    0.331483 *  0.241893 *  0.434027 *  -2.87073    1.000000    
    284 O3    s    0.905015 *  0.668433 *  0.103683 *  -3.33043    1.000000    
    285 O2    s    0.761129 *  0.090450 *  0.766589 *  -2.87073    1.000000    
    286 O2    s    0.671657 *  0.756065 *  0.931572 *  -2.87073    1.000000    
    287 O2    s    0.091310 *  0.332973 *  0.600230 *  -2.87073    1.000000    
    288 O2    s    0.240468 *  0.907917 *  0.269793 *  -2.87073    1.000000    
    289 O2    s    0.582549 *  0.557646 *  0.984989 *  -2.87073    1.000000    
    290 O2    s    0.441644 *  0.020547 *  0.323345 *  -2.87073    1.000000    
    291 O2    s    0.977743 *  0.417716 *  0.653602 *  -2.87073    1.000000    
    292 O2    s    0.415121 *  0.442253 *  0.486384 *  -2.87073    1.000000    
    293 O2    s    0.560650 *  0.974017 *  0.818901 *  -2.87073    1.000000    
    294 O2    s    0.018336 *  0.574739 *  0.149125 *  -2.87073    1.000000    
    295 O2    s    0.557616 *  0.581392 *  0.345369 *  -2.87073    1.000000    
    296 O3    s    0.028930 *  0.455443 *  0.006484 *  -3.33043    1.000000    
    297 O2    s    0.417798 *  0.975580 *  0.677600 *  -2.87073    1.000000    
    298 O2    s    0.439956 *  0.412233 *  0.844504 *  -2.87073    1.000000    
    299 O2    s    0.973795 *  0.558637 *  0.512403 *  -2.87073    1.000000    
    300 O2    s    0.585603 *  0.028690 *  0.181866 *  -2.87073    1.000000    
    301 O2    s    0.576958 *  0.153689 *  0.253591 *  -2.87073    1.000000    
    302 O2    s    0.845024 *  0.422293 *  0.583503 *  -2.87073    1.000000    
    303 O2    s    0.576654 *  0.420253 *  0.915178 *  -2.87073    1.000000    
    304 O2    s    0.423446 *  0.844390 *  0.747868 *  -2.87073    1.000000    
    305 O2    s    0.150996 *  0.574691 *  0.080199 *  -2.87073    1.000000    
    306 O2    s    0.420293 *  0.576316 *  0.415442 *  -2.87073    1.000000    
    307 F     s    0.449497 *  0.903104 *  0.250764 *  -1.56000    1.000000    
    308 F     s    0.096010 *  0.547538 *  0.582124 *  -1.56000    1.000000    
    309 F     s    0.449458 *  0.549263 *  0.913240 *  -1.56000    1.000000    
    310 F     s    0.550181 *  0.095388 *  0.748336 *  -1.56000    1.000000    
    311 F     s    0.864850 *  0.431238 *  0.069032 *  -1.56000    1.000000    
    312 F     s    0.547054 *  0.452232 *  0.415764 *  -1.56000    1.000000    
--------------------------------------------------------------------------------



********************************************************************************
*  General input information                                                   *
********************************************************************************

  Species output for all configurations : 

--------------------------------------------------------------------------------
  Species    Type    Atomic    Atomic    Charge       Radii (Angs)     Library
                     Number     Mass       (e)     Cova   Ionic  VDW   Symbol
--------------------------------------------------------------------------------
    Si       Core       14      28.09   4.000000   1.200  0.000  2.100          
    O1       Core        8      16.00   1.733957   0.730  0.000  1.360          
    O1       Shell       8       0.00  -3.733957   0.730  0.000  1.360          
    O2       Core        8      16.00   0.870733   0.730  0.000  1.360          
    O2       Shell       8       0.00  -2.870733   0.730  0.000  1.360          
    O3       Core        8      16.00   1.330431   0.730  0.000  1.360          
    O3       Shell       8       0.00  -3.330431   0.730  0.000  1.360          
    F        Core        9      19.00   0.560000   0.710  0.000  1.300          
    F        Shell       9       0.00  -1.560000   0.710  0.000  1.300          
    Ge       Core       32      72.61   4.000000   1.170  0.000  1.750          
--------------------------------------------------------------------------------


  Lattice summation method               =    Ewald          (3-D)
                                         =    Parry          (2-D)
                                         =    Saunders et al (1-D)
  Accuracy factor for lattice sums       =   12.000


  Time limit = Infinity

  Maximum range for interatomic potentials =        16.000000 Angstroms

  Taper potentials to zero over   1.0000 Angstroms using polynomial

  General interatomic potentials :

--------------------------------------------------------------------------------
Atom  Types   Potential         A         B         C         D     Cutoffs(Ang)
  1     2                                                            Min    Max 
--------------------------------------------------------------------------------
Si   c O1   s Buckingham    0.132E+04 0.318      10.1      0.00     0.000 16.000
Si   c O2   s Buckingham    0.132E+04 0.318      10.1      0.00     0.000 16.000
Si   c O3   s Buckingham    0.132E+04 0.318      10.1      0.00     0.000 16.000
Ge   c O1   s Buckingham    0.150E+04 0.326      16.8      0.00     0.000 16.000
Ge   c O2   s Buckingham    0.150E+04 0.326      16.8      0.00     0.000 16.000
Ge   c O3   s Buckingham    0.150E+04 0.326      16.8      0.00     0.000 16.000
O1   s O1   s Buckingham    0.228E+05 0.149      10.9      0.00     0.000 16.000
O1   s O2   s Buckingham    0.228E+05 0.149      10.9      0.00     0.000 16.000
O1   s O3   s Buckingham    0.228E+05 0.149      10.9      0.00     0.000 16.000
O2   s O2   s Buckingham    0.228E+05 0.149      10.9      0.00     0.000 16.000
O2   s O3   s Buckingham    0.228E+05 0.149      10.9      0.00     0.000 16.000
O3   s O3   s Buckingham    0.228E+05 0.149      10.9      0.00     0.000 16.000
Si   c F    s Buckingham     977.     0.282      0.00      0.00     0.000 16.000
Ge   c F    s Buckingham     681.     0.320      0.00      0.00     0.000 16.000
F    s F    s Buckingham     540.     0.262      0.00      0.00     0.000 16.000
O1   s F    s Buckingham    0.168E+04 0.268      0.00      0.00     0.000 16.000
O2   s F    s Buckingham    0.168E+04 0.268      0.00      0.00     0.000 16.000
O3   s F    s Buckingham    0.168E+04 0.268      0.00      0.00     0.000 16.000
O2   c O2   s Spring (c-s)   76.0      0.00      0.00      0.00     0.000  0.800
O3   c O3   s Spring (c-s)   128.      0.00      0.00      0.00     0.000  0.800
O1   c O1   s Spring (c-s)   180.      0.00      0.00      0.00     0.000  0.800
F    c F    s Spring (c-s)   33.5      0.00      0.00      0.00     0.000  0.800
--------------------------------------------------------------------------------

  General Three-body potentials :

  Harmonic form:

--------------------------------------------------------------------------------
Atom    Atom    Atom           Force Constants            Theta     Cutoffs  
  1       2       3     (eVrad**-2/eVrad**-3/eVrad**-4)   (deg)  1-2  1-3  2-3
--------------------------------------------------------------------------------
Si    c O1    s O1    s  1.261        0.0000    0.0000   109.470 0.00 0.00 0.00
                                                                 1.90 1.90 3.50
Si    c O1    s O2    s  1.261        0.0000    0.0000   109.470 0.00 0.00 0.00
                                                                 1.90 1.90 3.50
Si    c O2    s O2    s  1.261        0.0000    0.0000   109.470 0.00 0.00 0.00
                                                                 1.90 1.90 3.50
--------------------------------------------------------------------------------

********************************************************************************
*  Output for configuration   1                                                *
********************************************************************************


  Components of energy : 

--------------------------------------------------------------------------------
  Interatomic potentials     =        2059.33592401 eV
  Three-body potentials      =           0.44725377 eV
  Monopole - monopole (real) =       -6577.52456993 eV
  Monopole - monopole (recip)=       -3194.71066712 eV
  Monopole - monopole (total)=       -9772.23523705 eV
  Neutralising energy        =          -6.45811852 eV
--------------------------------------------------------------------------------
  Total lattice energy       =       -7718.91017780 eV
--------------------------------------------------------------------------------
  Total lattice energy       =         -744756.8378 kJ/(mole unit cells)
--------------------------------------------------------------------------------


  Number of variables =      939

  Maximum number of calculations  =          1000
  Maximum Hessian update interval =            10
  Maximum step size               =   0.010000000
  Maximum parameter tolerance     =   0.000010000
  Maximum function  tolerance     =   0.000010000
  Maximum gradient  tolerance     =   0.001000000
  Maximum gradient  component     =   0.010000000

  Symmetry not applied to optimisation

  Cell parameters to be optimised using strains

  RFO method to be used

  DFP hessian update to be used

  Dumpfile to be written after every cycle

  Start of bulk optimisation :

  Cycle:      0 Energy:     -7718.910178  Gnorm:      0.000582  CPU:    1.065
  ** Hessian has required structure
  Cycle:      1 Energy:     -7718.911461  Gnorm:      0.000575  CPU:    4.125
  ** Hessian has required structure
  Cycle:      2 Energy:     -7718.913600  Gnorm:      0.000561  CPU:    7.511
  ** Hessian has required structure
  Cycle:      3 Energy:     -7718.916808  Gnorm:      0.000545  CPU:   10.897
  ** Hessian has required structure
  Cycle:      4 Energy:     -7718.920632  Gnorm:      0.000540  CPU:   13.952
  ** Hessian has required structure
  Cycle:      5 Energy:     -7718.924043  Gnorm:      0.000544  CPU:   17.007
  ** Hessian has required structure
  Cycle:      6 Energy:     -7718.926933  Gnorm:      0.000545  CPU:   20.065
  ** Hessian has required structure
  Cycle:      7 Energy:     -7718.929422  Gnorm:      0.000541  CPU:   23.121
  ** Hessian has required structure
  Cycle:      8 Energy:     -7718.931593  Gnorm:      0.000534  CPU:   26.177
  ** Hessian has required structure
  Cycle:      9 Energy:     -7718.933502  Gnorm:      0.000525  CPU:   29.234
  ** Hessian has required structure
  Cycle:     10 Energy:     -7718.935190  Gnorm:      0.000515  CPU:   32.291
  ** Hessian has required structure
  Cycle:     11 Energy:     -7718.936673  Gnorm:      0.000497  CPU:   36.010
  ** Hessian has required structure
  Cycle:     12 Energy:     -7718.938007  Gnorm:      0.000487  CPU:   39.068
  ** Hessian has required structure
  Cycle:     13 Energy:     -7718.939197  Gnorm:      0.000476  CPU:   42.125
  ** Hessian has required structure
  Cycle:     14 Energy:     -7718.940259  Gnorm:      0.000464  CPU:   45.184
  ** Hessian has required structure
  Cycle:     15 Energy:     -7718.941209  Gnorm:      0.000450  CPU:   48.242
  ** Hessian has required structure
  Cycle:     16 Energy:     -7718.942059  Gnorm:      0.000436  CPU:   51.299
  ** Hessian has required structure
  Cycle:     17 Energy:     -7718.942821  Gnorm:      0.000422  CPU:   54.358
  ** Hessian has required structure
  Cycle:     18 Energy:     -7718.943504  Gnorm:      0.000408  CPU:   57.418
  ** Hessian has required structure
  Cycle:     19 Energy:     -7718.944117  Gnorm:      0.000393  CPU:   60.475
  ** Hessian has required structure
  Cycle:     20 Energy:     -7718.944667  Gnorm:      0.000379  CPU:   63.534
  ** Hessian has required structure
  Cycle:     21 Energy:     -7718.945159  Gnorm:      0.000362  CPU:   67.289
  ** Hessian has required structure
  Cycle:     22 Energy:     -7718.945603  Gnorm:      0.000349  CPU:   70.349
  ** Hessian has required structure
  Cycle:     23 Energy:     -7718.946002  Gnorm:      0.000335  CPU:   73.408
  ** Hessian has required structure
  Cycle:     24 Energy:     -7718.946361  Gnorm:      0.000322  CPU:   76.467
  ** Hessian has required structure
  Cycle:     25 Energy:     -7718.946683  Gnorm:      0.000309  CPU:   79.525
  ** Hessian has required structure
  Cycle:     26 Energy:     -7718.946973  Gnorm:      0.000297  CPU:   82.586
  ** Hessian has required structure
  Cycle:     27 Energy:     -7718.947234  Gnorm:      0.000284  CPU:   85.648
  ** Hessian has required structure
  Cycle:     28 Energy:     -7718.947469  Gnorm:      0.000272  CPU:   88.708
  ** Hessian has required structure
  Cycle:     29 Energy:     -7718.947681  Gnorm:      0.000261  CPU:   91.768
  ** Hessian has required structure
  Cycle:     30 Energy:     -7718.947871  Gnorm:      0.000249  CPU:   94.830
  ** Hessian has required structure
  Cycle:     31 Energy:     -7718.948042  Gnorm:      0.000238  CPU:   98.551
  ** Hessian has required structure
  Cycle:     32 Energy:     -7718.948196  Gnorm:      0.000227  CPU:  101.612
  ** Hessian has required structure
  Cycle:     33 Energy:     -7718.948335  Gnorm:      0.000217  CPU:  104.672
  ** Hessian has required structure
  Cycle:     34 Energy:     -7718.948460  Gnorm:      0.000208  CPU:  107.734
  ** Hessian has required structure
  Cycle:     35 Energy:     -7718.948573  Gnorm:      0.000198  CPU:  110.794
  ** Hessian has required structure
  Cycle:     36 Energy:     -7718.948674  Gnorm:      0.000189  CPU:  113.855
  ** Hessian has required structure
  Cycle:     37 Energy:     -7718.948766  Gnorm:      0.000181  CPU:  116.916
  ** Hessian has required structure
  Cycle:     38 Energy:     -7718.948848  Gnorm:      0.000172  CPU:  119.977
  ** Hessian has required structure
  Cycle:     39 Energy:     -7718.948922  Gnorm:      0.000164  CPU:  123.038
  ** Hessian has required structure
  Cycle:     40 Energy:     -7718.948989  Gnorm:      0.000157  CPU:  126.100
  ** Hessian has required structure
  Cycle:     41 Energy:     -7718.949049  Gnorm:      0.000149  CPU:  129.820
  ** Hessian has required structure
  Cycle:     42 Energy:     -7718.949104  Gnorm:      0.000142  CPU:  132.880
  ** Hessian has required structure
  Cycle:     43 Energy:     -7718.949134  Gnorm:      0.000138  CPU:  135.279
  ** Hessian has required structure
  Cycle:     44 Energy:     -7718.949157  Gnorm:      0.000135  CPU:  137.677
  ** Hessian has required structure
  Cycle:     45 Energy:     -7718.949178  Gnorm:      0.000132  CPU:  140.076
  ** Hessian has required structure
  Cycle:     46 Energy:     -7718.949196  Gnorm:      0.000129  CPU:  142.475
  ** Hessian has required structure
  Cycle:     47 Energy:     -7718.949213  Gnorm:      0.000126  CPU:  144.874
  ** Hessian has required structure
  Cycle:     48 Energy:     -7718.949229  Gnorm:      0.000124  CPU:  147.272
  ** Hessian has required structure
  Cycle:     49 Energy:     -7718.949245  Gnorm:      0.000121  CPU:  149.670
  ** Hessian has required structure
  Cycle:     50 Energy:     -7718.949259  Gnorm:      0.000119  CPU:  152.069
  ** Hessian has required structure
  Cycle:     51 Energy:     -7718.949280  Gnorm:      0.000115  CPU:  155.128
  ** Hessian has required structure
  Cycle:     52 Energy:     -7718.949296  Gnorm:      0.000112  CPU:  157.526
  ** Hessian has required structure
  Cycle:     53 Energy:     -7718.949310  Gnorm:      0.000110  CPU:  160.140
  ** Hessian has required structure
  Cycle:     54 Energy:     -7718.949323  Gnorm:      0.000108  CPU:  162.539
  ** Hessian has required structure
  Cycle:     55 Energy:     -7718.949335  Gnorm:      0.000105  CPU:  164.937
  ** Hessian has required structure
  Cycle:     56 Energy:     -7718.949346  Gnorm:      0.000103  CPU:  167.335
  ** Hessian has required structure
  Cycle:     57 Energy:     -7718.949356  Gnorm:      0.000101  CPU:  169.734
  ** Hessian has required structure
  Cycle:     58 Energy:     -7718.949366  Gnorm:      0.000099  CPU:  172.132
  ** Hessian has required structure
  Cycle:     59 Energy:     -7718.949376  Gnorm:      0.000097  CPU:  174.531
  ** Hessian has required structure
  Cycle:     60 Energy:     -7718.949385  Gnorm:      0.000095  CPU:  176.929
  ** Hessian has required structure
  Cycle:     61 Energy:     -7718.949398  Gnorm:      0.000092  CPU:  179.989
  ** Hessian has required structure
  Cycle:     62 Energy:     -7718.949408  Gnorm:      0.000090  CPU:  182.387
  ** Hessian has required structure
  Cycle:     63 Energy:     -7718.949417  Gnorm:      0.000088  CPU:  184.900
  ** Hessian has required structure
  Cycle:     64 Energy:     -7718.949425  Gnorm:      0.000086  CPU:  187.300
  ** Hessian has required structure
  Cycle:     65 Energy:     -7718.949433  Gnorm:      0.000084  CPU:  189.697
  ** Hessian has required structure
  Cycle:     66 Energy:     -7718.949440  Gnorm:      0.000083  CPU:  192.097
  ** Hessian has required structure
  Cycle:     67 Energy:     -7718.949446  Gnorm:      0.000081  CPU:  194.501
  ** Hessian has required structure
  Cycle:     68 Energy:     -7718.949453  Gnorm:      0.000079  CPU:  196.898
  ** Hessian has required structure
  Cycle:     69 Energy:     -7718.949459  Gnorm:      0.000078  CPU:  199.297
  ** Hessian has required structure
  Cycle:     70 Energy:     -7718.949465  Gnorm:      0.000076  CPU:  201.696
  ** Hessian has required structure
  Cycle:     71 Energy:     -7718.949473  Gnorm:      0.000074  CPU:  204.756
  ** Hessian has required structure
  Cycle:     72 Energy:     -7718.949479  Gnorm:      0.000072  CPU:  207.152
  ** Hessian has required structure
  Cycle:     73 Energy:     -7718.949485  Gnorm:      0.000070  CPU:  209.549
  ** Hessian has required structure
  Cycle:     74 Energy:     -7718.949490  Gnorm:      0.000069  CPU:  211.948
  ** Hessian has required structure
  Cycle:     75 Energy:     -7718.949495  Gnorm:      0.000067  CPU:  214.347
  ** Hessian has required structure
  Cycle:     76 Energy:     -7718.949499  Gnorm:      0.000066  CPU:  216.745
  ** Hessian has required structure
  Cycle:     77 Energy:     -7718.949503  Gnorm:      0.000065  CPU:  219.145
  ** Hessian has required structure
  Cycle:     78 Energy:     -7718.949507  Gnorm:      0.000063  CPU:  221.545
  ** Hessian has required structure
  Cycle:     79 Energy:     -7718.949511  Gnorm:      0.000062  CPU:  223.943
  ** Hessian has required structure
  Cycle:     80 Energy:     -7718.949515  Gnorm:      0.000061  CPU:  226.343
  ** Hessian has required structure
  Cycle:     81 Energy:     -7718.949520  Gnorm:      0.000059  CPU:  229.400
  ** Hessian has required structure
  Cycle:     82 Energy:     -7718.949524  Gnorm:      0.000057  CPU:  231.798
  ** Hessian has required structure
  Cycle:     83 Energy:     -7718.949528  Gnorm:      0.000056  CPU:  234.196
  ** Hessian has required structure
  Cycle:     84 Energy:     -7718.949531  Gnorm:      0.000055  CPU:  236.593
  ** Hessian has required structure
  Cycle:     85 Energy:     -7718.949534  Gnorm:      0.000054  CPU:  238.993
  ** Hessian has required structure
  Cycle:     86 Energy:     -7718.949537  Gnorm:      0.000053  CPU:  241.390
  ** Hessian has required structure
  Cycle:     87 Energy:     -7718.949540  Gnorm:      0.000052  CPU:  243.788
  ** Hessian has required structure
  Cycle:     88 Energy:     -7718.949542  Gnorm:      0.000051  CPU:  246.185
  ** Hessian has required structure
  Cycle:     89 Energy:     -7718.949545  Gnorm:      0.000050  CPU:  248.633
  ** Hessian has required structure
  Cycle:     90 Energy:     -7718.949547  Gnorm:      0.000049  CPU:  251.031
  ** Hessian has required structure
  Cycle:     91 Energy:     -7718.949550  Gnorm:      0.000047  CPU:  254.089
  ** Hessian has required structure
  Cycle:     92 Energy:     -7718.949553  Gnorm:      0.000046  CPU:  256.662
  ** Hessian has required structure
  Cycle:     93 Energy:     -7718.949555  Gnorm:      0.000045  CPU:  259.059
  ** Hessian has required structure
  Cycle:     94 Energy:     -7718.949557  Gnorm:      0.000044  CPU:  261.457
  ** Hessian has required structure
  Cycle:     95 Energy:     -7718.949559  Gnorm:      0.000043  CPU:  263.855
  ** Hessian has required structure
  Cycle:     96 Energy:     -7718.949561  Gnorm:      0.000042  CPU:  266.252
  ** Hessian has required structure
  Cycle:     97 Energy:     -7718.949563  Gnorm:      0.000041  CPU:  268.651
  ** Hessian has required structure
  Cycle:     98 Energy:     -7718.949564  Gnorm:      0.000040  CPU:  271.050
  ** Hessian has required structure
  Cycle:     99 Energy:     -7718.949566  Gnorm:      0.000040  CPU:  273.447
  ** Hessian has required structure
  Cycle:    100 Energy:     -7718.949567  Gnorm:      0.000039  CPU:  275.846
  ** Hessian has required structure
  Cycle:    101 Energy:     -7718.949569  Gnorm:      0.000038  CPU:  278.905
  ** Hessian has required structure
  Cycle:    102 Energy:     -7718.949571  Gnorm:      0.000037  CPU:  281.302
  ** Hessian has required structure
  Cycle:    103 Energy:     -7718.949572  Gnorm:      0.000036  CPU:  283.901
  ** Hessian has required structure
  Cycle:    104 Energy:     -7718.949574  Gnorm:      0.000035  CPU:  286.301
  ** Hessian has required structure
  Cycle:    105 Energy:     -7718.949575  Gnorm:      0.000034  CPU:  288.700
  ** Hessian has required structure
  Cycle:    106 Energy:     -7718.949576  Gnorm:      0.000034  CPU:  291.097
  ** Hessian has required structure
  Cycle:    107 Energy:     -7718.949577  Gnorm:      0.000033  CPU:  293.496
  ** Hessian has required structure
  Cycle:    108 Energy:     -7718.949578  Gnorm:      0.000032  CPU:  295.894
  ** Hessian has required structure
  Cycle:    109 Energy:     -7718.949579  Gnorm:      0.000032  CPU:  298.294
  ** Hessian has required structure
  Cycle:    110 Energy:     -7718.949580  Gnorm:      0.000031  CPU:  300.692
  ** Hessian has required structure
  Cycle:    111 Energy:     -7718.949581  Gnorm:      0.000030  CPU:  303.751
  ** Hessian has required structure
  Cycle:    112 Energy:     -7718.949582  Gnorm:      0.000029  CPU:  306.151
  ** Hessian has required structure
  Cycle:    113 Energy:     -7718.949583  Gnorm:      0.000029  CPU:  308.550
  ** Hessian has required structure
  Cycle:    114 Energy:     -7718.949584  Gnorm:      0.000028  CPU:  310.948
  ** Hessian has required structure
  Cycle:    115 Energy:     -7718.949585  Gnorm:      0.000027  CPU:  313.346
  ** Hessian has required structure
  Cycle:    116 Energy:     -7718.949586  Gnorm:      0.000027  CPU:  315.744
  ** Hessian has required structure


  **** Optimisation achieved ****


  Final energy =   -7718.94958633 eV
  Final Gnorm  =       0.00002624

  Components of energy : 

--------------------------------------------------------------------------------
  Interatomic potentials     =        2059.54500410 eV
  Three-body potentials      =           0.45062706 eV
  Monopole - monopole (real) =       -6577.88144346 eV
  Monopole - monopole (recip)=       -3194.60586637 eV
  Monopole - monopole (total)=       -9772.48730983 eV
  Neutralising energy        =          -6.45790766 eV
--------------------------------------------------------------------------------
  Total lattice energy       =       -7718.94958633 eV
--------------------------------------------------------------------------------
  Total lattice energy       =         -744760.6401 kJ/(mole unit cells)
--------------------------------------------------------------------------------

  Final fractional coordinates of atoms :

--------------------------------------------------------------------------------
   No.  Atomic        x           y          z          Radius
        Label       (Frac)      (Frac)     (Frac)       (Angs) 
--------------------------------------------------------------------------------
     1  Ge    c     0.699600    0.375700    0.033890    0.000000
     2  Si    c     0.606071    0.311433    0.366411    0.000000
     3  Si    c     0.666862    0.285207    0.698550    0.000000
     4  Si    c     0.280057    0.607787    0.529998    0.000000
     5  Si    c     0.369729    0.661226    0.861661    0.000000
     6  Si    c     0.311084    0.698739    0.198278    0.000000
     7  Si    c     0.362177    0.688687    0.298783    0.000000
     8  Si    c     0.317265    0.612181    0.962177    0.000000
     9  Si    c     0.286552    0.665067    0.630646    0.000000
    10  Si    c     0.612198    0.281530    0.799289    0.000000
    11  Si    c     0.660126    0.368898    0.467052    0.000000
    12  Si    c     0.678007    0.309902    0.133844    0.000000
    13  Si    c     0.519435    0.403612    0.966427    0.000000
    14  Si    c     0.568872    0.099103    0.303466    0.000000
    15  Si    c     0.876138    0.458986    0.633794    0.000000
    16  Si    c     0.450923    0.569899    0.464657    0.000000
    17  Si    c     0.407353    0.871811    0.797130    0.000000
    18  Si    c     0.105853    0.524662    0.130213    0.000000
    19  Si    c     0.399660    0.514454    0.362830    0.000000
    20  Si    c     0.108922    0.582620    0.026058    0.000000
    21  Si    c     0.460341    0.876181    0.695345    0.000000
    22  Si    c     0.571967    0.452844    0.863906    0.000000
    23  Si    c     0.871441    0.405669    0.532027    0.000000
    24  Si    c     0.516853    0.104339    0.201864    0.000000
    25  Si    c     0.291390    0.384116    0.848040    0.000000
    26  Si    c     0.590694    0.899153    0.185277    0.000000
    27  Si    c     0.079028    0.685408    0.516582    0.000000
    28  Si    c     0.681183    0.586955    0.349940    0.000000
    29  Si    c     0.388448    0.084293    0.682196    0.000000
    30  Ge    c     0.890561    0.292986    0.008596    0.000000
    31  Si    c     0.380645    0.290901    0.479830    0.000000
    32  Si    c     0.888006    0.593248    0.146269    0.000000
    33  Si    c     0.689266    0.080563    0.812691    0.000000
    34  Si    c     0.594912    0.686842    0.977773    0.000000
    35  Si    c     0.086164    0.387684    0.646514    0.000000
    36  Si    c     0.286947    0.889087    0.315898    0.000000
    37  Si    c     0.241034    0.331388    0.948620    0.000000
    38  Si    c     0.645147    0.898825    0.286234    0.000000
    39  Si    c     0.076840    0.737227    0.617437    0.000000
    40  Si    c     0.730765    0.647913    0.450648    0.000000
    41  Si    c     0.330517    0.072957    0.782904    0.000000
    42  Ge    c     0.897844    0.239759    0.114822    0.000000
    43  Si    c     0.323734    0.237540    0.379020    0.000000
    44  Ge    c     0.903821    0.663004    0.043115    0.000000
    45  Si    c     0.739563    0.077546    0.711800    0.000000
    46  Si    c     0.650548    0.731942    0.876826    0.000000
    47  Si    c     0.072326    0.327285    0.545742    0.000000
    48  Si    c     0.236748    0.902882    0.215332    0.000000
    49  Si    c     0.961079    0.113158    0.960285    0.000000
    50  Si    c     0.861242    0.834250    0.299659    0.000000
    51  Si    c     0.139311    0.016800    0.631387    0.000000
    52  Si    c     0.011216    0.865938    0.465827    0.000000
    53  Si    c     0.113329    0.135372    0.796782    0.000000
    54  Si    c     0.835913    0.960240    0.133223    0.000000
    55  Si    c     0.106566    0.956597    0.364989    0.000000
    56  Si    c     0.840755    0.880370    0.030106    0.000000
    57  Si    c     0.019737    0.139548    0.696031    0.000000
    58  Si    c     0.869884    0.008983    0.861319    0.000000
    59  Si    c     0.133533    0.109583    0.530683    0.000000
    60  Si    c     0.955616    0.836007    0.198959    0.000000
    61  O2    c     0.908532    0.005800    0.999137    0.000000
    62  O2    c     0.985923    0.913188    0.331325    0.000000
    63  O2    c     0.059006    0.059638    0.662836    0.000000
    64  O2    c     0.053254    0.988401    0.497806    0.000000
    65  O2    c     0.988999    0.052429    0.827677    0.000000
    66  O2    c     0.910380    0.906552    0.163486    0.000000
    67  O2    c     0.323174    0.562988    0.329863    0.000000
    68  O2    c     0.412068    0.751740    0.662513    0.000000
    69  O2    c     0.238617    0.655894    0.995595    0.000000
    70  O2    c     0.649151    0.402679    0.832532    0.000000
    71  O2    c     0.566064    0.231980    0.171305    0.000000
    72  O2    c     0.743327    0.329801    0.500242    0.000000
    73  O3    c     0.559526    0.328727    0.999821    0.000000
    74  O2    c     0.752026    0.410001    0.666679    0.000000
    75  O2    c     0.645689    0.224398    0.335836    0.000000
    76  O2    c     0.401379    0.646103    0.496452    0.000000
    77  O2    c     0.231470    0.581056    0.162949    0.000000
    78  O2    c     0.330923    0.745179    0.828632    0.000000
    79  O2    c     0.114947    0.205646    0.969063    0.000000
    80  O2    c     0.770689    0.897043    0.306547    0.000000
    81  O2    c     0.077345    0.863258    0.637379    0.000000
    82  O2    c     0.856501    0.775430    0.470727    0.000000
    83  O2    c     0.204146    0.072491    0.802827    0.000000
    84  O3    c     0.904113    0.111592    0.140094    0.000000
    85  O2    c     0.197774    0.110190    0.358876    0.000000
    86  O3    c     0.922224    0.809826    0.025835    0.000000
    87  O2    c     0.865204    0.077683    0.691286    0.000000
    88  O2    c     0.777442    0.855509    0.855631    0.000000
    89  O2    c     0.069355    0.199582    0.526104    0.000000
    90  O2    c     0.111276    0.905807    0.195504    0.000000
    91  O2    c     0.909540    0.849120    0.248379    0.000000
    92  O2    c     0.124149    0.054545    0.580644    0.000000
    93  O2    c     0.928877    0.043660    0.911699    0.000000
    94  O2    c     0.062789    0.124497    0.745855    0.000000
    95  O2    c     0.840178    0.925281    0.081276    0.000000
    96  O2    c     0.051721    0.918455    0.415253    0.000000
    97  O3    c     0.895990    0.199251    0.964661    0.000000
    98  O2    c     0.779600    0.682862    0.311437    0.000000
    99  O2    c     0.291499    0.087171    0.643726    0.000000
   100  O2    c     0.079674    0.783546    0.478385    0.000000
   101  O2    c     0.193591    0.285943    0.809588    0.000000
   102  O2    c     0.684744    0.897750    0.146389    0.000000
   103  O2    c     0.188967    0.886838    0.354324    0.000000
   104  O2    c     0.691106    0.783321    0.016751    0.000000
   105  O2    c     0.089719    0.291225    0.684469    0.000000
   106  O2    c     0.787156    0.079167    0.851101    0.000000
   107  O2    c     0.284757    0.193559    0.518257    0.000000
   108  O2    c     0.894451    0.685018    0.187950    0.000000
   109  O2    c     0.306903    0.635300    0.247755    0.000000
   110  O2    c     0.341233    0.665204    0.580003    0.000000
   111  O2    c     0.311933    0.664762    0.911461    0.000000
   112  O2    c     0.668548    0.340733    0.749185    0.000000
   113  O3    c     0.615215    0.308760    0.086024    0.000000
   114  O2    c     0.662505    0.312783    0.416969    0.000000
   115  O2    c     0.361608    0.320253    0.966879    0.000000
   116  O2    c     0.655954    0.030062    0.305638    0.000000
   117  O2    c     0.945258    0.614963    0.636354    0.000000
   118  O2    c     0.607654    0.657765    0.467886    0.000000
   119  O2    c     0.319786    0.940115    0.800500    0.000000
   120  O3    c     0.036886    0.372740    0.135300    0.000000
   121  O2    c     0.312674    0.358329    0.359757    0.000000
   122  O3    c     0.049949    0.676048    0.027969    0.000000
   123  O2    c     0.617053    0.945873    0.692683    0.000000
   124  O2    c     0.658662    0.608607    0.859375    0.000000
   125  O2    c     0.938942    0.317655    0.528011    0.000000
   126  O2    c     0.360167    0.034689    0.197494    0.000000
   127  O1    c     0.744085    0.280216    0.002805    0.000000
   128  O2    c     0.681063    0.453152    0.343021    0.000000
   129  O2    c     0.523390    0.218204    0.675510    0.000000
   130  O2    c     0.211628    0.683236    0.508098    0.000000
   131  O2    c     0.294457    0.518578    0.838686    0.000000
   132  O2    c     0.454608    0.768045    0.176503    0.000000
   133  O2    c     0.286220    0.754698    0.321736    0.000000
   134  O2    c     0.461688    0.689276    0.984075    0.000000
   135  O2    c     0.220482    0.522483    0.653229    0.000000
   136  O2    c     0.688248    0.213291    0.821091    0.000000
   137  O2    c     0.515696    0.293483    0.488368    0.000000
   138  O2    c     0.758670    0.456504    0.153918    0.000000
   139  O1    c     0.771579    0.540556    0.019132    0.000000
   140  O2    c     0.449616    0.236312    0.360284    0.000000
   141  O2    c     0.741635    0.204609    0.692903    0.000000
   142  O2    c     0.197934    0.451841    0.525342    0.000000
   143  O2    c     0.526386    0.735761    0.857007    0.000000
   144  O2    c     0.232852    0.776588    0.194586    0.000000
   145  O2    c     0.518511    0.771501    0.304390    0.000000
   146  O2    c     0.239150    0.456305    0.968338    0.000000
   147  O2    c     0.204373    0.738323    0.636163    0.000000
   148  O2    c     0.455832    0.198116    0.803414    0.000000
   149  O2    c     0.732542    0.524538    0.471337    0.000000
   150  O3    c     0.762476    0.238938    0.133951    0.000000
   151  O2    c     0.217718    0.312749    0.894268    0.000000
   152  O2    c     0.664054    0.900652    0.231895    0.000000
   153  O2    c     0.076477    0.755542    0.563062    0.000000
   154  O2    c     0.751241    0.663201    0.396288    0.000000
   155  O2    c     0.313209    0.077101    0.728536    0.000000
   156  O1    c     0.905507    0.222806    0.057979    0.000000
   157  O2    c     0.305978    0.219636    0.433347    0.000000
   158  O3    c     0.885390    0.666714    0.101792    0.000000
   159  O2    c     0.759582    0.078222    0.766170    0.000000
   160  O2    c     0.670526    0.754112    0.931151    0.000000
   161  O2    c     0.077962    0.312084    0.600045    0.000000
   162  O2    c     0.217506    0.897928    0.269678    0.000000
   163  O2    c     0.576055    0.547571    0.987653    0.000000
   164  O2    c     0.427498    0.012264    0.326052    0.000000
   165  O2    c     0.962058    0.402936    0.656213    0.000000
   166  O2    c     0.393964    0.429544    0.487945    0.000000
   167  O2    c     0.549018    0.955570    0.820626    0.000000
   168  O2    c     0.013090    0.576492    0.147832    0.000000
   169  O2    c     0.541406    0.572124    0.340086    0.000000
   170  O3    c     0.015171    0.450102    0.000734    0.000000
   171  O2    c     0.402662    0.960015    0.672446    0.000000
   172  O2    c     0.429894    0.394553    0.840638    0.000000
   173  O2    c     0.952816    0.545975    0.508228    0.000000
   174  O2    c     0.578387    0.025680    0.177954    0.000000
   175  O2    c     0.568333    0.153925    0.253085    0.000000
   176  O2    c     0.820534    0.405378    0.583063    0.000000
   177  O2    c     0.572975    0.405247    0.915185    0.000000
   178  O2    c     0.407111    0.821430    0.745889    0.000000
   179  O2    c     0.146959    0.563330    0.077726    0.000000
   180  O2    c     0.398267    0.567979    0.413382    0.000000
   181  F     c     0.436151    0.892985    0.249813    0.000000
   182  F     c     0.082200    0.535851    0.581009    0.000000
   183  F     c     0.438266    0.537280    0.912243    0.000000
   184  F     c     0.538976    0.082708    0.747029    0.000000
   185  F     c     0.858207    0.430670    0.069969    0.000000
   186  F     c     0.530708    0.439243    0.414301    0.000000
   187  O2    s     0.906657    0.003486    0.998320    0.000000
   188  O2    s     0.985369    0.909133    0.331525    0.000000
   189  O2    s     0.063643    0.063745    0.663009    0.000000
   190  O2    s     0.057486    0.988194    0.497889    0.000000
   191  O2    s     0.989530    0.056859    0.828003    0.000000
   192  O2    s     0.907208    0.904559    0.164132    0.000000
   193  O2    s     0.334980    0.570981    0.330011    0.000000
   194  O2    s     0.404062    0.755550    0.662579    0.000000
   195  O2    s     0.233219    0.643941    0.995340    0.000000
   196  O2    s     0.637497    0.395258    0.832278    0.000000
   197  O2    s     0.572230    0.226467    0.170704    0.000000
   198  O2    s     0.747862    0.341685    0.500051    0.000000
   199  O3    s     0.564699    0.340283    0.998484    0.000000
   200  O2    s     0.756184    0.402337    0.666538    0.000000
   201  O2    s     0.633681    0.220281    0.335604    0.000000
   202  O2    s     0.394115    0.634283    0.496593    0.000000
   203  O2    s     0.226360    0.587235    0.163139    0.000000
   204  O2    s     0.342830    0.749803    0.828729    0.000000
   205  O2    s     0.111860    0.208905    0.966091    0.000000
   206  O2    s     0.767253    0.890591    0.303740    0.000000
   207  O2    s     0.083831    0.866454    0.634717    0.000000
   208  O2    s     0.859934    0.771853    0.468153    0.000000
   209  O2    s     0.207585    0.079212    0.800148    0.000000
   210  O3    s     0.896703    0.105916    0.137500    0.000000
   211  O2    s     0.201107    0.107052    0.361576    0.000000
   212  O3    s     0.912492    0.805766    0.027584    0.000000
   213  O2    s     0.868704    0.084285    0.693889    0.000000
   214  O2    s     0.774285    0.859199    0.858383    0.000000
   215  O2    s     0.076429    0.203167    0.528573    0.000000
   216  O2    s     0.107785    0.898143    0.197893    0.000000
   217  O2    s     0.909346    0.845981    0.248550    0.000000
   218  O2    s     0.126920    0.056553    0.580681    0.000000
   219  O2    s     0.925913    0.047490    0.911493    0.000000
   220  O2    s     0.063599    0.127462    0.745939    0.000000
   221  O2    s     0.839770    0.924289    0.081509    0.000000
   222  O2    s     0.053399    0.916880    0.415229    0.000000
   223  O3    s     0.902345    0.197577    0.967557    0.000000
   224  O2    s     0.778298    0.689216    0.314087    0.000000
   225  O2    s     0.285167    0.079409    0.646311    0.000000
   226  O2    s     0.072310    0.782315    0.480944    0.000000
   227  O2    s     0.194976    0.279816    0.812145    0.000000
   228  O2    s     0.690570    0.904367    0.149096    0.000000
   229  O2    s     0.190307    0.894399    0.351519    0.000000
   230  O2    s     0.696954    0.783588    0.014143    0.000000
   231  O2    s     0.081977    0.285103    0.681803    0.000000
   232  O2    s     0.785911    0.071982    0.848294    0.000000
   233  O2    s     0.278491    0.194659    0.515605    0.000000
   234  O2    s     0.900316    0.691733    0.184916    0.000000
   235  O2    s     0.312897    0.647141    0.247887    0.000000
   236  O2    s     0.329414    0.659315    0.580048    0.000000
   237  O2    s     0.318273    0.659047    0.911579    0.000000
   238  O2    s     0.662646    0.329031    0.749103    0.000000
   239  O3    s     0.627429    0.313427    0.087457    0.000000
   240  O2    s     0.656423    0.318429    0.416875    0.000000
   241  O2    s     0.364078    0.329893    0.964778    0.000000
   242  O2    s     0.645904    0.023461    0.303384    0.000000
   243  O2    s     0.951929    0.611755    0.634104    0.000000
   244  O2    s     0.604446    0.647689    0.465731    0.000000
   245  O2    s     0.329869    0.947030    0.798303    0.000000
   246  O3    s     0.032914    0.377704    0.133162    0.000000
   247  O2    s     0.322719    0.361775    0.362075    0.000000
   248  O3    s     0.044313    0.665818    0.028974    0.000000
   249  O2    s     0.613727    0.952485    0.694969    0.000000
   250  O2    s     0.648939    0.605650    0.861680    0.000000
   251  O2    s     0.945939    0.327683    0.530279    0.000000
   252  O2    s     0.363204    0.027889    0.199834    0.000000
   253  O1    s     0.753096    0.287788    0.005486    0.000000
   254  O2    s     0.673401    0.452642    0.346165    0.000000
   255  O2    s     0.523902    0.210989    0.678605    0.000000
   256  O2    s     0.204715    0.675715    0.511269    0.000000
   257  O2    s     0.301822    0.519066    0.842039    0.000000
   258  O2    s     0.454028    0.774730    0.179757    0.000000
   259  O2    s     0.294058    0.762039    0.318741    0.000000
   260  O2    s     0.460704    0.681045    0.981101    0.000000
   261  O2    s     0.213131    0.522925    0.650174    0.000000
   262  O2    s     0.680623    0.206391    0.817966    0.000000
   263  O2    s     0.516343    0.301024    0.485222    0.000000
   264  O2    s     0.764599    0.456679    0.151074    0.000000
   265  O1    s     0.778277    0.540135    0.022089    0.000000
   266  O2    s     0.452272    0.244319    0.362899    0.000000
   267  O2    s     0.733540    0.199178    0.695501    0.000000
   268  O2    s     0.192799    0.454558    0.527993    0.000000
   269  O2    s     0.523549    0.727518    0.859611    0.000000
   270  O2    s     0.241424    0.782054    0.197167    0.000000
   271  O2    s     0.515913    0.776761    0.301861    0.000000
   272  O2    s     0.247287    0.459084    0.965693    0.000000
   273  O2    s     0.198961    0.730496    0.633585    0.000000
   274  O2    s     0.458612    0.193155    0.800775    0.000000
   275  O2    s     0.724683    0.521649    0.468673    0.000000
   276  O3    s     0.765986    0.245857    0.132284    0.000000
   277  O2    s     0.227848    0.322201    0.895103    0.000000
   278  O2    s     0.654364    0.900312    0.232758    0.000000
   279  O2    s     0.076778    0.746210    0.563928    0.000000
   280  O2    s     0.741734    0.653593    0.397163    0.000000
   281  O2    s     0.322950    0.077412    0.729407    0.000000
   282  O1    s     0.903814    0.229294    0.058959    0.000000
   283  O2    s     0.315686    0.229013    0.432436    0.000000
   284  O3    s     0.887010    0.658813    0.101902    0.000000
   285  O2    s     0.750126    0.078395    0.765278    0.000000
   286  O2    s     0.660645    0.744870    0.930271    0.000000
   287  O2    s     0.078215    0.321623    0.599116    0.000000
   288  O2    s     0.226800    0.897533    0.268730    0.000000
   289  O2    s     0.572257    0.548680    0.984400    0.000000
   290  O2    s     0.427167    0.007906    0.322589    0.000000
   291  O2    s     0.966649    0.407329    0.652818    0.000000
   292  O2    s     0.398666    0.429268    0.484620    0.000000
   293  O2    s     0.549413    0.960544    0.817308    0.000000
   294  O2    s     0.009374    0.572655    0.145749    0.000000
   295  O2    s     0.541642    0.567532    0.343517    0.000000
   296  O3    s     0.014565    0.451055    0.003914    0.000000
   297  O2    s     0.407303    0.964818    0.675875    0.000000
   298  O2    s     0.429827    0.399664    0.843856    0.000000
   299  O2    s     0.958131    0.546427    0.511597    0.000000
   300  O2    s     0.573223    0.020136    0.181205    0.000000
   301  O2    s     0.562953    0.142938    0.252969    0.000000
   302  O2    s     0.831608    0.410958    0.582993    0.000000
   303  O2    s     0.567612    0.410191    0.914778    0.000000
   304  O2    s     0.412674    0.832360    0.745938    0.000000
   305  O2    s     0.138870    0.561189    0.078043    0.000000
   306  O2    s     0.403856    0.562628    0.413443    0.000000
   307  F     s     0.435744    0.892453    0.249717    0.000000
   308  F     s     0.082618    0.536030    0.580944    0.000000
   309  F     s     0.437552    0.537789    0.912136    0.000000
   310  F     s     0.539216    0.083160    0.746974    0.000000
   311  F     s     0.850287    0.427620    0.067938    0.000000
   312  F     s     0.530898    0.439032    0.414219    0.000000
--------------------------------------------------------------------------------

  Final Cartesian lattice vectors (Angstroms) :

       11.960714   -0.003436   -0.010941
       -6.048076   10.396469    0.011297
       -0.186327   -0.068530   29.441633


  Final cell parameters and derivatives :

--------------------------------------------------------------------------------
       a           11.960720 Angstrom     dE/de1(xx)     0.002683 eV/strain
       b           12.027715 Angstrom     dE/de2(yy)     0.002742 eV/strain
       c           29.442302 Angstrom     dE/de3(zz)     0.003226 eV/strain
       alpha       89.879129 Degrees      dE/de4(yz)     0.000222 eV/strain
       beta        90.414974 Degrees      dE/de5(xz)     0.000162 eV/strain
       gamma      120.204902 Degrees      dE/de6(xy)     0.000003 eV/strain
--------------------------------------------------------------------------------

  Primitive cell volume =          3660.415136 Angs**3

  Density of cell =      1.768111 g/cm**3

  Non-primitive cell volume =          3660.415136 Angs**3


  Final internal derivatives :

--------------------------------------------------------------------------------
   No.  Atomic          a             b             c           Radius
        Label          (eV)          (eV)          (eV)        (eV/Angs)
--------------------------------------------------------------------------------
      1 Ge    c       0.000000      0.000000      0.000000      0.000000
      2 Si    c       0.000242      0.000300      0.000145      0.000000
      3 Si    c      -0.000284     -0.000084      0.000035      0.000000
      4 Si    c       0.000286      0.000279      0.000133      0.000000
      5 Si    c       0.000217      0.000439      0.000163      0.000000
      6 Si    c       0.000219     -0.000077      0.000011      0.000000
      7 Si    c       0.000345      0.000379      0.000260      0.000000
      8 Si    c       0.000401      0.000165      0.000351      0.000000
      9 Si    c      -0.000218      0.000089      0.000515      0.000000
     10 Si    c      -0.000106      0.000288     -0.000225      0.000000
     11 Si    c       0.000247      0.000007     -0.000193      0.000000
     12 Si    c       0.001097     -0.000138      0.002901      0.000000
     13 Si    c      -0.000755     -0.000311     -0.001918      0.000000
     14 Si    c       0.000188      0.000276      0.000184      0.000000
     15 Si    c      -0.000127     -0.000100      0.000068      0.000000
     16 Si    c       0.000460      0.000161      0.000404      0.000000
     17 Si    c      -0.000135      0.000405      0.000303      0.000000
     18 Si    c       0.000579      0.000285      0.000343      0.000000
     19 Si    c       0.000535      0.000371      0.000280      0.000000
     20 Si    c       0.001396      0.000297      0.001871      0.000000
     21 Si    c      -0.000368     -0.000043      0.000238      0.000000
     22 Si    c      -0.000190      0.000317     -0.000467      0.000000
     23 Si    c       0.000281      0.000044     -0.000180      0.000000
     24 Si    c       0.000324      0.000060     -0.000255      0.000000
     25 Si    c       0.000096      0.000355      0.000109      0.000000
     26 Si    c       0.000226     -0.000010      0.000395      0.000000
     27 Si    c       0.000354      0.000161     -0.000044      0.000000
     28 Si    c       0.000594      0.000079      0.000422      0.000000
     29 Si    c      -0.000297     -0.000094      0.000193      0.000000
     30 Ge    c       0.002008     -0.000748     -0.000357      0.000000
     31 Si    c       0.000373      0.000006      0.000235      0.000000
     32 Si    c       0.001053      0.000267     -0.000257      0.000000
     33 Si    c      -0.000055      0.000278      0.000149      0.000000
     34 Si    c       0.000310      0.000113     -0.000163      0.000000
     35 Si    c      -0.000299     -0.000077      0.000193      0.000000
     36 Si    c       0.000220      0.000334      0.000230      0.000000
     37 Si    c       0.000264     -0.000224     -0.000437      0.000000
     38 Si    c       0.000265      0.000295      0.000217      0.000000
     39 Si    c      -0.000170     -0.000010      0.000158      0.000000
     40 Si    c       0.000621     -0.000320      0.000193      0.000000
     41 Si    c      -0.000158      0.000359      0.000099      0.000000
     42 Ge    c       0.000080      0.000485      0.003057      0.000000
     43 Si    c       0.000376      0.000306      0.000228      0.000000
     44 Ge    c       0.002000     -0.000647     -0.002387      0.000000
     45 Si    c      -0.000273     -0.000178      0.000151      0.000000
     46 Si    c       0.000077      0.000460     -0.000266      0.000000
     47 Si    c       0.000336      0.000134     -0.000023      0.000000
     48 Si    c       0.000315      0.000015      0.000161      0.000000
     49 Si    c       0.000140      0.000849     -0.002257      0.000000
     50 Si    c       0.000482      0.000431      0.000095      0.000000
     51 Si    c      -0.000136     -0.000058      0.000339      0.000000
     52 Si    c       0.000430      0.000092      0.000376      0.000000
     53 Si    c      -0.000081      0.000484      0.000240      0.000000
     54 Si    c       0.000404     -0.000199      0.000675      0.000000
     55 Si    c       0.000324      0.000350      0.000065      0.000000
     56 Si    c       0.000344      0.000129      0.000872      0.000000
     57 Si    c      -0.000288     -0.000087      0.000223      0.000000
     58 Si    c      -0.000071      0.000629      0.000281      0.000000
     59 Si    c       0.000285      0.000131      0.000044      0.000000
     60 Si    c       0.000533     -0.000146     -0.000131      0.000000
     61 O2    c       0.000274     -0.001427      0.003734      0.000000
     62 O2    c       0.000300      0.000561      0.000162      0.000000
     63 O2    c      -0.000198     -0.000072      0.000398      0.000000
     64 O2    c       0.000278      0.000002      0.000150      0.000000
     65 O2    c       0.000030      0.000628      0.000310      0.000000
     66 O2    c       0.000102     -0.000278      0.000149      0.000000
     67 O2    c       0.000438      0.000377      0.000228      0.000000
     68 O2    c      -0.000436     -0.000203     -0.000136      0.000000
     69 O2    c       0.001010      0.000536      0.000641      0.000000
     70 O2    c       0.000023      0.000504     -0.000149      0.000000
     71 O2    c       0.000379      0.000010     -0.000166      0.000000
     72 O2    c       0.000487     -0.000080      0.000401      0.000000
     73 O3    c       0.000307     -0.001660      0.000841      0.000000
     74 O2    c      -0.000367     -0.000194      0.000177      0.000000
     75 O2    c       0.000236      0.000310     -0.000019      0.000000
     76 O2    c       0.000662      0.000185     -0.000147      0.000000
     77 O2    c       0.000240     -0.000249      0.000543      0.000000
     78 O2    c       0.000017      0.000521      0.000382      0.000000
     79 O2    c       0.000356     -0.000169      0.000142      0.000000
     80 O2    c       0.000298      0.000476      0.000186      0.000000
     81 O2    c      -0.000308     -0.000058      0.000194      0.000000
     82 O2    c       0.000419     -0.000018      0.000354      0.000000
     83 O2    c      -0.000009      0.000459      0.000090      0.000000
     84 O3    c       0.000227      0.000088      0.000689      0.000000
     85 O2    c       0.000309      0.000410      0.000255      0.000000
     86 O3    c       0.001804     -0.000955     -0.000079      0.000000
     87 O2    c      -0.000315     -0.000244      0.000299      0.000000
     88 O2    c       0.000045      0.000532      0.000171      0.000000
     89 O2    c       0.000480      0.000297      0.000245      0.000000
     90 O2    c       0.000359      0.000018      0.000328      0.000000
     91 O2    c       0.000544      0.000497      0.000600      0.000000
     92 O2    c      -0.000001      0.000281      0.000303      0.000000
     93 O2    c      -0.000332      0.000472     -0.000107      0.000000
     94 O2    c      -0.000214      0.000272      0.000200      0.000000
     95 O2    c       0.000304     -0.000086      0.000249      0.000000
     96 O2    c       0.000234      0.000282      0.000301      0.000000
     97 O3    c       0.000130      0.001175     -0.000346      0.000000
     98 O2    c       0.000434      0.000399      0.000245      0.000000
     99 O2    c      -0.000235     -0.000150      0.000187      0.000000
    100 O2    c       0.000485      0.000243      0.000182      0.000000
    101 O2    c      -0.000023      0.000603      0.000263      0.000000
    102 O2    c       0.000247     -0.000226      0.000562      0.000000
    103 O2    c       0.000201      0.000308      0.000103      0.000000
    104 O2    c       0.000243     -0.000396      0.000030      0.000000
    105 O2    c      -0.000407     -0.000115      0.000102      0.000000
    106 O2    c      -0.000077      0.000491      0.000296      0.000000
    107 O2    c       0.000348     -0.000099      0.000185      0.000000
    108 O2    c       0.000550     -0.000231     -0.000064      0.000000
    109 O2    c       0.000326      0.000048      0.000476      0.000000
    110 O2    c       0.000124      0.000235      0.000374      0.000000
    111 O2    c       0.000478      0.000346      0.000546      0.000000
    112 O2    c      -0.000151      0.000104     -0.000087      0.000000
    113 O3    c      -0.001744     -0.000116      0.002355      0.000000
    114 O2    c       0.000191      0.000003      0.000110      0.000000
    115 O2    c       0.000219     -0.000282      0.000046      0.000000
    116 O2    c       0.000201      0.000266      0.000058      0.000000
    117 O2    c      -0.000233     -0.000107      0.000016      0.000000
    118 O2    c       0.000451      0.000079      0.000488      0.000000
    119 O2    c      -0.000116      0.000373      0.000376      0.000000
    120 O3    c       0.001647     -0.000846      0.001992      0.000000
    121 O2    c       0.000450      0.000436      0.000252      0.000000
    122 O3    c      -0.000818      0.002674      0.000247      0.000000
    123 O2    c      -0.000365     -0.000222      0.000317      0.000000
    124 O2    c       0.000104      0.000414     -0.000204      0.000000
    125 O2    c       0.000373      0.000180     -0.000031      0.000000
    126 O2    c       0.000328      0.000050      0.000239      0.000000
    127 O1    c      -0.000225     -0.000816     -0.003667      0.000000
    128 O2    c       0.000318      0.000350      0.000028      0.000000
    129 O2    c      -0.000263     -0.000118     -0.000073      0.000000
    130 O2    c       0.000494      0.000229      0.000791      0.000000
    131 O2    c       0.000082      0.000467      0.000167      0.000000
    132 O2    c       0.000253     -0.000155      0.000570      0.000000
    133 O2    c       0.000374      0.000318      0.000238      0.000000
    134 O2    c       0.000588     -0.000217      0.000366      0.000000
    135 O2    c      -0.000339     -0.000078      0.000834      0.000000
    136 O2    c      -0.000104      0.000407     -0.000158      0.000000
    137 O2    c       0.000315     -0.000112      0.000103      0.000000
    138 O2    c      -0.000091     -0.000156      0.001626      0.000000
    139 O1    c       0.000137      0.002458     -0.005170      0.000000
    140 O2    c       0.000300      0.000265      0.000127      0.000000
    141 O2    c      -0.000370     -0.000203     -0.000080      0.000000
    142 O2    c       0.000465      0.000248      0.000152      0.000000
    143 O2    c       0.000134      0.000362      0.000312      0.000000
    144 O2    c       0.000342     -0.000043      0.000133      0.000000
    145 O2    c       0.000318      0.000311      0.000438      0.000000
    146 O2    c       0.000274      0.000227      0.000239      0.000000
    147 O2    c      -0.000208     -0.000043      0.000425      0.000000
    148 O2    c      -0.000072      0.000428      0.000058      0.000000
    149 O2    c       0.000329     -0.000022     -0.000206      0.000000
    150 O3    c       0.002172     -0.001674      0.000942      0.000000
    151 O2    c       0.000163      0.000170      0.000184      0.000000
    152 O2    c       0.000309      0.000086      0.000449      0.000000
    153 O2    c       0.000171      0.000149      0.000290      0.000000
    154 O2    c       0.000952     -0.000854      0.000370      0.000000
    155 O2    c      -0.000205      0.000118      0.000232      0.000000
    156 O1    c       0.001590     -0.001480     -0.003489      0.000000
    157 O2    c       0.000395      0.000104      0.000249      0.000000
    158 O3    c       0.000427      0.001038      0.009837      0.000000
    159 O2    c      -0.000244      0.000079      0.000263      0.000000
    160 O2    c       0.000372      0.000149      0.000309      0.000000
    161 O2    c      -0.000038     -0.000070      0.000193      0.000000
    162 O2    c       0.000203      0.000178      0.000141      0.000000
    163 O2    c       0.000482      0.000145      0.000132      0.000000
    164 O2    c       0.000185      0.000412     -0.000002      0.000000
    165 O2    c      -0.000385     -0.000138     -0.000545      0.000000
    166 O2    c       0.000458      0.000050      0.000386      0.000000
    167 O2    c      -0.000140      0.000378      0.000375      0.000000
    168 O2    c       0.000429     -0.000317      0.001869      0.000000
    169 O2    c       0.000450      0.000481      0.000465      0.000000
    170 O3    c       0.002194      0.001832     -0.002933      0.000000
    171 O2    c      -0.000342     -0.000203      0.000507      0.000000
    172 O2    c       0.000018      0.000501      0.000062      0.000000
    173 O2    c       0.000424      0.000181     -0.000643      0.000000
    174 O2    c       0.000168     -0.000027      0.000154      0.000000
    175 O2    c       0.000252      0.000219      0.000073      0.000000
    176 O2    c       0.000004     -0.000020     -0.000378      0.000000
    177 O2    c      -0.000103     -0.000375     -0.000214      0.000000
    178 O2    c      -0.000293      0.000063      0.000281      0.000000
    179 O2    c       0.001187      0.000770      0.000100      0.000000
    180 O2    c       0.000514      0.000367      0.000330      0.000000
    181 F     c       0.000228      0.000072      0.000145      0.000000
    182 F     c       0.000007      0.000060      0.000128      0.000000
    183 F     c       0.000421     -0.000076      0.000232      0.000000
    184 F     c      -0.000328      0.000028      0.000144      0.000000
    185 F     c       0.000654     -0.000264     -0.005645      0.000000
    186 F     c       0.000391      0.000128      0.000207      0.000000
    187 O2    s       0.000418     -0.000035     -0.000691      0.000000
    188 O2    s       0.000290      0.000528      0.000345      0.000000
    189 O2    s      -0.000211     -0.000083      0.000170      0.000000
    190 O2    s       0.000232      0.000098      0.000270      0.000000
    191 O2    s       0.000027      0.000582      0.000201      0.000000
    192 O2    s       0.000163     -0.000241     -0.000046      0.000000
    193 O2    s       0.000410      0.000445      0.000750      0.000000
    194 O2    s      -0.000355     -0.000216      0.000986      0.000000
    195 O2    s       0.001665      0.000275     -0.000473      0.000000
    196 O2    s       0.000013      0.000524      0.000046      0.000000
    197 O2    s       0.000060      0.000127      0.000961      0.000000
    198 O2    s       0.000368     -0.000037     -0.000344      0.000000
    199 O3    s       0.000680      0.001266      0.000034      0.000000
    200 O2    s      -0.000347     -0.000168     -0.000324      0.000000
    201 O2    s       0.000204      0.000331     -0.000012      0.000000
    202 O2    s       0.000555      0.000223      0.000797      0.000000
    203 O2    s       0.000983     -0.000203      0.000815      0.000000
    204 O2    s       0.000047      0.000470      0.000448      0.000000
    205 O2    s       0.000587      0.000082      0.000431      0.000000
    206 O2    s       0.000382      0.000375      0.000260      0.000000
    207 O2    s      -0.000323     -0.000052      0.000093      0.000000
    208 O2    s       0.000297      0.000118     -0.000002      0.000000
    209 O2    s      -0.000042      0.000444      0.000407      0.000000
    210 O3    s       0.000296     -0.000628     -0.000258      0.000000
    211 O2    s       0.000324      0.000393      0.000134      0.000000
    212 O3    s      -0.000005      0.000709     -0.000043      0.000000
    213 O2    s      -0.000291     -0.000227      0.000090      0.000000
    214 O2    s       0.000019      0.000417      0.000253      0.000000
    215 O2    s       0.000430      0.000240     -0.000153      0.000000
    216 O2    s       0.000403      0.000173     -0.000209      0.000000
    217 O2    s       0.000531      0.000438      0.000112      0.000000
    218 O2    s       0.000012      0.000216      0.000201      0.000000
    219 O2    s      -0.000164      0.000249     -0.000502      0.000000
    220 O2    s      -0.000215      0.000271      0.000094      0.000000
    221 O2    s       0.000060      0.000058      0.000552      0.000000
    222 O2    s       0.000215      0.000286      0.000033      0.000000
    223 O3    s       0.000245      0.000888      0.001239      0.000000
    224 O2    s       0.000383      0.000503      0.000328      0.000000
    225 O2    s      -0.000246     -0.000142      0.000221      0.000000
    226 O2    s       0.000520      0.000190      0.000027      0.000000
    227 O2    s      -0.000013      0.000546     -0.000005      0.000000
    228 O2    s       0.000177     -0.000183     -0.000569      0.000000
    229 O2    s       0.000185      0.000363      0.000256      0.000000
    230 O2    s       0.000382     -0.000629      0.000420      0.000000
    231 O2    s      -0.000449     -0.000109      0.000297      0.000000
    232 O2    s      -0.000141      0.000473     -0.000034      0.000000
    233 O2    s       0.000339     -0.000086      0.000166      0.000000
    234 O2    s       0.000213      0.000371      0.001562      0.000000
    235 O2    s       0.000360      0.000126      0.000317      0.000000
    236 O2    s       0.000085      0.000130      0.000174      0.000000
    237 O2    s       0.000562      0.000282      0.000113      0.000000
    238 O2    s      -0.000171      0.000125      0.000093      0.000000
    239 O3    s       0.002498      0.001573     -0.005661      0.000000
    240 O2    s       0.000224     -0.000085      0.000152      0.000000
    241 O2    s       0.000095     -0.000043      0.000336      0.000000
    242 O2    s       0.000192      0.000304      0.000188      0.000000
    243 O2    s      -0.000297     -0.000043      0.000106      0.000000
    244 O2    s       0.000455      0.000143     -0.000056      0.000000
    245 O2    s      -0.000133      0.000341      0.000151      0.000000
    246 O3    s       0.001577     -0.001198      0.000849      0.000000
    247 O2    s       0.000425      0.000421      0.000351      0.000000
    248 O3    s       0.001670      0.000729     -0.001425      0.000000
    249 O2    s      -0.000329     -0.000224      0.000184      0.000000
    250 O2    s       0.000201      0.000292      0.000684      0.000000
    251 O2    s       0.000414      0.000125      0.000149      0.000000
    252 O2    s       0.000293      0.000081     -0.000133      0.000000
    253 O1    s       0.001025      0.002124      0.000697      0.000000
    254 O2    s       0.000311      0.000274      0.000124      0.000000
    255 O2    s      -0.000284     -0.000148      0.000274      0.000000
    256 O2    s       0.000473      0.000213     -0.000647      0.000000
    257 O2    s       0.000029      0.000541      0.000437      0.000000
    258 O2    s       0.000419     -0.000165     -0.000273      0.000000
    259 O2    s       0.000331      0.000378      0.000350      0.000000
    260 O2    s       0.000741     -0.000271      0.000439      0.000000
    261 O2    s      -0.000329     -0.000125     -0.000646      0.000000
    262 O2    s      -0.000121      0.000390      0.000468      0.000000
    263 O2    s       0.000333     -0.000103      0.000290      0.000000
    264 O2    s      -0.000954      0.000915      0.001884      0.000000
    265 O1    s      -0.001039     -0.001771      0.002353      0.000000
    266 O2    s       0.000258      0.000278      0.000143      0.000000
    267 O2    s      -0.000307     -0.000227      0.000261      0.000000
    268 O2    s       0.000429      0.000255      0.000303      0.000000
    269 O2    s       0.000139      0.000402      0.000286      0.000000
    270 O2    s       0.000438      0.000134      0.000266      0.000000
    271 O2    s       0.000416      0.000296      0.000064      0.000000
    272 O2    s       0.000759     -0.000321      0.000665      0.000000
    273 O2    s      -0.000271     -0.000008     -0.000053      0.000000
    274 O2    s      -0.000078      0.000405      0.000178      0.000000
    275 O2    s       0.000290     -0.000064      0.000869      0.000000
    276 O3    s      -0.000542      0.000138      0.002279      0.000000
    277 O2    s       0.000238      0.000203      0.000191      0.000000
    278 O2    s       0.000287      0.000076      0.000065      0.000000
    279 O2    s       0.000114      0.000129     -0.000030      0.000000
    280 O2    s      -0.000440      0.001924     -0.000017      0.000000
    281 O2    s      -0.000241      0.000151      0.000203      0.000000
    282 O1    s      -0.000129      0.000356     -0.000130      0.000000
    283 O2    s       0.000352      0.000132      0.000237      0.000000
    284 O3    s       0.000865      0.002140     -0.004952      0.000000
    285 O2    s      -0.000278      0.000102      0.000115      0.000000
    286 O2    s       0.000413     -0.000076      0.000238      0.000000
    287 O2    s      -0.000026     -0.000007      0.000130      0.000000
    288 O2    s       0.000315      0.000154      0.000086      0.000000
    289 O2    s       0.000943     -0.000590      0.000485      0.000000
    290 O2    s       0.000217      0.000405      0.000244      0.000000
    291 O2    s      -0.000354     -0.000158      0.000940      0.000000
    292 O2    s       0.000423      0.000065      0.000113      0.000000
    293 O2    s      -0.000109      0.000369      0.000108      0.000000
    294 O2    s       0.000954      0.000166      0.003991      0.000000
    295 O2    s       0.000426      0.000549      0.000095      0.000000
    296 O3    s       0.001840     -0.002040     -0.001718      0.000000
    297 O2    s      -0.000346     -0.000187     -0.000085      0.000000
    298 O2    s       0.000086      0.000473     -0.000085      0.000000
    299 O2    s       0.000416      0.000143      0.000982      0.000000
    300 O2    s       0.000185     -0.000148     -0.000019      0.000000
    301 O2    s       0.000288      0.000165      0.000036      0.000000
    302 O2    s       0.000064     -0.000008      0.000305      0.000000
    303 O2    s       0.000145      0.000072      0.000462      0.000000
    304 O2    s      -0.000206      0.000008      0.000417      0.000000
    305 O2    s       0.002620      0.000235      0.000006      0.000000
    306 O2    s       0.000567      0.000313      0.000331      0.000000
    307 F     s       0.000214      0.000055      0.000249      0.000000
    308 F     s       0.000025      0.000052      0.000127      0.000000
    309 F     s       0.000459      0.000055      0.000162      0.000000
    310 F     s      -0.000318     -0.000004      0.000202      0.000000
    311 F     s      -0.000368      0.001299      0.003730      0.000000
    312 F     s       0.000305      0.000116      0.000279      0.000000
--------------------------------------------------------------------------------
  Maximum abs         0.002620      0.002674      0.009837      0.000000
--------------------------------------------------------------------------------


  Time to end of optimisation =     318.1434 seconds


  Peak dynamic memory used =      19.13 MB 


  Timing analysis for GULP :

--------------------------------------------------------------------------------
  Task / Subroutine                                          Time (Seconds)
--------------------------------------------------------------------------------
  Calculation of reciprocal space energy and derivatives          5.7600
  Calculation of real space energy and derivatives              172.5558
  Calculation of three-body energy and derivatives               19.8179
  Global summation overhead                                       0.0002
--------------------------------------------------------------------------------
  Total CPU time                                                318.1434
--------------------------------------------------------------------------------


  Dump file written as out.res                                                 
  CIF file written as out.cif                                                 


  Job Finished at 04:52.19  6th December   2016                               

