********************************************************************************
*                       GENERAL UTILITY LATTICE PROGRAM                        *
*                                 Julian Gale                                  *
*                      Nanochemistry Research Institute                        *
*                           Department of Chemistry                            *
*                    Curtin University, Western Australia                      *
********************************************************************************
* Version = 4.2.0 * Last modified =  20th January 2014                         *
********************************************************************************
*  optimise     - perform optimisation run                                     *
*  conp         - constant pressure calculation                                *
*  qok          - running with non charge neutral cell is OK                   *
*  rfo          - optimisation step to be determined by RFO method             *
********************************************************************************

  Job Started  at 14:24.19  6th December   2016                               

  Number of CPUs =     1


  Total number of configurations input =   1

********************************************************************************
*  Input for Configuration =   1                                               *
********************************************************************************

  Formula = Ge4Si56O120F6                                               

  Number of irreducible atoms/shells =     312


  Total number atoms/shells =     312

  Dimensionality = 3               :  Bulk   


  Charge on solid   =  -6.000000 =>neutralising background added


  Cartesian lattice vectors (Angstroms) :

       11.946805    0.000000    0.000000
       -6.051785   10.371837    0.000000
       -0.133221   -0.100899   29.557898

  Cell parameters (Angstroms/Degrees):

  a =      11.9468    alpha =  90.0388
  b =      12.0083    beta  =  90.2582
  c =      29.5584    gamma = 120.2628

  Initial cell volume =        3662.528323 Angs**3

  Temperature of configuration =  0.000     K 

  Pressure of configuration =         0.000 GPa 

  Fractional coordinates of asymmetric unit :

--------------------------------------------------------------------------------
   No.  Atomic       x           y          z         Charge      Occupancy
        Label      (Frac)      (Frac)     (Frac)        (e)         (Frac)  
--------------------------------------------------------------------------------
      1 Ge    c    0.699600    0.375700    0.033890     4.00000    1.000000    
      2 Si    c    0.619733 *  0.322703 *  0.362009 *   4.00000    1.000000    
      3 Si    c    0.676296 *  0.299919 *  0.692435 *   4.00000    1.000000    
      4 Si    c    0.293778 *  0.620760 *  0.524745 *   4.00000    1.000000    
      5 Ge    c    0.372878 *  0.677096 *  0.858452 *   4.00000    1.000000    
      6 Si    c    0.315825 *  0.705028 *  0.193909 *   4.00000    1.000000    
      7 Si    c    0.370612 *  0.696273 *  0.293761 *   4.00000    1.000000    
      8 Si    c    0.308739 *  0.630633 *  0.961004 *   4.00000    1.000000    
      9 Si    c    0.296895 *  0.676422 *  0.624924 *   4.00000    1.000000    
     10 Si    c    0.619179 *  0.296896 *  0.792572 *   4.00000    1.000000    
     11 Si    c    0.673528 *  0.381008 *  0.462071 *   4.00000    1.000000    
     12 Si    c    0.681234 *  0.317945 *  0.132013 *   4.00000    1.000000    
     13 Ge    c    0.533975 *  0.423538 *  0.964129 *   4.00000    1.000000    
     14 Si    c    0.578702 *  0.107136 *  0.300078 *   4.00000    1.000000    
     15 Si    c    0.887460 *  0.471601 *  0.628052 *   4.00000    1.000000    
     16 Si    c    0.464546 *  0.582666 *  0.459359 *   4.00000    1.000000    
     17 Si    c    0.412660 *  0.887030 *  0.790282 *   4.00000    1.000000    
     18 Si    c    0.102913 *  0.537384 *  0.127011 *   4.00000    1.000000    
     19 Si    c    0.413133 *  0.526162 *  0.357919 *   4.00000    1.000000    
     20 Si    c    0.097155 *  0.589650 *  0.024534 *   4.00000    1.000000    
     21 Si    c    0.467609 *  0.889198 *  0.689232 *   4.00000    1.000000    
     22 Si    c    0.582765 *  0.469043 *  0.858578 *   4.00000    1.000000    
     23 Si    c    0.884437 *  0.418323 *  0.526756 *   4.00000    1.000000    
     24 Si    c    0.523771 *  0.110639 *  0.199397 *   4.00000    1.000000    
     25 Si    c    0.293671 *  0.394322 *  0.840514 *   4.00000    1.000000    
     26 Si    c    0.596856 *  0.905814 *  0.180903 *   4.00000    1.000000    
     27 Si    c    0.092754 *  0.698802 *  0.511162 *   4.00000    1.000000    
     28 Si    c    0.695434 *  0.598513 *  0.345194 *   4.00000    1.000000    
     29 Si    c    0.397499 *  0.099077 *  0.675992 *   4.00000    1.000000    
     30 Si    c    0.891267 *  0.298397 *  0.008886 *   4.00000    1.000000    
     31 Si    c    0.393766 *  0.303072 *  0.474889 *   4.00000    1.000000    
     32 Si    c    0.885005 *  0.604552 *  0.140247 *   4.00000    1.000000    
     33 Si    c    0.695621 *  0.094361 *  0.806383 *   4.00000    1.000000    
     34 Si    c    0.593067 *  0.707600 *  0.976652 *   4.00000    1.000000    
     35 Si    c    0.096585 *  0.398736 *  0.641186 *   4.00000    1.000000    
     36 Si    c    0.295551 *  0.896856 *  0.311234 *   4.00000    1.000000    
     37 Ge    c    0.259655 *  0.362073 *  0.940926 *   4.00000    1.000000    
     38 Si    c    0.654037 *  0.906488 *  0.281368 *   4.00000    1.000000    
     39 Si    c    0.088572 *  0.750213 *  0.611664 *   4.00000    1.000000    
     40 Si    c    0.744436 *  0.660006 *  0.445487 *   4.00000    1.000000    
     41 Si    c    0.337028 *  0.089134 *  0.775994 *   4.00000    1.000000    
     42 Si    c    0.900465 *  0.254244 *  0.112021 *   4.00000    1.000000    
     43 Si    c    0.337015 *  0.248679 *  0.374459 *   4.00000    1.000000    
     44 Si    c    0.887949 *  0.663910 *  0.037964 *   4.00000    1.000000    
     45 Si    c    0.747197 *  0.090861 *  0.705880 *   4.00000    1.000000    
     46 Si    c    0.662655 *  0.751430 *  0.874121 *   4.00000    1.000000    
     47 Si    c    0.085192 *  0.340020 *  0.540644 *   4.00000    1.000000    
     48 Si    c    0.242506 *  0.910696 *  0.211305 *   4.00000    1.000000    
     49 Si    c    0.977794 *  0.131321 *  0.959138 *   4.00000    1.000000    
     50 Si    c    0.873039 *  0.845869 *  0.294573 *   4.00000    1.000000    
     51 Si    c    0.148396 *  0.029359 *  0.625677 *   4.00000    1.000000    
     52 Si    c    0.024534 *  0.878527 *  0.460496 *   4.00000    1.000000    
     53 Si    c    0.117518 *  0.146612 *  0.790733 *   4.00000    1.000000    
     54 Si    c    0.844123 *  0.977907 *  0.128231 *   4.00000    1.000000    
     55 Si    c    0.117618 *  0.967807 *  0.359875 *   4.00000    1.000000    
     56 Si    c    0.843058 *  0.892638 *  0.025952 *   4.00000    1.000000    
     57 Si    c    0.025678 *  0.149235 *  0.690430 *   4.00000    1.000000    
     58 Si    c    0.879704 *  0.031365 *  0.858733 *   4.00000    1.000000    
     59 Si    c    0.145922 *  0.122264 *  0.525365 *   4.00000    1.000000    
     60 Si    c    0.963476 *  0.853919 *  0.192991 *   4.00000    1.000000    
     61 O2    c    0.926435 *  0.011489 *  0.993798 *   0.87073    1.000000    
     62 O2    c    0.998144 *  0.927058 *  0.325906 *   0.87073    1.000000    
     63 O2    c    0.067013 *  0.070271 *  0.657514 *   0.87073    1.000000    
     64 O2    c    0.067122 *  0.001512 *  0.492248 *   0.87073    1.000000    
     65 O2    c    0.999585 *  0.073131 *  0.825261 *   0.87073    1.000000    
     66 O2    c    0.928178 *  0.938943 *  0.160326 *   0.87073    1.000000    
     67 O2    c    0.334272 *  0.571632 *  0.325005 *   0.87073    1.000000    
     68 O2    c    0.421796 *  0.764350 *  0.656827 *   0.87073    1.000000    
     69 O2    c    0.225593 *  0.671514 *  0.994103 *   0.87073    1.000000    
     70 O2    c    0.657328 *  0.419686 *  0.825343 *   0.87073    1.000000    
     71 O2    c    0.575107 *  0.241295 *  0.170710 *   0.87073    1.000000    
     72 O2    c    0.756498 *  0.341807 *  0.495088 *   0.87073    1.000000    
     73 O1    c    0.570520 *  0.334364 *  0.998514 *   1.73396    1.000000    
     74 O2    c    0.762925 *  0.424266 *  0.660669 *   0.87073    1.000000    
     75 O2    c    0.657598 *  0.233015 *  0.332074 *   0.87073    1.000000    
     76 O2    c    0.415200 *  0.659170 *  0.491214 *   0.87073    1.000000    
     77 O2    c    0.228595 *  0.586233 *  0.159374 *   0.87073    1.000000    
     78 O3    c    0.333405 *  0.764788 *  0.821795 *   1.33043    1.000000    
     79 O3    c    0.126088 *  0.217467 *  0.963726 *   1.33043    1.000000    
     80 O2    c    0.779929 *  0.905767 *  0.301651 *   0.87073    1.000000    
     81 O2    c    0.088066 *  0.875850 *  0.631647 *   0.87073    1.000000    
     82 O2    c    0.869874 *  0.787503 *  0.465867 *   0.87073    1.000000    
     83 O2    c    0.207778 *  0.082697 *  0.796000 *   0.87073    1.000000    
     84 O2    c    0.904622 *  0.131900 *  0.133418 *   0.87073    1.000000    
     85 O2    c    0.211083 *  0.121486 *  0.354121 *   0.87073    1.000000    
     86 O2    c    0.902805 *  0.799273 *  0.021267 *   0.87073    1.000000    
     87 O2    c    0.871560 *  0.089783 *  0.684577 *   0.87073    1.000000    
     88 O2    c    0.792725 *  0.875609 *  0.855523 *   0.87073    1.000000    
     89 O2    c    0.082200 *  0.212594 *  0.520573 *   0.87073    1.000000    
     90 O2    c    0.118340 *  0.914198 *  0.190607 *   0.87073    1.000000    
     91 O2    c    0.919359 *  0.861363 *  0.243206 *   0.87073    1.000000    
     92 O2    c    0.132804 *  0.066531 *  0.575177 *   0.87073    1.000000    
     93 O2    c    0.929076 *  0.071727 *  0.909174 *   0.87073    1.000000    
     94 O2    c    0.058850 *  0.127816 *  0.740808 *   0.87073    1.000000    
     95 O2    c    0.854066 *  0.940603 *  0.077348 *   0.87073    1.000000    
     96 O2    c    0.062366 *  0.930186 *  0.409935 *   0.87073    1.000000    
     97 O2    c    0.907123 *  0.213060 *  0.970500 *   0.87073    1.000000    
     98 O2    c    0.794132 *  0.694276 *  0.306724 *   0.87073    1.000000    
     99 O2    c    0.301116 *  0.101659 *  0.637484 *   0.87073    1.000000    
    100 O2    c    0.093991 *  0.796829 *  0.472963 *   0.87073    1.000000    
    101 O2    c    0.206428 *  0.299169 *  0.799314 *   0.87073    1.000000    
    102 O2    c    0.693004 *  0.905995 *  0.142207 *   0.87073    1.000000    
    103 O2    c    0.197794 *  0.895341 *  0.349569 *   0.87073    1.000000    
    104 O2    c    0.690572 *  0.815787 *  0.012759 *   0.87073    1.000000    
    105 O2    c    0.098573 *  0.301797 *  0.679229 *   0.87073    1.000000    
    106 O2    c    0.792720 *  0.094543 *  0.844969 *   0.87073    1.000000    
    107 O2    c    0.297899 *  0.206419 *  0.513450 *   0.87073    1.000000    
    108 O2    c    0.891189 *  0.704063 *  0.178595 *   0.87073    1.000000    
    109 O2    c    0.314225 *  0.642022 *  0.243000 *   0.87073    1.000000    
    110 O2    c    0.353912 *  0.677471 *  0.574742 *   0.87073    1.000000    
    111 O3    c    0.304906 *  0.678072 *  0.910068 *   1.33043    1.000000    
    112 O2    c    0.677553 *  0.355950 *  0.742826 *   0.87073    1.000000    
    113 O3    c    0.610010 *  0.303645 *  0.085252 *   1.33043    1.000000    
    114 O2    c    0.676578 *  0.324615 *  0.412259 *   0.87073    1.000000    
    115 O1    c    0.368864 *  0.326955 *  0.963732 *   1.73396    1.000000    
    116 O2    c    0.665359 *  0.037582 *  0.301304 *   0.87073    1.000000    
    117 O2    c    0.956749 *  0.627772 *  0.630469 *   0.87073    1.000000    
    118 O2    c    0.621434 *  0.670647 *  0.462508 *   0.87073    1.000000    
    119 O2    c    0.327430 *  0.957621 *  0.793621 *   0.87073    1.000000    
    120 O2    c    0.031273 *  0.381785 *  0.129221 *   0.87073    1.000000    
    121 O2    c    0.326613 *  0.369746 *  0.355308 *   0.87073    1.000000    
    122 O2    c    0.023467 *  0.671489 *  0.023343 *   0.87073    1.000000    
    123 O2    c    0.624447 *  0.958942 *  0.687109 *   0.87073    1.000000    
    124 O2    c    0.663464 *  0.625772 *  0.854907 *   0.87073    1.000000    
    125 O2    c    0.951897 *  0.330194 *  0.522918 *   0.87073    1.000000    
    126 O2    c    0.367337 *  0.042850 *  0.194369 *   0.87073    1.000000    
    127 O3    c    0.754559 *  0.284850 *  0.001752 *   1.33043    1.000000    
    128 O2    c    0.695109 *  0.464211 *  0.338340 *   0.87073    1.000000    
    129 O2    c    0.532995 *  0.232908 *  0.669341 *   0.87073    1.000000    
    130 O2    c    0.225612 *  0.696547 *  0.503052 *   0.87073    1.000000    
    131 O3    c    0.298707 *  0.528327 *  0.831818 *   1.33043    1.000000    
    132 O2    c    0.459780 *  0.774081 *  0.171830 *   0.87073    1.000000    
    133 O2    c    0.293898 *  0.761726 *  0.316734 *   0.87073    1.000000    
    134 O2    c    0.458898 *  0.711014 *  0.978744 *   0.87073    1.000000    
    135 O2    c    0.231159 *  0.534046 *  0.647842 *   0.87073    1.000000    
    136 O2    c    0.692506 *  0.226541 *  0.814788 *   0.87073    1.000000    
    137 O2    c    0.528842 *  0.305585 *  0.483369 *   0.87073    1.000000    
    138 O2    c    0.755860 *  0.468222 *  0.149811 *   0.87073    1.000000    
    139 O3    c    0.763929 *  0.546680 *  0.016632 *   1.33043    1.000000    
    140 O2    c    0.463109 *  0.247317 *  0.355894 *   0.87073    1.000000    
    141 O2    c    0.750006 *  0.218248 *  0.687081 *   0.87073    1.000000    
    142 O2    c    0.211342 *  0.464536 *  0.520321 *   0.87073    1.000000    
    143 O3    c    0.539641 *  0.755709 *  0.855994 *   1.33043    1.000000    
    144 O2    c    0.238932 *  0.784221 *  0.190760 *   0.87073    1.000000    
    145 O2    c    0.527106 *  0.778958 *  0.299332 *   0.87073    1.000000    
    146 O3    c    0.233140 *  0.477883 *  0.967794 *   1.33043    1.000000    
    147 O2    c    0.215706 *  0.750947 *  0.630497 *   0.87073    1.000000    
    148 O2    c    0.462167 *  0.215890 *  0.796387 *   0.87073    1.000000    
    149 O2    c    0.746402 *  0.536977 *  0.466395 *   0.87073    1.000000    
    150 O2    c    0.776173 *  0.256239 *  0.131493 *   0.87073    1.000000    
    151 O3    c    0.211527 *  0.319709 *  0.884036 *   1.33043    1.000000    
    152 O2    c    0.670787 *  0.906953 *  0.227090 *   0.87073    1.000000    
    153 O2    c    0.089509 *  0.768871 *  0.557492 *   0.87073    1.000000    
    154 O2    c    0.765967 *  0.675195 *  0.391332 *   0.87073    1.000000    
    155 O2    c    0.321250 *  0.093808 *  0.721782 *   0.87073    1.000000    
    156 O2    c    0.900346 *  0.239415 *  0.058017 *   0.87073    1.000000    
    157 O2    c    0.319193 *  0.231160 *  0.428607 *   0.87073    1.000000    
    158 O2    c    0.880125 *  0.669203 *  0.093258 *   0.87073    1.000000    
    159 O2    c    0.767206 *  0.092947 *  0.760092 *   0.87073    1.000000    
    160 O2    c    0.666417 *  0.755733 *  0.928574 *   0.87073    1.000000    
    161 O2    c    0.089819 *  0.323781 *  0.594761 *   0.87073    1.000000    
    162 O2    c    0.224839 *  0.906087 *  0.265541 *   0.87073    1.000000    
    163 O3    c    0.571212 *  0.570771 *  0.989454 *   1.33043    1.000000    
    164 O2    c    0.436532 *  0.019355 *  0.322164 *   0.87073    1.000000    
    165 O2    c    0.972420 *  0.414629 *  0.650536 *   0.87073    1.000000    
    166 O2    c    0.407367 *  0.442217 *  0.482598 *   0.87073    1.000000    
    167 O2    c    0.555639 *  0.967241 *  0.813921 *   0.87073    1.000000    
    168 O2    c    0.010698 *  0.588859 *  0.145819 *   0.87073    1.000000    
    169 O2    c    0.555547 *  0.584001 *  0.335480 *   0.87073    1.000000    
    170 O2    c    0.008303 *  0.447603 *  0.003519 *   0.87073    1.000000    
    171 O2    c    0.410860 *  0.973910 *  0.666504 *   0.87073    1.000000    
    172 O2    c    0.437577 *  0.411400 *  0.838565 *   0.87073    1.000000    
    173 O2    c    0.966589 *  0.558762 *  0.503046 *   0.87073    1.000000    
    174 O2    c    0.584272 *  0.032416 *  0.174228 *   0.87073    1.000000    
    175 O2    c    0.576490 *  0.160983 *  0.250109 *   0.87073    1.000000    
    176 O2    c    0.832555 *  0.417865 *  0.577497 *   0.87073    1.000000    
    177 O3    c    0.593699 *  0.430691 *  0.909283 *   1.33043    1.000000    
    178 O2    c    0.413029 *  0.834873 *  0.739447 *   0.87073    1.000000    
    179 O2    c    0.146112 *  0.585536 *  0.075743 *   0.87073    1.000000    
    180 O2    c    0.412187 *  0.580610 *  0.408264 *   0.87073    1.000000    
    181 F     c    0.443572 *  0.900096 *  0.245545 *   0.56000    1.000000    
    182 F     c    0.095055 *  0.548331 *  0.575916 *   0.56000    1.000000    
    183 F     c    0.414215 *  0.524383 *  0.913018 *   0.56000    1.000000    
    184 F     c    0.545718 *  0.097099 *  0.741207 *   0.56000    1.000000    
    185 F     c    0.848398 *  0.440472 *  0.068782 *   0.56000    1.000000    
    186 F     c    0.545709 *  0.451523 *  0.409489 *   0.56000    1.000000    
    187 O2    s    0.922032 *  0.010189 *  0.993909 *  -2.87073    1.000000    
    188 O2    s    0.997393 *  0.922467 *  0.326174 *  -2.87073    1.000000    
    189 O2    s    0.071516 *  0.074510 *  0.657619 *  -2.87073    1.000000    
    190 O2    s    0.071161 *  0.001210 *  0.492389 *  -2.87073    1.000000    
    191 O2    s    0.999405 *  0.076673 *  0.825116 *  -2.87073    1.000000    
    192 O2    s    0.922919 *  0.933866 *  0.160419 *  -2.87073    1.000000    
    193 O2    s    0.346026 *  0.579833 *  0.325125 *  -2.87073    1.000000    
    194 O2    s    0.413606 *  0.768124 *  0.656859 *  -2.87073    1.000000    
    195 O2    s    0.220468 *  0.659161 *  0.994004 *  -2.87073    1.000000    
    196 O2    s    0.645886 *  0.412109 *  0.825342 *  -2.87073    1.000000    
    197 O2    s    0.580874 *  0.235457 *  0.169667 *  -2.87073    1.000000    
    198 O2    s    0.761079 *  0.353818 *  0.494912 *  -2.87073    1.000000    
    199 O1    s    0.577409 *  0.344859 *  0.998397 *  -3.73396    1.000000    
    200 O2    s    0.766915 *  0.416405 *  0.660567 *  -2.87073    1.000000    
    201 O2    s    0.645528 *  0.229069 *  0.331806 *  -2.87073    1.000000    
    202 O2    s    0.407868 *  0.647314 *  0.491357 *  -2.87073    1.000000    
    203 O2    s    0.224189 *  0.593105 *  0.159466 *  -2.87073    1.000000    
    204 O3    s    0.344528 *  0.770269 *  0.821497 *  -3.33043    1.000000    
    205 O3    s    0.117200 *  0.216773 *  0.961702 *  -3.33043    1.000000    
    206 O2    s    0.776694 *  0.899461 *  0.298808 *  -2.87073    1.000000    
    207 O2    s    0.094509 *  0.879091 *  0.628970 *  -2.87073    1.000000    
    208 O2    s    0.873375 *  0.783994 *  0.463203 *  -2.87073    1.000000    
    209 O2    s    0.211621 *  0.090131 *  0.793388 *  -2.87073    1.000000    
    210 O2    s    0.897851 *  0.128346 *  0.130692 *  -2.87073    1.000000    
    211 O2    s    0.214196 *  0.118325 *  0.356816 *  -2.87073    1.000000    
    212 O2    s    0.894823 *  0.795226 *  0.023487 *  -2.87073    1.000000    
    213 O2    s    0.875151 *  0.096263 *  0.687381 *  -2.87073    1.000000    
    214 O2    s    0.788062 *  0.878702 *  0.857795 *  -2.87073    1.000000    
    215 O2    s    0.089260 *  0.216124 *  0.523124 *  -2.87073    1.000000    
    216 O2    s    0.114684 *  0.907399 *  0.192990 *  -2.87073    1.000000    
    217 O2    s    0.919156 *  0.858780 *  0.243295 *  -2.87073    1.000000    
    218 O2    s    0.136050 *  0.068670 *  0.575220 *  -2.87073    1.000000    
    219 O2    s    0.928462 *  0.073310 *  0.908591 *  -2.87073    1.000000    
    220 O2    s    0.061672 *  0.132360 *  0.740690 *  -2.87073    1.000000    
    221 O2    s    0.851719 *  0.939631 *  0.077561 *  -2.87073    1.000000    
    222 O2    s    0.064384 *  0.928637 *  0.409938 *  -2.87073    1.000000    
    223 O2    s    0.912680 *  0.213917 *  0.973507 *  -2.87073    1.000000    
    224 O2    s    0.792522 *  0.700642 *  0.309318 *  -2.87073    1.000000    
    225 O2    s    0.294681 *  0.093720 *  0.640139 *  -2.87073    1.000000    
    226 O2    s    0.086494 *  0.795507 *  0.475530 *  -2.87073    1.000000    
    227 O2    s    0.205615 *  0.292291 *  0.802472 *  -2.87073    1.000000    
    228 O2    s    0.699046 *  0.913534 *  0.144714 *  -2.87073    1.000000    
    229 O2    s    0.199336 *  0.903103 *  0.346727 *  -2.87073    1.000000    
    230 O2    s    0.696517 *  0.812812 *  0.010474 *  -2.87073    1.000000    
    231 O2    s    0.090777 *  0.295701 *  0.676545 *  -2.87073    1.000000    
    232 O2    s    0.791853 *  0.087877 *  0.842426 *  -2.87073    1.000000    
    233 O2    s    0.291560 *  0.207416 *  0.510741 *  -2.87073    1.000000    
    234 O2    s    0.898289 *  0.709801 *  0.176150 *  -2.87073    1.000000    
    235 O2    s    0.320036 *  0.653856 *  0.243108 *  -2.87073    1.000000    
    236 O2    s    0.341956 *  0.671549 *  0.574732 *  -2.87073    1.000000    
    237 O3    s    0.310584 *  0.673482 *  0.910769 *  -3.33043    1.000000    
    238 O2    s    0.671486 *  0.344214 *  0.742742 *  -2.87073    1.000000    
    239 O3    s    0.623245 *  0.309807 *  0.086825 *  -3.33043    1.000000    
    240 O2    s    0.670361 *  0.330259 *  0.412168 *  -2.87073    1.000000    
    241 O1    s    0.372846 *  0.337311 *  0.961875 *  -3.73396    1.000000    
    242 O2    s    0.655223 *  0.031014 *  0.299083 *  -2.87073    1.000000    
    243 O2    s    0.963449 *  0.624525 *  0.628235 *  -2.87073    1.000000    
    244 O2    s    0.618139 *  0.660426 *  0.460377 *  -2.87073    1.000000    
    245 O2    s    0.337340 *  0.964548 *  0.791353 *  -2.87073    1.000000    
    246 O2    s    0.025169 *  0.384816 *  0.127201 *  -2.87073    1.000000    
    247 O2    s    0.336595 *  0.373193 *  0.357585 *  -2.87073    1.000000    
    248 O2    s    0.017710 *  0.662080 *  0.024935 *  -2.87073    1.000000    
    249 O2    s    0.621155 *  0.965681 *  0.689332 *  -2.87073    1.000000    
    250 O2    s    0.655261 *  0.623209 *  0.857286 *  -2.87073    1.000000    
    251 O2    s    0.958927 *  0.340317 *  0.525183 *  -2.87073    1.000000    
    252 O2    s    0.370211 *  0.035771 *  0.196698 *  -2.87073    1.000000    
    253 O3    s    0.765779 *  0.292222 *  0.004687 *  -3.33043    1.000000    
    254 O2    s    0.687441 *  0.463738 *  0.341496 *  -2.87073    1.000000    
    255 O2    s    0.533451 *  0.225699 *  0.672448 *  -2.87073    1.000000    
    256 O2    s    0.218620 *  0.688996 *  0.506165 *  -2.87073    1.000000    
    257 O3    s    0.304121 *  0.526888 *  0.834847 *  -3.33043    1.000000    
    258 O2    s    0.459158 *  0.780611 *  0.175073 *  -2.87073    1.000000    
    259 O2    s    0.301890 *  0.769177 *  0.313769 *  -2.87073    1.000000    
    260 O2    s    0.457676 *  0.702666 *  0.976734 *  -2.87073    1.000000    
    261 O2    s    0.223750 *  0.534377 *  0.644772 *  -2.87073    1.000000    
    262 O2    s    0.685347 *  0.220042 *  0.811628 *  -2.87073    1.000000    
    263 O2    s    0.529485 *  0.313136 *  0.480227 *  -2.87073    1.000000    
    264 O2    s    0.762474 *  0.468281 *  0.147023 *  -2.87073    1.000000    
    265 O3    s    0.773545 *  0.549834 *  0.019716 *  -3.33043    1.000000    
    266 O2    s    0.465750 *  0.255365 *  0.358493 *  -2.87073    1.000000    
    267 O2    s    0.741886 *  0.212912 *  0.689654 *  -2.87073    1.000000    
    268 O2    s    0.206202 *  0.467348 *  0.522946 *  -2.87073    1.000000    
    269 O3    s    0.538734 *  0.748694 *  0.858099 *  -3.33043    1.000000    
    270 O2    s    0.247377 *  0.789565 *  0.193274 *  -2.87073    1.000000    
    271 O2    s    0.524529 *  0.784284 *  0.296814 *  -2.87073    1.000000    
    272 O3    s    0.242819 *  0.484692 *  0.965141 *  -3.33043    1.000000    
    273 O2    s    0.210182 *  0.743047 *  0.627901 *  -2.87073    1.000000    
    274 O2    s    0.465091 *  0.210657 *  0.793833 *  -2.87073    1.000000    
    275 O2    s    0.738454 *  0.533989 *  0.463702 *  -2.87073    1.000000    
    276 O2    s    0.780451 *  0.262272 *  0.129394 *  -2.87073    1.000000    
    277 O3    s    0.223217 *  0.330346 *  0.883814 *  -3.33043    1.000000    
    278 O2    s    0.661248 *  0.906775 *  0.227971 *  -2.87073    1.000000    
    279 O2    s    0.089744 *  0.759523 *  0.558342 *  -2.87073    1.000000    
    280 O2    s    0.756319 *  0.665569 *  0.392199 *  -2.87073    1.000000    
    281 O2    s    0.330908 *  0.093879 *  0.722694 *  -2.87073    1.000000    
    282 O2    s    0.899486 *  0.246725 *  0.059141 *  -2.87073    1.000000    
    283 O2    s    0.328869 *  0.240538 *  0.427707 *  -2.87073    1.000000    
    284 O2    s    0.881334 *  0.661571 *  0.092964 *  -2.87073    1.000000    
    285 O2    s    0.757656 *  0.092894 *  0.759185 *  -2.87073    1.000000    
    286 O2    s    0.658416 *  0.750243 *  0.927725 *  -2.87073    1.000000    
    287 O2    s    0.090036 *  0.333333 *  0.593879 *  -2.87073    1.000000    
    288 O2    s    0.234011 *  0.905627 *  0.264503 *  -2.87073    1.000000    
    289 O3    s    0.570568 *  0.574477 *  0.986190 *  -3.33043    1.000000    
    290 O2    s    0.436294 *  0.015214 *  0.318674 *  -2.87073    1.000000    
    291 O2    s    0.977099 *  0.419042 *  0.647182 *  -2.87073    1.000000    
    292 O2    s    0.412054 *  0.441890 *  0.479316 *  -2.87073    1.000000    
    293 O2    s    0.556131 *  0.972811 *  0.810730 *  -2.87073    1.000000    
    294 O2    s    0.007075 *  0.584915 *  0.143198 *  -2.87073    1.000000    
    295 O2    s    0.555681 *  0.579353 *  0.338860 *  -2.87073    1.000000    
    296 O2    s    0.005973 *  0.448036 *  0.006352 *  -2.87073    1.000000    
    297 O2    s    0.415501 *  0.978706 *  0.669887 *  -2.87073    1.000000    
    298 O2    s    0.438085 *  0.415837 *  0.840922 *  -2.87073    1.000000    
    299 O2    s    0.971836 *  0.559289 *  0.506383 *  -2.87073    1.000000    
    300 O2    s    0.579238 *  0.026727 *  0.177530 *  -2.87073    1.000000    
    301 O2    s    0.571051 *  0.149815 *  0.250023 *  -2.87073    1.000000    
    302 O2    s    0.843682 *  0.423497 *  0.577458 *  -2.87073    1.000000    
    303 O3    s    0.588209 *  0.434115 *  0.908194 *  -3.33043    1.000000    
    304 O2    s    0.418697 *  0.845900 *  0.739425 *  -2.87073    1.000000    
    305 O2    s    0.136564 *  0.580821 *  0.076034 *  -2.87073    1.000000    
    306 O2    s    0.417680 *  0.575199 *  0.408340 *  -2.87073    1.000000    
    307 F     s    0.443178 *  0.899602 *  0.245448 *  -1.56000    1.000000    
    308 F     s    0.095557 *  0.548530 *  0.575894 *  -1.56000    1.000000    
    309 F     s    0.408043 *  0.518932 *  0.913859 *  -1.56000    1.000000    
    310 F     s    0.545882 *  0.097532 *  0.741197 *  -1.56000    1.000000    
    311 F     s    0.837000 *  0.435727 *  0.066317 *  -1.56000    1.000000    
    312 F     s    0.546035 *  0.451325 *  0.409417 *  -1.56000    1.000000    
--------------------------------------------------------------------------------



********************************************************************************
*  General input information                                                   *
********************************************************************************

  Species output for all configurations : 

--------------------------------------------------------------------------------
  Species    Type    Atomic    Atomic    Charge       Radii (Angs)     Library
                     Number     Mass       (e)     Cova   Ionic  VDW   Symbol
--------------------------------------------------------------------------------
    Si       Core       14      28.09   4.000000   1.200  0.000  2.100          
    O1       Core        8      16.00   1.733957   0.730  0.000  1.360          
    O1       Shell       8       0.00  -3.733957   0.730  0.000  1.360          
    O2       Core        8      16.00   0.870733   0.730  0.000  1.360          
    O2       Shell       8       0.00  -2.870733   0.730  0.000  1.360          
    O3       Core        8      16.00   1.330431   0.730  0.000  1.360          
    O3       Shell       8       0.00  -3.330431   0.730  0.000  1.360          
    F        Core        9      19.00   0.560000   0.710  0.000  1.300          
    F        Shell       9       0.00  -1.560000   0.710  0.000  1.300          
    Ge       Core       32      72.61   4.000000   1.170  0.000  1.750          
--------------------------------------------------------------------------------


  Lattice summation method               =    Ewald          (3-D)
                                         =    Parry          (2-D)
                                         =    Saunders et al (1-D)
  Accuracy factor for lattice sums       =   12.000


  Time limit = Infinity

  Maximum range for interatomic potentials =        16.000000 Angstroms

  Taper potentials to zero over   1.0000 Angstroms using polynomial

  General interatomic potentials :

--------------------------------------------------------------------------------
Atom  Types   Potential         A         B         C         D     Cutoffs(Ang)
  1     2                                                            Min    Max 
--------------------------------------------------------------------------------
Si   c O1   s Buckingham    0.132E+04 0.318      10.1      0.00     0.000 16.000
Si   c O2   s Buckingham    0.132E+04 0.318      10.1      0.00     0.000 16.000
Si   c O3   s Buckingham    0.132E+04 0.318      10.1      0.00     0.000 16.000
Ge   c O1   s Buckingham    0.150E+04 0.326      16.8      0.00     0.000 16.000
Ge   c O2   s Buckingham    0.150E+04 0.326      16.8      0.00     0.000 16.000
Ge   c O3   s Buckingham    0.150E+04 0.326      16.8      0.00     0.000 16.000
O1   s O1   s Buckingham    0.228E+05 0.149      10.9      0.00     0.000 16.000
O1   s O2   s Buckingham    0.228E+05 0.149      10.9      0.00     0.000 16.000
O1   s O3   s Buckingham    0.228E+05 0.149      10.9      0.00     0.000 16.000
O2   s O2   s Buckingham    0.228E+05 0.149      10.9      0.00     0.000 16.000
O2   s O3   s Buckingham    0.228E+05 0.149      10.9      0.00     0.000 16.000
O3   s O3   s Buckingham    0.228E+05 0.149      10.9      0.00     0.000 16.000
Si   c F    s Buckingham     977.     0.282      0.00      0.00     0.000 16.000
Ge   c F    s Buckingham     681.     0.320      0.00      0.00     0.000 16.000
F    s F    s Buckingham     540.     0.262      0.00      0.00     0.000 16.000
O1   s F    s Buckingham    0.168E+04 0.268      0.00      0.00     0.000 16.000
O2   s F    s Buckingham    0.168E+04 0.268      0.00      0.00     0.000 16.000
O3   s F    s Buckingham    0.168E+04 0.268      0.00      0.00     0.000 16.000
O2   c O2   s Spring (c-s)   76.0      0.00      0.00      0.00     0.000  0.800
O3   c O3   s Spring (c-s)   128.      0.00      0.00      0.00     0.000  0.800
O1   c O1   s Spring (c-s)   180.      0.00      0.00      0.00     0.000  0.800
F    c F    s Spring (c-s)   33.5      0.00      0.00      0.00     0.000  0.800
--------------------------------------------------------------------------------

  General Three-body potentials :

  Harmonic form:

--------------------------------------------------------------------------------
Atom    Atom    Atom           Force Constants            Theta     Cutoffs  
  1       2       3     (eVrad**-2/eVrad**-3/eVrad**-4)   (deg)  1-2  1-3  2-3
--------------------------------------------------------------------------------
Si    c O1    s O1    s  1.261        0.0000    0.0000   109.470 0.00 0.00 0.00
                                                                 1.90 1.90 3.50
Si    c O1    s O2    s  1.261        0.0000    0.0000   109.470 0.00 0.00 0.00
                                                                 1.90 1.90 3.50
Si    c O2    s O2    s  1.261        0.0000    0.0000   109.470 0.00 0.00 0.00
                                                                 1.90 1.90 3.50
--------------------------------------------------------------------------------

********************************************************************************
*  Output for configuration   1                                                *
********************************************************************************


  Components of energy : 

--------------------------------------------------------------------------------
  Interatomic potentials     =        2061.74713655 eV
  Three-body potentials      =           0.43668122 eV
  Monopole - monopole (real) =       -6581.78476647 eV
  Monopole - monopole (recip)=       -3193.66446540 eV
  Monopole - monopole (total)=       -9775.44923188 eV
  Neutralising energy        =          -6.45666540 eV
--------------------------------------------------------------------------------
  Total lattice energy       =       -7719.72207950 eV
--------------------------------------------------------------------------------
  Total lattice energy       =         -744835.1739 kJ/(mole unit cells)
--------------------------------------------------------------------------------


  Number of variables =      939

  Maximum number of calculations  =          1000
  Maximum Hessian update interval =            10
  Maximum step size               =   0.010000000
  Maximum parameter tolerance     =   0.000010000
  Maximum function  tolerance     =   0.000010000
  Maximum gradient  tolerance     =   0.001000000
  Maximum gradient  component     =   0.010000000

  Symmetry not applied to optimisation

  Cell parameters to be optimised using strains

  RFO method to be used

  DFP hessian update to be used

  Dumpfile to be written after every cycle

  Start of bulk optimisation :

  Cycle:      0 Energy:     -7719.722080  Gnorm:      0.000956  CPU:    1.052
  ** Hessian has required structure
  Cycle:      1 Energy:     -7719.723997  Gnorm:      0.000945  CPU:    4.103
  ** Hessian has required structure
  Cycle:      2 Energy:     -7719.727210  Gnorm:      0.000928  CPU:    7.482
  ** Hessian has required structure
  Cycle:      3 Energy:     -7719.732101  Gnorm:      0.000901  CPU:   10.860
  ** Hessian has required structure
  Cycle:      4 Energy:     -7719.738078  Gnorm:      0.000868  CPU:   13.909
  ** Hessian has required structure
  Cycle:      5 Energy:     -7719.745065  Gnorm:      0.000831  CPU:   16.959
  ** Hessian has required structure
  Cycle:      6 Energy:     -7719.751530  Gnorm:      0.000796  CPU:   20.009
  ** Hessian has required structure
  Cycle:      7 Energy:     -7719.757503  Gnorm:      0.000765  CPU:   23.058
  ** Hessian has required structure
  Cycle:      8 Energy:     -7719.763014  Gnorm:      0.000735  CPU:   26.106
  ** Hessian has required structure
  Cycle:      9 Energy:     -7719.768095  Gnorm:      0.000707  CPU:   29.154
  ** Hessian has required structure
  Cycle:     10 Energy:     -7719.772773  Gnorm:      0.000681  CPU:   32.202
  ** Hessian has required structure
  Cycle:     11 Energy:     -7719.777071  Gnorm:      0.000652  CPU:   35.909
  ** Hessian has required structure
  Cycle:     12 Energy:     -7719.781023  Gnorm:      0.000629  CPU:   38.960
  ** Hessian has required structure
  Cycle:     13 Energy:     -7719.784650  Gnorm:      0.000608  CPU:   42.079
  ** Hessian has required structure
  Cycle:     14 Energy:     -7719.787973  Gnorm:      0.000587  CPU:   45.136
  ** Hessian has required structure
  Cycle:     15 Energy:     -7719.791017  Gnorm:      0.000567  CPU:   48.186
  ** Hessian has required structure
  Cycle:     16 Energy:     -7719.793800  Gnorm:      0.000548  CPU:   51.235
  ** Hessian has required structure
  Cycle:     17 Energy:     -7719.796344  Gnorm:      0.000529  CPU:   54.285
  ** Hessian has required structure
  Cycle:     18 Energy:     -7719.798666  Gnorm:      0.000511  CPU:   57.334
  ** Hessian has required structure
  Cycle:     19 Energy:     -7719.800784  Gnorm:      0.000493  CPU:   60.386
  ** Hessian has required structure
  Cycle:     20 Energy:     -7719.802715  Gnorm:      0.000476  CPU:   63.435
  ** Hessian has required structure
  Cycle:     21 Energy:     -7719.804472  Gnorm:      0.000456  CPU:   67.204
  ** Hessian has required structure
  Cycle:     22 Energy:     -7719.806071  Gnorm:      0.000440  CPU:   70.253
  ** Hessian has required structure
  Cycle:     23 Energy:     -7719.807526  Gnorm:      0.000424  CPU:   73.303
  ** Hessian has required structure
  Cycle:     24 Energy:     -7719.808848  Gnorm:      0.000409  CPU:   76.356
  ** Hessian has required structure
  Cycle:     25 Energy:     -7719.810048  Gnorm:      0.000394  CPU:   79.406
  ** Hessian has required structure
  Cycle:     26 Energy:     -7719.811138  Gnorm:      0.000379  CPU:   82.454
  ** Hessian has required structure
  Cycle:     27 Energy:     -7719.812127  Gnorm:      0.000365  CPU:   85.502
  ** Hessian has required structure
  Cycle:     28 Energy:     -7719.813023  Gnorm:      0.000351  CPU:   88.550
  ** Hessian has required structure
  Cycle:     29 Energy:     -7719.813836  Gnorm:      0.000337  CPU:   91.600
  ** Hessian has required structure
  Cycle:     30 Energy:     -7719.814572  Gnorm:      0.000324  CPU:   94.650
  ** Hessian has required structure
  Cycle:     31 Energy:     -7719.815239  Gnorm:      0.000310  CPU:   98.420
  ** Hessian has required structure
  Cycle:     32 Energy:     -7719.815842  Gnorm:      0.000297  CPU:  101.469
  ** Hessian has required structure
  Cycle:     33 Energy:     -7719.816389  Gnorm:      0.000285  CPU:  104.519
  ** Hessian has required structure
  Cycle:     34 Energy:     -7719.816883  Gnorm:      0.000273  CPU:  107.568
  ** Hessian has required structure
  Cycle:     35 Energy:     -7719.817331  Gnorm:      0.000262  CPU:  110.617
  ** Hessian has required structure
  Cycle:     36 Energy:     -7719.817735  Gnorm:      0.000251  CPU:  113.665
  ** Hessian has required structure
  Cycle:     37 Energy:     -7719.818101  Gnorm:      0.000241  CPU:  116.715
  ** Hessian has required structure
  Cycle:     38 Energy:     -7719.818432  Gnorm:      0.000230  CPU:  119.764
  ** Hessian has required structure
  Cycle:     39 Energy:     -7719.818731  Gnorm:      0.000220  CPU:  122.813
  ** Hessian has required structure
  Cycle:     40 Energy:     -7719.819001  Gnorm:      0.000211  CPU:  125.862
  ** Hessian has required structure
  Cycle:     41 Energy:     -7719.819245  Gnorm:      0.000201  CPU:  129.569
  ** Hessian has required structure
  Cycle:     42 Energy:     -7719.819465  Gnorm:      0.000192  CPU:  132.616
  ** Hessian has required structure
  Cycle:     43 Energy:     -7719.819665  Gnorm:      0.000184  CPU:  135.664
  ** Hessian has required structure
  Cycle:     44 Energy:     -7719.819845  Gnorm:      0.000175  CPU:  138.714
  ** Hessian has required structure
  Cycle:     45 Energy:     -7719.820007  Gnorm:      0.000168  CPU:  141.762
  ** Hessian has required structure
  Cycle:     46 Energy:     -7719.820154  Gnorm:      0.000160  CPU:  144.810
  ** Hessian has required structure
  Cycle:     47 Energy:     -7719.820287  Gnorm:      0.000153  CPU:  147.859
  ** Hessian has required structure
  Cycle:     48 Energy:     -7719.820406  Gnorm:      0.000146  CPU:  150.906
  ** Hessian has required structure
  Cycle:     49 Energy:     -7719.820514  Gnorm:      0.000139  CPU:  153.957
  ** Hessian has required structure
  Cycle:     50 Energy:     -7719.820612  Gnorm:      0.000133  CPU:  157.005
  ** Hessian has required structure
  Cycle:     51 Energy:     -7719.820700  Gnorm:      0.000126  CPU:  160.711
  ** Hessian has required structure
  Cycle:     52 Energy:     -7719.820780  Gnorm:      0.000120  CPU:  163.760
  ** Hessian has required structure
  Cycle:     53 Energy:     -7719.820851  Gnorm:      0.000115  CPU:  166.809
  ** Hessian has required structure
  Cycle:     54 Energy:     -7719.820916  Gnorm:      0.000109  CPU:  169.858
  ** Hessian has required structure
  Cycle:     55 Energy:     -7719.820975  Gnorm:      0.000104  CPU:  172.907
  ** Hessian has required structure
  Cycle:     56 Energy:     -7719.821028  Gnorm:      0.000099  CPU:  175.955
  ** Hessian has required structure
  Cycle:     57 Energy:     -7719.821057  Gnorm:      0.000097  CPU:  178.342
  ** Hessian has required structure
  Cycle:     58 Energy:     -7719.821080  Gnorm:      0.000094  CPU:  180.729
  ** Hessian has required structure
  Cycle:     59 Energy:     -7719.821100  Gnorm:      0.000092  CPU:  183.116
  ** Hessian has required structure
  Cycle:     60 Energy:     -7719.821118  Gnorm:      0.000090  CPU:  185.505
  ** Hessian has required structure
  Cycle:     61 Energy:     -7719.821141  Gnorm:      0.000087  CPU:  188.615
  ** Hessian has required structure
  Cycle:     62 Energy:     -7719.821160  Gnorm:      0.000085  CPU:  191.004
  ** Hessian has required structure
  Cycle:     63 Energy:     -7719.821176  Gnorm:      0.000083  CPU:  193.392
  ** Hessian has required structure
  Cycle:     64 Energy:     -7719.821191  Gnorm:      0.000082  CPU:  195.781
  ** Hessian has required structure
  Cycle:     65 Energy:     -7719.821205  Gnorm:      0.000080  CPU:  198.169
  ** Hessian has required structure
  Cycle:     66 Energy:     -7719.821218  Gnorm:      0.000078  CPU:  200.558
  ** Hessian has required structure
  Cycle:     67 Energy:     -7719.821230  Gnorm:      0.000077  CPU:  202.946
  ** Hessian has required structure
  Cycle:     68 Energy:     -7719.821241  Gnorm:      0.000075  CPU:  205.334
  ** Hessian has required structure
  Cycle:     69 Energy:     -7719.821253  Gnorm:      0.000074  CPU:  207.723
  ** Hessian has required structure
  Cycle:     70 Energy:     -7719.821263  Gnorm:      0.000072  CPU:  210.111
  ** Hessian has required structure
  Cycle:     71 Energy:     -7719.821278  Gnorm:      0.000070  CPU:  213.200
  ** Hessian has required structure
  Cycle:     72 Energy:     -7719.821290  Gnorm:      0.000068  CPU:  215.588
  ** Hessian has required structure
  Cycle:     73 Energy:     -7719.821301  Gnorm:      0.000067  CPU:  217.978
  ** Hessian has required structure
  Cycle:     74 Energy:     -7719.821310  Gnorm:      0.000065  CPU:  220.367
  ** Hessian has required structure
  Cycle:     75 Energy:     -7719.821319  Gnorm:      0.000064  CPU:  222.756
  ** Hessian has required structure
  Cycle:     76 Energy:     -7719.821327  Gnorm:      0.000063  CPU:  225.146
  ** Hessian has required structure
  Cycle:     77 Energy:     -7719.821335  Gnorm:      0.000061  CPU:  227.534
  ** Hessian has required structure
  Cycle:     78 Energy:     -7719.821342  Gnorm:      0.000060  CPU:  229.990
  ** Hessian has required structure
  Cycle:     79 Energy:     -7719.821349  Gnorm:      0.000059  CPU:  232.380
  ** Hessian has required structure
  Cycle:     80 Energy:     -7719.821356  Gnorm:      0.000058  CPU:  234.769
  ** Hessian has required structure
  Cycle:     81 Energy:     -7719.821365  Gnorm:      0.000056  CPU:  237.815
  ** Hessian has required structure
  Cycle:     82 Energy:     -7719.821373  Gnorm:      0.000055  CPU:  240.204
  ** Hessian has required structure
  Cycle:     83 Energy:     -7719.821380  Gnorm:      0.000053  CPU:  242.591
  ** Hessian has required structure
  Cycle:     84 Energy:     -7719.821386  Gnorm:      0.000052  CPU:  244.979
  ** Hessian has required structure
  Cycle:     85 Energy:     -7719.821391  Gnorm:      0.000051  CPU:  247.368
  ** Hessian has required structure
  Cycle:     86 Energy:     -7719.821396  Gnorm:      0.000050  CPU:  249.757
  ** Hessian has required structure
  Cycle:     87 Energy:     -7719.821401  Gnorm:      0.000049  CPU:  252.145
  ** Hessian has required structure
  Cycle:     88 Energy:     -7719.821406  Gnorm:      0.000048  CPU:  254.533
  ** Hessian has required structure
  Cycle:     89 Energy:     -7719.821410  Gnorm:      0.000047  CPU:  256.921
  ** Hessian has required structure
  Cycle:     90 Energy:     -7719.821415  Gnorm:      0.000046  CPU:  259.309
  ** Hessian has required structure
  Cycle:     91 Energy:     -7719.821421  Gnorm:      0.000045  CPU:  262.357
  ** Hessian has required structure
  Cycle:     92 Energy:     -7719.821426  Gnorm:      0.000044  CPU:  264.746
  ** Hessian has required structure
  Cycle:     93 Energy:     -7719.821430  Gnorm:      0.000043  CPU:  267.138
  ** Hessian has required structure
  Cycle:     94 Energy:     -7719.821434  Gnorm:      0.000042  CPU:  269.527
  ** Hessian has required structure
  Cycle:     95 Energy:     -7719.821437  Gnorm:      0.000041  CPU:  271.969
  ** Hessian has required structure
  Cycle:     96 Energy:     -7719.821440  Gnorm:      0.000040  CPU:  274.358
  ** Hessian has required structure
  Cycle:     97 Energy:     -7719.821444  Gnorm:      0.000039  CPU:  276.748
  ** Hessian has required structure
  Cycle:     98 Energy:     -7719.821447  Gnorm:      0.000038  CPU:  279.137
  ** Hessian has required structure
  Cycle:     99 Energy:     -7719.821449  Gnorm:      0.000038  CPU:  281.526
  ** Hessian has required structure
  Cycle:    100 Energy:     -7719.821452  Gnorm:      0.000037  CPU:  283.915
  ** Hessian has required structure
  Cycle:    101 Energy:     -7719.821456  Gnorm:      0.000036  CPU:  287.084
  ** Hessian has required structure
  Cycle:    102 Energy:     -7719.821459  Gnorm:      0.000035  CPU:  289.472
  ** Hessian has required structure
  Cycle:    103 Energy:     -7719.821462  Gnorm:      0.000034  CPU:  292.073
  ** Hessian has required structure
  Cycle:    104 Energy:     -7719.821464  Gnorm:      0.000033  CPU:  294.516
  ** Hessian has required structure
  Cycle:    105 Energy:     -7719.821466  Gnorm:      0.000033  CPU:  297.115
  ** Hessian has required structure
  Cycle:    106 Energy:     -7719.821468  Gnorm:      0.000032  CPU:  299.514
  ** Hessian has required structure
  Cycle:    107 Energy:     -7719.821470  Gnorm:      0.000031  CPU:  301.904
  ** Hessian has required structure
  Cycle:    108 Energy:     -7719.821472  Gnorm:      0.000031  CPU:  304.293
  ** Hessian has required structure
  Cycle:    109 Energy:     -7719.821474  Gnorm:      0.000030  CPU:  306.683
  ** Hessian has required structure
  Cycle:    110 Energy:     -7719.821476  Gnorm:      0.000029  CPU:  309.106
  ** Hessian has required structure


  **** Optimisation achieved ****


  Final energy =   -7719.82147828 eV
  Final Gnorm  =       0.00002847

  Components of energy : 

--------------------------------------------------------------------------------
  Interatomic potentials     =        2061.89191056 eV
  Three-body potentials      =           0.42976973 eV
  Monopole - monopole (real) =       -6584.13714340 eV
  Monopole - monopole (recip)=       -3191.55361886 eV
  Monopole - monopole (total)=       -9775.69076225 eV
  Neutralising energy        =          -6.45239632 eV
--------------------------------------------------------------------------------
  Total lattice energy       =       -7719.82147828 eV
--------------------------------------------------------------------------------
  Total lattice energy       =         -744844.7644 kJ/(mole unit cells)
--------------------------------------------------------------------------------

  Final fractional coordinates of atoms :

--------------------------------------------------------------------------------
   No.  Atomic        x           y          z          Radius
        Label       (Frac)      (Frac)     (Frac)       (Angs) 
--------------------------------------------------------------------------------
     1  Ge    c     0.699600    0.375700    0.033890    0.000000
     2  Si    c     0.589380    0.307990    0.362262    0.000000
     3  Si    c     0.647169    0.281486    0.692222    0.000000
     4  Si    c     0.262657    0.604439    0.525111    0.000000
     5  Ge    c     0.351035    0.662173    0.859164    0.000000
     6  Si    c     0.294575    0.695413    0.195195    0.000000
     7  Si    c     0.345176    0.684907    0.295103    0.000000
     8  Si    c     0.292855    0.614951    0.962546    0.000000
     9  Si    c     0.267011    0.660404    0.625312    0.000000
    10  Si    c     0.591998    0.279138    0.792510    0.000000
    11  Si    c     0.642484    0.364839    0.462393    0.000000
    12  Si    c     0.664184    0.307744    0.131580    0.000000
    13  Ge    c     0.519221    0.407749    0.964563    0.000000
    14  Si    c     0.552077    0.095013    0.299977    0.000000
    15  Si    c     0.857749    0.455009    0.628007    0.000000
    16  Si    c     0.433853    0.566332    0.460105    0.000000
    17  Si    c     0.385808    0.870345    0.790774    0.000000
    18  Si    c     0.084938    0.526120    0.128851    0.000000
    19  Si    c     0.383450    0.511200    0.358772    0.000000
    20  Si    c     0.086740    0.583689    0.026566    0.000000
    21  Si    c     0.439063    0.871903    0.689683    0.000000
    22  Si    c     0.560546    0.453964    0.858244    0.000000
    23  Si    c     0.853711    0.401864    0.526798    0.000000
    24  Si    c     0.500930    0.100024    0.198974    0.000000
    25  Si    c     0.271571    0.378847    0.840835    0.000000
    26  Si    c     0.574712    0.895335    0.181488    0.000000
    27  Si    c     0.061966    0.682336    0.511475    0.000000
    28  Si    c     0.665251    0.584131    0.345513    0.000000
    29  Si    c     0.368457    0.081234    0.676098    0.000000
    30  Si    c     0.884779    0.292674    0.009299    0.000000
    31  Si    c     0.362985    0.286697    0.475282    0.000000
    32  Si    c     0.868028    0.593762    0.141676    0.000000
    33  Si    c     0.668506    0.076633    0.806821    0.000000
    34  Si    c     0.577393    0.691502    0.977058    0.000000
    35  Si    c     0.066460    0.382340    0.641292    0.000000
    36  Si    c     0.269300    0.885065    0.311753    0.000000
    37  Ge    c     0.246488    0.348574    0.941466    0.000000
    38  Si    c     0.628200    0.894855    0.282197    0.000000
    39  Si    c     0.058448    0.733637    0.611910    0.000000
    40  Si    c     0.713587    0.644202    0.445890    0.000000
    41  Si    c     0.309912    0.071950    0.776310    0.000000
    42  Si    c     0.884050    0.243954    0.112623    0.000000
    43  Si    c     0.306971    0.233776    0.374889    0.000000
    44  Si    c     0.881092    0.661842    0.039638    0.000000
    45  Si    c     0.718478    0.072854    0.706129    0.000000
    46  Si    c     0.641367    0.735916    0.874187    0.000000
    47  Si    c     0.054264    0.323448    0.540809    0.000000
    48  Si    c     0.219862    0.900023    0.211521    0.000000
    49  Si    c     0.963150    0.120420    0.958619    0.000000
    50  Si    c     0.845181    0.831784    0.294985    0.000000
    51  Si    c     0.119294    0.012798    0.626113    0.000000
    52  Si    c     0.993715    0.862446    0.460944    0.000000
    53  Si    c     0.092901    0.132655    0.790990    0.000000
    54  Si    c     0.822057    0.965997    0.128805    0.000000
    55  Si    c     0.088991    0.953090    0.360408    0.000000
    56  Si    c     0.826041    0.882942    0.026593    0.000000
    57  Si    c     0.997637    0.133325    0.690939    0.000000
    58  Si    c     0.855423    0.017240    0.859247    0.000000
    59  Si    c     0.114885    0.105543    0.525766    0.000000
    60  Si    c     0.940240    0.841007    0.193906    0.000000
    61  O2    c     0.906240    0.002311    0.994323    0.000000
    62  O2    c     0.969658    0.910812    0.326491    0.000000
    63  O2    c     0.039475    0.054484    0.658306    0.000000
    64  O2    c     0.035523    0.984670    0.492892    0.000000
    65  O2    c     0.975296    0.061088    0.825715    0.000000
    66  O2    c     0.903914    0.924003    0.160614    0.000000
    67  O2    c     0.306317    0.559182    0.326142    0.000000
    68  O2    c     0.391821    0.747261    0.657190    0.000000
    69  O2    c     0.215705    0.661662    0.996134    0.000000
    70  O2    c     0.632756    0.403094    0.824610    0.000000
    71  O2    c     0.554595    0.229857    0.169361    0.000000
    72  O2    c     0.725784    0.325717    0.495282    0.000000
    73  O1    c     0.568717    0.328450    0.997760    0.000000
    74  O2    c     0.732959    0.406411    0.660533    0.000000
    75  O2    c     0.628981    0.220344    0.332108    0.000000
    76  O2    c     0.384448    0.642789    0.491790    0.000000
    77  O2    c     0.209270    0.574761    0.161471    0.000000
    78  O3    c     0.308670    0.748384    0.822870    0.000000
    79  O3    c     0.111706    0.199624    0.962272    0.000000
    80  O2    c     0.753827    0.893455    0.302259    0.000000
    81  O2    c     0.058172    0.859134    0.631962    0.000000
    82  O2    c     0.839069    0.771483    0.466064    0.000000
    83  O2    c     0.181025    0.066433    0.796156    0.000000
    84  O2    c     0.885188    0.120135    0.134185    0.000000
    85  O2    c     0.181178    0.106897    0.354594    0.000000
    86  O2    c     0.894198    0.796621    0.023368    0.000000
    87  O2    c     0.843436    0.072294    0.685222    0.000000
    88  O2    c     0.770646    0.861519    0.855773    0.000000
    89  O2    c     0.051365    0.196038    0.520949    0.000000
    90  O2    c     0.095223    0.903369    0.191342    0.000000
    91  O2    c     0.893368    0.847871    0.243768    0.000000
    92  O2    c     0.102774    0.050444    0.575729    0.000000
    93  O2    c     0.905065    0.058518    0.909617    0.000000
    94  O2    c     0.033149    0.114515    0.741311    0.000000
    95  O2    c     0.830758    0.929694    0.077737    0.000000
    96  O2    c     0.033116    0.914803    0.410436    0.000000
    97  O2    c     0.902727    0.211127    0.970364    0.000000
    98  O2    c     0.763980    0.680025    0.306969    0.000000
    99  O2    c     0.271895    0.083800    0.637702    0.000000
   100  O2    c     0.062855    0.780560    0.473346    0.000000
   101  O2    c     0.183641    0.284858    0.799612    0.000000
   102  O2    c     0.671299    0.895856    0.142971    0.000000
   103  O2    c     0.170817    0.882583    0.349957    0.000000
   104  O2    c     0.674949    0.800063    0.012770    0.000000
   105  O2    c     0.068991    0.285548    0.679336    0.000000
   106  O2    c     0.765922    0.077577    0.845397    0.000000
   107  O2    c     0.266596    0.189244    0.513677    0.000000
   108  O2    c     0.870868    0.690981    0.180169    0.000000
   109  O2    c     0.290944    0.631755    0.244309    0.000000
   110  O2    c     0.322949    0.661292    0.574976    0.000000
   111  O3    c     0.285752    0.660729    0.911497    0.000000
   112  O2    c     0.649009    0.337113    0.742538    0.000000
   113  O3    c     0.601445    0.300346    0.083959    0.000000
   114  O2    c     0.645354    0.308974    0.412560    0.000000
   115  O1    c     0.354073    0.311509    0.965135    0.000000
   116  O2    c     0.639166    0.026025    0.301702    0.000000
   117  O2    c     0.926559    0.611037    0.630661    0.000000
   118  O2    c     0.590586    0.654229    0.463155    0.000000
   119  O2    c     0.300040    0.940262    0.794223    0.000000
   120  O2    c     0.013240    0.370560    0.130997    0.000000
   121  O2    c     0.296384    0.354945    0.355799    0.000000
   122  O2    c     0.016829    0.669286    0.025473    0.000000
   123  O2    c     0.595785    0.941046    0.687412    0.000000
   124  O2    c     0.641310    0.610807    0.854118    0.000000
   125  O2    c     0.921253    0.313861    0.523028    0.000000
   126  O2    c     0.344524    0.032260    0.194145    0.000000
   127  O3    c     0.749186    0.280991    0.002181    0.000000
   128  O2    c     0.664710    0.449896    0.338788    0.000000
   129  O2    c     0.504020    0.214674    0.669286    0.000000
   130  O2    c     0.194716    0.680235    0.503230    0.000000
   131  O3    c     0.277020    0.513439    0.832857    0.000000
   132  O2    c     0.437967    0.763763    0.172746    0.000000
   133  O2    c     0.268137    0.750344    0.317621    0.000000
   134  O2    c     0.443487    0.694829    0.979219    0.000000
   135  O2    c     0.200747    0.517514    0.647942    0.000000
   136  O2    c     0.664787    0.208402    0.814809    0.000000
   137  O2    c     0.497909    0.289169    0.483782    0.000000
   138  O2    c     0.738946    0.457037    0.150309    0.000000
   139  O3    c     0.759774    0.544440    0.017218    0.000000
   140  O2    c     0.432957    0.232607    0.356187    0.000000
   141  O2    c     0.720722    0.199744    0.686941    0.000000
   142  O2    c     0.180309    0.448329    0.520573    0.000000
   143  O3    c     0.517627    0.740216    0.857037    0.000000
   144  O2    c     0.217048    0.773973    0.191091    0.000000
   145  O2    c     0.501451    0.767872    0.300722    0.000000
   146  O3    c     0.217916    0.462273    0.969528    0.000000
   147  O2    c     0.185424    0.734341    0.630746    0.000000
   148  O2    c     0.435121    0.198262    0.796592    0.000000
   149  O2    c     0.715131    0.520678    0.466616    0.000000
   150  O2    c     0.758262    0.244929    0.130923    0.000000
   151  O3    c     0.192850    0.304598    0.884853    0.000000
   152  O2    c     0.646562    0.895661    0.228012    0.000000
   153  O2    c     0.059109    0.752507    0.557744    0.000000
   154  O2    c     0.734822    0.659928    0.391727    0.000000
   155  O2    c     0.293361    0.076257    0.722126    0.000000
   156  O2    c     0.890656    0.232375    0.058634    0.000000
   157  O2    c     0.288682    0.215320    0.429024    0.000000
   158  O2    c     0.867537    0.661791    0.094768    0.000000
   159  O2    c     0.738875    0.074963    0.760298    0.000000
   160  O2    c     0.648456    0.738629    0.928534    0.000000
   161  O2    c     0.059065    0.307389    0.594927    0.000000
   162  O2    c     0.200595    0.894746    0.265694    0.000000
   163  O3    c     0.556265    0.555217    0.989875    0.000000
   164  O2    c     0.410078    0.007601    0.322229    0.000000
   165  O2    c     0.942432    0.398054    0.650686    0.000000
   166  O2    c     0.376426    0.425573    0.483317    0.000000
   167  O2    c     0.528563    0.949587    0.814433    0.000000
   168  O2    c     0.993097    0.577731    0.147704    0.000000
   169  O2    c     0.525399    0.569208    0.335980    0.000000
   170  O2    c     0.998357    0.443408    0.004614    0.000000
   171  O2    c     0.382072    0.956274    0.666826    0.000000
   172  O2    c     0.415688    0.397036    0.838300    0.000000
   173  O2    c     0.935867    0.542624    0.503173    0.000000
   174  O2    c     0.561776    0.021565    0.174499    0.000000
   175  O2    c     0.551562    0.149698    0.249867    0.000000
   176  O2    c     0.802338    0.401372    0.577594    0.000000
   177  O3    c     0.573311    0.415314    0.908590    0.000000
   178  O2    c     0.384932    0.817285    0.740031    0.000000
   179  O2    c     0.131746    0.576241    0.077932    0.000000
   180  O2    c     0.381725    0.564732    0.409078    0.000000
   181  F     c     0.419371    0.888937    0.245945    0.000000
   182  F     c     0.063978    0.532094    0.575982    0.000000
   183  F     c     0.395602    0.505873    0.914121    0.000000
   184  F     c     0.516706    0.077840    0.741450    0.000000
   185  F     c     0.842777    0.436284    0.070069    0.000000
   186  F     c     0.513813    0.435453    0.409992    0.000000
   187  O2    s     0.902695    0.000617    0.994374    0.000000
   188  O2    s     0.968989    0.906628    0.326739    0.000000
   189  O2    s     0.043760    0.058614    0.658336    0.000000
   190  O2    s     0.039700    0.984475    0.492983    0.000000
   191  O2    s     0.975079    0.064216    0.825558    0.000000
   192  O2    s     0.898958    0.919470    0.160801    0.000000
   193  O2    s     0.318209    0.567283    0.326254    0.000000
   194  O2    s     0.383790    0.751089    0.657226    0.000000
   195  O2    s     0.209829    0.649080    0.996014    0.000000
   196  O2    s     0.621272    0.395455    0.824684    0.000000
   197  O2    s     0.560387    0.224218    0.168534    0.000000
   198  O2    s     0.730328    0.337658    0.495104    0.000000
   199  O1    s     0.573804    0.338719    0.997483    0.000000
   200  O2    s     0.737068    0.398582    0.660433    0.000000
   201  O2    s     0.616931    0.216248    0.331850    0.000000
   202  O2    s     0.377094    0.630940    0.491929    0.000000
   203  O2    s     0.204698    0.581853    0.161431    0.000000
   204  O3    s     0.319759    0.753860    0.822518    0.000000
   205  O3    s     0.102486    0.199660    0.960536    0.000000
   206  O2    s     0.750457    0.887057    0.299426    0.000000
   207  O2    s     0.064671    0.862414    0.629295    0.000000
   208  O2    s     0.842548    0.767985    0.463451    0.000000
   209  O2    s     0.185061    0.074001    0.793577    0.000000
   210  O2    s     0.878451    0.116717    0.131420    0.000000
   211  O2    s     0.184396    0.103672    0.357287    0.000000
   212  O2    s     0.885588    0.791655    0.025408    0.000000
   213  O2    s     0.846955    0.078862    0.687965    0.000000
   214  O2    s     0.765860    0.864475    0.858049    0.000000
   215  O2    s     0.058382    0.199555    0.523475    0.000000
   216  O2    s     0.091622    0.896387    0.193685    0.000000
   217  O2    s     0.893281    0.845308    0.243880    0.000000
   218  O2    s     0.106010    0.052450    0.575744    0.000000
   219  O2    s     0.905430    0.060228    0.908940    0.000000
   220  O2    s     0.035826    0.118687    0.741162    0.000000
   221  O2    s     0.829250    0.928731    0.077994    0.000000
   222  O2    s     0.035032    0.913258    0.410438    0.000000
   223  O2    s     0.906960    0.210849    0.973475    0.000000
   224  O2    s     0.762601    0.686380    0.309591    0.000000
   225  O2    s     0.265519    0.076019    0.640364    0.000000
   226  O2    s     0.055416    0.779249    0.475917    0.000000
   227  O2    s     0.182682    0.277897    0.802748    0.000000
   228  O2    s     0.677259    0.903184    0.145447    0.000000
   229  O2    s     0.172272    0.890251    0.347147    0.000000
   230  O2    s     0.680920    0.797725    0.010591    0.000000
   231  O2    s     0.061268    0.279448    0.676684    0.000000
   232  O2    s     0.765275    0.071152    0.842871    0.000000
   233  O2    s     0.260323    0.190362    0.511004    0.000000
   234  O2    s     0.878003    0.696960    0.177640    0.000000
   235  O2    s     0.296843    0.643707    0.244442    0.000000
   236  O2    s     0.311085    0.655384    0.575009    0.000000
   237  O3    s     0.291555    0.656530    0.912083    0.000000
   238  O2    s     0.642975    0.325420    0.742469    0.000000
   239  O3    s     0.614306    0.305874    0.085960    0.000000
   240  O2    s     0.639251    0.314658    0.412475    0.000000
   241  O1    s     0.358317    0.321827    0.963202    0.000000
   242  O2    s     0.629063    0.019405    0.299478    0.000000
   243  O2    s     0.933317    0.607827    0.628409    0.000000
   244  O2    s     0.587349    0.644109    0.461012    0.000000
   245  O2    s     0.310001    0.947190    0.791928    0.000000
   246  O2    s     0.007309    0.373682    0.128860    0.000000
   247  O2    s     0.306437    0.358380    0.358101    0.000000
   248  O2    s     0.010665    0.659625    0.027007    0.000000
   249  O2    s     0.592501    0.947778    0.689630    0.000000
   250  O2    s     0.633277    0.608289    0.856621    0.000000
   251  O2    s     0.928226    0.323916    0.525283    0.000000
   252  O2    s     0.347467    0.025293    0.196475    0.000000
   253  O3    s     0.760664    0.288571    0.005143    0.000000
   254  O2    s     0.657060    0.449403    0.341919    0.000000
   255  O2    s     0.504417    0.207452    0.672391    0.000000
   256  O2    s     0.187732    0.672678    0.506373    0.000000
   257  O3    s     0.282403    0.512021    0.835786    0.000000
   258  O2    s     0.437459    0.770444    0.175999    0.000000
   259  O2    s     0.276135    0.757786    0.314664    0.000000
   260  O2    s     0.442175    0.686485    0.977296    0.000000
   261  O2    s     0.193430    0.517937    0.644898    0.000000
   262  O2    s     0.657741    0.201921    0.811681    0.000000
   263  O2    s     0.498582    0.296741    0.480636    0.000000
   264  O2    s     0.745693    0.457429    0.147548    0.000000
   265  O3    s     0.769197    0.547131    0.020483    0.000000
   266  O2    s     0.435608    0.240638    0.358794    0.000000
   267  O2    s     0.712692    0.194461    0.689543    0.000000
   268  O2    s     0.175150    0.451050    0.523202    0.000000
   269  O3    s     0.516783    0.733262    0.859006    0.000000
   270  O2    s     0.225422    0.779393    0.193678    0.000000
   271  O2    s     0.498883    0.773098    0.298149    0.000000
   272  O3    s     0.227592    0.469440    0.966840    0.000000
   273  O2    s     0.180000    0.726488    0.628165    0.000000
   274  O2    s     0.437982    0.193041    0.794027    0.000000
   275  O2    s     0.707260    0.517762    0.463953    0.000000
   276  O2    s     0.762853    0.251124    0.128973    0.000000
   277  O3    s     0.204622    0.315363    0.884380    0.000000
   278  O2    s     0.637044    0.895532    0.228834    0.000000
   279  O2    s     0.059337    0.743136    0.558613    0.000000
   280  O2    s     0.725305    0.650335    0.392587    0.000000
   281  O2    s     0.303002    0.076336    0.722997    0.000000
   282  O2    s     0.889404    0.239459    0.059698    0.000000
   283  O2    s     0.298388    0.224744    0.428118    0.000000
   284  O2    s     0.868865    0.654384    0.094401    0.000000
   285  O2    s     0.729388    0.074930    0.759430    0.000000
   286  O2    s     0.640323    0.733404    0.927720    0.000000
   287  O2    s     0.059329    0.316935    0.594034    0.000000
   288  O2    s     0.209780    0.894309    0.264732    0.000000
   289  O3    s     0.555642    0.559211    0.986633    0.000000
   290  O2    s     0.409797    0.003379    0.318767    0.000000
   291  O2    s     0.947153    0.402473    0.647308    0.000000
   292  O2    s     0.381161    0.425317    0.480010    0.000000
   293  O2    s     0.529116    0.955252    0.811245    0.000000
   294  O2    s     0.989428    0.573805    0.145022    0.000000
   295  O2    s     0.525641    0.564605    0.339376    0.000000
   296  O2    s     0.996343    0.443557    0.007499    0.000000
   297  O2    s     0.386705    0.961088    0.670199    0.000000
   298  O2    s     0.416143    0.401279    0.840706    0.000000
   299  O2    s     0.941083    0.543047    0.506522    0.000000
   300  O2    s     0.556727    0.015953    0.177779    0.000000
   301  O2    s     0.546196    0.138586    0.249761    0.000000
   302  O2    s     0.813489    0.407003    0.577522    0.000000
   303  O3    s     0.568061    0.418807    0.907479    0.000000
   304  O2    s     0.390660    0.828399    0.739991    0.000000
   305  O2    s     0.122145    0.571663    0.078108    0.000000
   306  O2    s     0.387310    0.559346    0.409150    0.000000
   307  F     s     0.418962    0.888385    0.245825    0.000000
   308  F     s     0.064401    0.532297    0.575942    0.000000
   309  F     s     0.388480    0.499167    0.915223    0.000000
   310  F     s     0.516758    0.078095    0.741443    0.000000
   311  F     s     0.831226    0.431662    0.067294    0.000000
   312  F     s     0.514001    0.435214    0.409923    0.000000
--------------------------------------------------------------------------------

  Final Cartesian lattice vectors (Angstroms) :

       11.963004    0.003415    0.003055
       -6.057026   10.375332    0.020440
       -0.125871   -0.038328   29.561497


  Final cell parameters and derivatives :

--------------------------------------------------------------------------------
       a           11.963005 Angstrom     dE/de1(xx)     0.002439 eV/strain
       b           12.013971 Angstrom     dE/de2(yy)     0.001410 eV/strain
       c           29.561789 Angstrom     dE/de3(zz)     0.002578 eV/strain
       alpha       89.843680 Degrees      dE/de4(yz)    -0.000098 eV/strain
       beta        90.229350 Degrees      dE/de5(xz)     0.000355 eV/strain
       gamma      120.259562 Degrees      dE/de6(xy)     0.000051 eV/strain
--------------------------------------------------------------------------------

  Primitive cell volume =          3669.802826 Angs**3

  Density of cell =      1.763588 g/cm**3

  Non-primitive cell volume =          3669.802826 Angs**3


  Final internal derivatives :

--------------------------------------------------------------------------------
   No.  Atomic          a             b             c           Radius
        Label          (eV)          (eV)          (eV)        (eV/Angs)
--------------------------------------------------------------------------------
      1 Ge    c       0.000000      0.000000      0.000000      0.000000
      2 Si    c       0.000634      0.000279      0.000425      0.000000
      3 Si    c       0.000278     -0.000296     -0.000115      0.000000
      4 Si    c       0.000710      0.000026      0.000361      0.000000
      5 Ge    c       0.000895      0.000170     -0.001154      0.000000
      6 Si    c       0.000589     -0.000133     -0.000044      0.000000
      7 Si    c       0.000796      0.000374      0.000214      0.000000
      8 Si    c       0.001470     -0.000658      0.000186      0.000000
      9 Si    c       0.000183     -0.000210      0.000176      0.000000
     10 Si    c       0.000468     -0.000102     -0.000314      0.000000
     11 Si    c       0.000666     -0.000117     -0.000012      0.000000
     12 Si    c       0.001062     -0.000566      0.005901      0.000000
     13 Ge    c      -0.003537      0.002468     -0.004752      0.000000
     14 Si    c       0.000693      0.000203      0.000047      0.000000
     15 Si    c       0.000319     -0.000338     -0.000164      0.000000
     16 Si    c       0.000900      0.000091      0.000198      0.000000
     17 Si    c       0.000437      0.000262     -0.000194      0.000000
     18 Si    c       0.000432     -0.000082      0.000437      0.000000
     19 Si    c       0.000953      0.000438      0.000577      0.000000
     20 Si    c       0.000129      0.000052      0.001152      0.000000
     21 Si    c       0.000151     -0.000266      0.000296      0.000000
     22 Si    c      -0.000254      0.000405     -0.000042      0.000000
     23 Si    c       0.000706     -0.000120      0.000114      0.000000
     24 Si    c       0.000487     -0.000094      0.000442      0.000000
     25 Si    c       0.000545      0.000342     -0.001299      0.000000
     26 Si    c       0.000384     -0.000136     -0.000228      0.000000
     27 Si    c       0.000743     -0.000043      0.000078      0.000000
     28 Si    c       0.000865      0.000397      0.000269      0.000000
     29 Si    c       0.000260     -0.000272     -0.000033      0.000000
     30 Si    c       0.000736      0.000192      0.000045      0.000000
     31 Si    c       0.000814     -0.000039     -0.000082      0.000000
     32 Si    c       0.000926     -0.000150      0.000982      0.000000
     33 Si    c       0.000354      0.000029     -0.000002      0.000000
     34 Si    c       0.000369     -0.000446      0.000482      0.000000
     35 Si    c       0.000006     -0.000023     -0.000387      0.000000
     36 Si    c       0.000790      0.000329      0.000334      0.000000
     37 Ge    c       0.000546      0.000544      0.001429      0.000000
     38 Si    c       0.000703      0.000240      0.000338      0.000000
     39 Si    c       0.000312     -0.000249      0.000031      0.000000
     40 Si    c       0.000806      0.000012      0.000304      0.000000
     41 Si    c       0.000469      0.000194      0.000148      0.000000
     42 Si    c       0.000441     -0.000150      0.001403      0.000000
     43 Si    c       0.000820      0.000240      0.000461      0.000000
     44 Si    c       0.001272     -0.000189     -0.001244      0.000000
     45 Si    c       0.000120     -0.000324      0.000024      0.000000
     46 Si    c       0.000558      0.000038     -0.000361      0.000000
     47 Si    c       0.000494      0.000260      0.000284      0.000000
     48 Si    c       0.000624      0.000041     -0.000200      0.000000
     49 Si    c       0.000320     -0.000547      0.001409      0.000000
     50 Si    c       0.000851      0.000393      0.000257      0.000000
     51 Si    c       0.000352     -0.000280      0.000103      0.000000
     52 Si    c       0.000826      0.000013      0.000128      0.000000
     53 Si    c       0.000314      0.000352      0.000307      0.000000
     54 Si    c       0.000532     -0.000272     -0.000290      0.000000
     55 Si    c       0.000721      0.000365      0.000318      0.000000
     56 Si    c       0.000257      0.000953      0.000315      0.000000
     57 Si    c       0.000127     -0.000239     -0.000134      0.000000
     58 Si    c       0.000433      0.000198     -0.000023      0.000000
     59 Si    c       0.000751     -0.000052     -0.000133      0.000000
     60 Si    c       0.000657      0.000136     -0.000127      0.000000
     61 O2    c       0.000255     -0.000683      0.001562      0.000000
     62 O2    c       0.000776      0.000524      0.000134      0.000000
     63 O2    c       0.000200     -0.000192      0.000340      0.000000
     64 O2    c       0.000815     -0.000019      0.000007      0.000000
     65 O2    c       0.000493      0.000294      0.000218      0.000000
     66 O2    c       0.000574      0.000151     -0.000205      0.000000
     67 O2    c       0.000810      0.000407      0.000378      0.000000
     68 O2    c       0.000044     -0.000439      0.000064      0.000000
     69 O2    c       0.000468      0.000787      0.001132      0.000000
     70 O2    c       0.000466      0.000323      0.000136      0.000000
     71 O2    c       0.000063      0.000130      0.000190      0.000000
     72 O2    c       0.000749     -0.000137     -0.000172      0.000000
     73 O1    c       0.002644     -0.007223      0.009741      0.000000
     74 O2    c       0.000162     -0.000366     -0.000125      0.000000
     75 O2    c       0.000781      0.000308     -0.000039      0.000000
     76 O2    c       0.000919      0.000085      0.000307      0.000000
     77 O2    c       0.000240     -0.000506     -0.001017      0.000000
     78 O3    c       0.000481      0.000132      0.000123      0.000000
     79 O3    c       0.001598     -0.000701      0.002433      0.000000
     80 O2    c       0.000733      0.000436      0.000266      0.000000
     81 O2    c       0.000174     -0.000275      0.000063      0.000000
     82 O2    c       0.000818     -0.000076      0.000306      0.000000
     83 O2    c       0.000551      0.000349      0.000427      0.000000
     84 O2    c       0.000246     -0.000088      0.000096      0.000000
     85 O2    c       0.000745      0.000377      0.000357      0.000000
     86 O2    c       0.002443     -0.001476     -0.000060      0.000000
     87 O2    c       0.000140     -0.000466      0.000074      0.000000
     88 O2    c       0.000469      0.000082      0.000300      0.000000
     89 O2    c       0.000781      0.000073     -0.000020      0.000000
     90 O2    c       0.000616     -0.000006     -0.000088      0.000000
     91 O2    c       0.000810      0.000262      0.000428      0.000000
     92 O2    c       0.000462      0.000018      0.000123      0.000000
     93 O2    c      -0.000301     -0.000286     -0.003700      0.000000
     94 O2    c       0.000344     -0.000122      0.000616      0.000000
     95 O2    c       0.000481      0.000044      0.002178      0.000000
     96 O2    c       0.000675      0.000057      0.000031      0.000000
     97 O2    c      -0.001005      0.001895      0.000762      0.000000
     98 O2    c       0.000855      0.000301      0.000399      0.000000
     99 O2    c       0.000268     -0.000321      0.000146      0.000000
    100 O2    c       0.000879      0.000054      0.000030      0.000000
    101 O2    c       0.000306      0.000431      0.000155      0.000000
    102 O2    c       0.000400     -0.000330     -0.000115      0.000000
    103 O2    c       0.000873      0.000287      0.000020      0.000000
    104 O2    c      -0.000516     -0.000494     -0.000265      0.000000
    105 O2    c       0.000048     -0.000296      0.000280      0.000000
    106 O2    c       0.000191      0.000274     -0.000108      0.000000
    107 O2    c       0.000752     -0.000080      0.000092      0.000000
    108 O2    c       0.000466     -0.000025      0.000312      0.000000
    109 O2    c       0.000661      0.000000      0.000819      0.000000
    110 O2    c       0.000444     -0.000071     -0.000051      0.000000
    111 O3    c       0.000085      0.000742      0.001127      0.000000
    112 O2    c       0.000402     -0.000080     -0.000002      0.000000
    113 O3    c      -0.002590      0.000105     -0.001877      0.000000
    114 O2    c       0.000604     -0.000043      0.000037      0.000000
    115 O1    c       0.000423     -0.000786      0.006881      0.000000
    116 O2    c       0.000751      0.000279      0.000104      0.000000
    117 O2    c       0.000205     -0.000257      0.000080      0.000000
    118 O2    c       0.000864      0.000031      0.000320      0.000000
    119 O2    c       0.000274      0.000226      0.000198      0.000000
    120 O2    c       0.000418     -0.000035      0.000006      0.000000
    121 O2    c       0.000864      0.000350      0.000337      0.000000
    122 O2    c       0.000501      0.000282      0.000481      0.000000
    123 O2    c       0.000120     -0.000377      0.000116      0.000000
    124 O2    c       0.000458     -0.000060      0.000486      0.000000
    125 O2    c       0.000724     -0.000040      0.000168      0.000000
    126 O2    c       0.000590     -0.000090      0.000057      0.000000
    127 O3    c       0.001085     -0.000169     -0.000913      0.000000
    128 O2    c       0.000770      0.000336      0.000181      0.000000
    129 O2    c       0.000243     -0.000317      0.000079      0.000000
    130 O2    c       0.000780      0.000025      0.000086      0.000000
    131 O3    c       0.000383      0.000728      0.000009      0.000000
    132 O2    c       0.000446     -0.000177     -0.000465      0.000000
    133 O2    c       0.000819      0.000337      0.000205      0.000000
    134 O2    c       0.000741     -0.000277      0.000508      0.000000
    135 O2    c       0.000072     -0.000306      0.000158      0.000000
    136 O2    c       0.000476      0.000160     -0.000110      0.000000
    137 O2    c       0.000734     -0.000106     -0.000071      0.000000
    138 O2    c       0.000267      0.000059      0.000921      0.000000
    139 O3    c       0.000115      0.000193     -0.002399      0.000000
    140 O2    c       0.000722      0.000281      0.000281      0.000000
    141 O2    c       0.000161     -0.000380      0.000052      0.000000
    142 O2    c       0.000744      0.000045      0.000363      0.000000
    143 O3    c       0.000429      0.000338     -0.000265      0.000000
    144 O2    c       0.000431     -0.000003     -0.000196      0.000000
    145 O2    c       0.000753      0.000269      0.000497      0.000000
    146 O3    c       0.000222      0.000006      0.001858      0.000000
    147 O2    c       0.000185     -0.000223      0.000199      0.000000
    148 O2    c       0.000473      0.000212      0.000092      0.000000
    149 O2    c       0.000773     -0.000133      0.000220      0.000000
    150 O2    c       0.000056      0.000069      0.000631      0.000000
    151 O3    c      -0.000552      0.000189     -0.001790      0.000000
    152 O2    c       0.000645     -0.000028      0.000204      0.000000
    153 O2    c       0.000543     -0.000119      0.000066      0.000000
    154 O2    c       0.000820      0.000195     -0.000286      0.000000
    155 O2    c       0.000273      0.000028      0.000228      0.000000
    156 O2    c       0.000527     -0.000306     -0.001379      0.000000
    157 O2    c       0.000795      0.000123     -0.000133      0.000000
    158 O2    c       0.000787      0.000454      0.000832      0.000000
    159 O2    c       0.000256     -0.000150      0.000481      0.000000
    160 O2    c       0.000695      0.000007      0.000651      0.000000
    161 O2    c      -0.000108      0.000738     -0.000287      0.000000
    162 O2    c       0.000584      0.000205      0.000157      0.000000
    163 O3    c       0.000187     -0.000427      0.000439      0.000000
    164 O2    c       0.000754      0.000384      0.000057      0.000000
    165 O2    c       0.000124     -0.000390     -0.000024      0.000000
    166 O2    c       0.000809      0.000072      0.000107      0.000000
    167 O2    c       0.000393      0.000110      0.000099      0.000000
    168 O2    c       0.000356     -0.000196      0.000013      0.000000
    169 O2    c       0.000888      0.000474      0.000161      0.000000
    170 O2    c       0.000947      0.000386     -0.000009      0.000000
    171 O2    c       0.000074     -0.000290      0.000192      0.000000
    172 O2    c       0.000479      0.000314      0.000205      0.000000
    173 O2    c       0.000768     -0.000035     -0.000028      0.000000
    174 O2    c       0.000540     -0.000188      0.000021      0.000000
    175 O2    c       0.000716      0.000177     -0.000471      0.000000
    176 O2    c       0.000440     -0.000195     -0.000079      0.000000
    177 O3    c      -0.000055     -0.000678     -0.001984      0.000000
    178 O2    c       0.000186     -0.000153      0.000146      0.000000
    179 O2    c       0.000757      0.000150      0.000228      0.000000
    180 O2    c       0.000952      0.000310      0.000081      0.000000
    181 F     c       0.000691      0.000086      0.000198      0.000000
    182 F     c       0.000385     -0.000224      0.000198      0.000000
    183 F     c       0.000400     -0.000397      0.000529      0.000000
    184 F     c       0.000195     -0.000203      0.000140      0.000000
    185 F     c       0.000576     -0.000143      0.000056      0.000000
    186 F     c       0.000789      0.000149      0.000213      0.000000
    187 O2    s       0.000200     -0.000303     -0.000386      0.000000
    188 O2    s       0.000836      0.000466      0.000133      0.000000
    189 O2    s       0.000282     -0.000255      0.000016      0.000000
    190 O2    s       0.000785      0.000006      0.000428      0.000000
    191 O2    s       0.000498      0.000241      0.000101      0.000000
    192 O2    s       0.000546      0.000056      0.000756      0.000000
    193 O2    s       0.000908      0.000373      0.000116      0.000000
    194 O2    s       0.000044     -0.000296      0.000463      0.000000
    195 O2    s       0.001049     -0.000367     -0.000524      0.000000
    196 O2    s       0.000519      0.000233     -0.000121      0.000000
    197 O2    s       0.000432     -0.000309      0.000267      0.000000
    198 O2    s       0.000749     -0.000157      0.000238      0.000000
    199 O1    s      -0.000035      0.004697     -0.005077      0.000000
    200 O2    s       0.000146     -0.000340      0.000177      0.000000
    201 O2    s       0.000656      0.000349     -0.000009      0.000000
    202 O2    s       0.000885      0.000066      0.000217      0.000000
    203 O2    s       0.000311     -0.000203      0.001536      0.000000
    204 O3    s       0.000265      0.000597      0.000688      0.000000
    205 O3    s       0.001273     -0.000069     -0.002530      0.000000
    206 O2    s       0.000801      0.000389     -0.000190      0.000000
    207 O2    s       0.000172     -0.000224      0.000142      0.000000
    208 O2    s       0.000840     -0.000044      0.000021      0.000000
    209 O2    s       0.000535      0.000321     -0.000122      0.000000
    210 O2    s       0.000166     -0.000204      0.000733      0.000000
    211 O2    s       0.000700      0.000372     -0.000027      0.000000
    212 O2    s       0.000816      0.000036     -0.000248      0.000000
    213 O2    s       0.000123     -0.000434      0.000262      0.000000
    214 O2    s       0.000661      0.000035     -0.000234      0.000000
    215 O2    s       0.000800     -0.000002      0.000494      0.000000
    216 O2    s       0.000682     -0.000060      0.000576      0.000000
    217 O2    s       0.000846      0.000264      0.000152      0.000000
    218 O2    s       0.000435      0.000047      0.000178      0.000000
    219 O2    s       0.000157     -0.000479     -0.000043      0.000000
    220 O2    s       0.000259     -0.000035      0.000065      0.000000
    221 O2    s       0.000364      0.000117      0.000304      0.000000
    222 O2    s       0.000644      0.000074      0.000208      0.000000
    223 O2    s      -0.000521      0.000831      0.000756      0.000000
    224 O2    s       0.000885      0.000364      0.000100      0.000000
    225 O2    s       0.000202     -0.000261      0.000238      0.000000
    226 O2    s       0.000856      0.000050      0.000231      0.000000
    227 O2    s       0.000360      0.000326     -0.000154      0.000000
    228 O2    s       0.000348     -0.000260      0.000586      0.000000
    229 O2    s       0.000749      0.000372      0.000190      0.000000
    230 O2    s       0.000122     -0.000496     -0.000434      0.000000
    231 O2    s       0.000093     -0.000322     -0.000213      0.000000
    232 O2    s       0.000321      0.000116      0.000296      0.000000
    233 O2    s       0.000726     -0.000035      0.000374      0.000000
    234 O2    s       0.000531     -0.000018      0.000297      0.000000
    235 O2    s       0.000651      0.000059     -0.000310      0.000000
    236 O2    s       0.000470     -0.000059      0.000521      0.000000
    237 O3    s       0.001337     -0.000233     -0.000848      0.000000
    238 O2    s       0.000402     -0.000079     -0.000036      0.000000
    239 O3    s       0.002442      0.000293     -0.000568      0.000000
    240 O2    s       0.000641      0.000002      0.000062      0.000000
    241 O1    s      -0.000795     -0.000064     -0.008628      0.000000
    242 O2    s       0.000728      0.000301     -0.000008      0.000000
    243 O2    s       0.000197     -0.000230      0.000018      0.000000
    244 O2    s       0.000860      0.000059      0.000184      0.000000
    245 O2    s       0.000320      0.000137      0.000244      0.000000
    246 O2    s       0.000449     -0.000141      0.000812      0.000000
    247 O2    s       0.000854      0.000407      0.000052      0.000000
    248 O2    s       0.000751      0.000144     -0.000452      0.000000
    249 O2    s       0.000119     -0.000352      0.000398      0.000000
    250 O2    s       0.000778     -0.000097     -0.000788      0.000000
    251 O2    s       0.000687     -0.000092     -0.000180      0.000000
    252 O2    s       0.000520     -0.000040      0.000272      0.000000
    253 O3    s      -0.000039      0.000812      0.000958      0.000000
    254 O2    s       0.000748      0.000315      0.000075      0.000000
    255 O2    s       0.000231     -0.000311      0.000235      0.000000
    256 O2    s       0.000751      0.000034      0.000324      0.000000
    257 O3    s       0.000558      0.000202      0.000781      0.000000
    258 O2    s       0.000503     -0.000263      0.001263      0.000000
    259 O2    s       0.000749      0.000378      0.000067      0.000000
    260 O2    s       0.000714     -0.000070     -0.000093      0.000000
    261 O2    s       0.000190     -0.000252      0.000323      0.000000
    262 O2    s       0.000437      0.000200      0.000323      0.000000
    263 O2    s       0.000723     -0.000089      0.000450      0.000000
    264 O2    s       0.000254      0.000164     -0.001344      0.000000
    265 O3    s       0.000701     -0.000598      0.003481      0.000000
    266 O2    s       0.000722      0.000298     -0.000167      0.000000
    267 O2    s       0.000141     -0.000361      0.000179      0.000000
    268 O2    s       0.000782     -0.000012     -0.000147      0.000000
    269 O3    s       0.000374      0.000321      0.000655      0.000000
    270 O2    s       0.000604     -0.000164      0.000821      0.000000
    271 O2    s       0.000789      0.000256     -0.000304      0.000000
    272 O3    s       0.000712     -0.000183     -0.002118      0.000000
    273 O2    s       0.000211     -0.000230      0.000112      0.000000
    274 O2    s       0.000463      0.000162      0.000098      0.000000
    275 O2    s       0.000744     -0.000041      0.000007      0.000000
    276 O2    s       0.000009     -0.000010     -0.000408      0.000000
    277 O3    s       0.001438     -0.000201      0.002537      0.000000
    278 O2    s       0.000521     -0.000010      0.000065      0.000000
    279 O2    s       0.000500     -0.000086      0.000118      0.000000
    280 O2    s       0.000847      0.000156      0.000638      0.000000
    281 O2    s       0.000312     -0.000019      0.000179      0.000000
    282 O2    s      -0.000244      0.000162     -0.000222      0.000000
    283 O2    s       0.000755      0.000153      0.000469      0.000000
    284 O2    s       0.000502      0.000010     -0.000185      0.000000
    285 O2    s       0.000223     -0.000110     -0.000222      0.000000
    286 O2    s       0.000679     -0.000084      0.000774      0.000000
    287 O2    s       0.001124     -0.001659      0.000677      0.000000
    288 O2    s       0.000751      0.000113     -0.000045      0.000000
    289 O3    s       0.000963     -0.000589     -0.000434      0.000000
    290 O2    s       0.000697      0.000399     -0.000017      0.000000
    291 O2    s       0.000045     -0.000311      0.000328      0.000000
    292 O2    s       0.000811      0.000029      0.000409      0.000000
    293 O2    s       0.000195      0.000260      0.000370      0.000000
    294 O2    s       0.000467     -0.000195      0.000529      0.000000
    295 O2    s       0.000906      0.000377      0.000373      0.000000
    296 O2    s       0.000766     -0.000336      0.000362      0.000000
    297 O2    s       0.000145     -0.000349      0.000335      0.000000
    298 O2    s       0.000339      0.000121     -0.000640      0.000000
    299 O2    s       0.000761     -0.000035      0.000199      0.000000
    300 O2    s       0.000512     -0.000132      0.000050      0.000000
    301 O2    s       0.000645      0.000183      0.000566      0.000000
    302 O2    s       0.000397     -0.000172      0.000087      0.000000
    303 O3    s       0.000723     -0.000476      0.000839      0.000000
    304 O2    s       0.000152     -0.000036      0.000339      0.000000
    305 O2    s       0.000560      0.000006      0.000515      0.000000
    306 O2    s       0.000949      0.000297      0.000439      0.000000
    307 F     s       0.000685      0.000064      0.000078      0.000000
    308 F     s       0.000290     -0.000087      0.000012      0.000000
    309 F     s       0.000429     -0.000270      0.000532      0.000000
    310 F     s       0.000178     -0.000173      0.000121      0.000000
    311 F     s      -0.000481     -0.000084     -0.000512      0.000000
    312 F     s       0.000805      0.000156      0.000218      0.000000
--------------------------------------------------------------------------------
  Maximum abs         0.003537      0.007223      0.009741      0.000000
--------------------------------------------------------------------------------


  Time to end of optimisation =     312.2190 seconds


  Peak dynamic memory used =      19.13 MB 


  Timing analysis for GULP :

--------------------------------------------------------------------------------
  Task / Subroutine                                          Time (Seconds)
--------------------------------------------------------------------------------
  Calculation of reciprocal space energy and derivatives          5.8430
  Calculation of real space energy and derivatives              173.5886
  Calculation of three-body energy and derivatives               19.3573
  Global summation overhead                                       0.0001
--------------------------------------------------------------------------------
  Total CPU time                                                312.2190
--------------------------------------------------------------------------------


  Dump file written as out.res                                                 
  CIF file written as out.cif                                                 


  Job Finished at 14:29.31  6th December   2016                               

