********************************************************************************
*                       GENERAL UTILITY LATTICE PROGRAM                        *
*                                 Julian Gale                                  *
*                      Nanochemistry Research Institute                        *
*                           Department of Chemistry                            *
*                    Curtin University, Western Australia                      *
********************************************************************************
* Version = 4.2.0 * Last modified =  20th January 2014                         *
********************************************************************************
*  optimise     - perform optimisation run                                     *
*  conp         - constant pressure calculation                                *
*  qok          - running with non charge neutral cell is OK                   *
*  rfo          - optimisation step to be determined by RFO method             *
********************************************************************************

  Job Started  at 05:08.32  7th December   2016                               

  Number of CPUs =     1


  Total number of configurations input =   1

********************************************************************************
*  Input for Configuration =   1                                               *
********************************************************************************

  Formula = Si56Ge4O120F6                                               

  Number of irreducible atoms/shells =     312


  Total number atoms/shells =     312

  Dimensionality = 3               :  Bulk   


  Charge on solid   =  -6.000000 =>neutralising background added


  Cartesian lattice vectors (Angstroms) :

       12.008175    0.000000    0.000000
       -6.003928   10.381918    0.000000
       -0.008480   -0.210074   29.483349

  Cell parameters (Angstroms/Degrees):

  a =      12.0082    alpha =  90.3451
  b =      11.9930    beta  =  90.0165
  c =      29.4841    gamma = 120.0411

  Initial cell volume =        3675.627035 Angs**3

  Temperature of configuration =  0.000     K 

  Pressure of configuration =         0.000 GPa 

  Fractional coordinates of asymmetric unit :

--------------------------------------------------------------------------------
   No.  Atomic       x           y          z         Charge      Occupancy
        Label      (Frac)      (Frac)     (Frac)        (e)         (Frac)  
--------------------------------------------------------------------------------
      1 Si    c    0.699600    0.375700    0.033890     4.00000    1.000000    
      2 Si    c    0.618770 *  0.323778 *  0.367007 *   4.00000    1.000000    
      3 Si    c    0.675976 *  0.296318 *  0.697435 *   4.00000    1.000000    
      4 Si    c    0.296828 *  0.620105 *  0.532718 *   4.00000    1.000000    
      5 Si    c    0.379714 *  0.680080 *  0.864919 *   4.00000    1.000000    
      6 Si    c    0.326580 *  0.701929 *  0.199585 *   4.00000    1.000000    
      7 Si    c    0.377485 *  0.702590 *  0.300712 *   4.00000    1.000000    
      8 Si    c    0.314407 *  0.625556 *  0.966857 *   4.00000    1.000000    
      9 Si    c    0.295142 *  0.674677 *  0.633318 *   4.00000    1.000000    
     10 Si    c    0.620856 *  0.298045 *  0.797933 *   4.00000    1.000000    
     11 Si    c    0.674877 *  0.379990 *  0.467591 *   4.00000    1.000000    
     12 Si    c    0.702065 *  0.323127 *  0.134564 *   4.00000    1.000000    
     13 Ge    c    0.532328 *  0.419369 *  0.968388 *   4.00000    1.000000    
     14 Si    c    0.580949 *  0.112381 *  0.302005 *   4.00000    1.000000    
     15 Si    c    0.887144 *  0.469607 *  0.633571 *   4.00000    1.000000    
     16 Si    c    0.470152 *  0.583443 *  0.467982 *   4.00000    1.000000    
     17 Si    c    0.418966 *  0.889326 *  0.799152 *   4.00000    1.000000    
     18 Si    c    0.115101 *  0.534083 *  0.133672 *   4.00000    1.000000    
     19 Si    c    0.415266 *  0.531124 *  0.366166 *   4.00000    1.000000    
     20 Si    c    0.104890 *  0.579982 *  0.032641 *   4.00000    1.000000    
     21 Si    c    0.469356 *  0.886090 *  0.697656 *   4.00000    1.000000    
     22 Si    c    0.590233 *  0.472475 *  0.864667 *   4.00000    1.000000    
     23 Si    c    0.886067 *  0.416290 *  0.531819 *   4.00000    1.000000    
     24 Si    c    0.534788 *  0.114347 *  0.200202 *   4.00000    1.000000    
     25 Si    c    0.304707 *  0.399991 *  0.849689 *   4.00000    1.000000    
     26 Si    c    0.604536 *  0.903918 *  0.186212 *   4.00000    1.000000    
     27 Si    c    0.095677 *  0.696519 *  0.518448 *   4.00000    1.000000    
     28 Si    c    0.695264 *  0.601294 *  0.352521 *   4.00000    1.000000    
     29 Si    c    0.397916 *  0.094630 *  0.683379 *   4.00000    1.000000    
     30 Si    c    0.900778 *  0.298761 *  0.018626 *   4.00000    1.000000    
     31 Si    c    0.397708 *  0.303533 *  0.482427 *   4.00000    1.000000    
     32 Si    c    0.903130 *  0.601172 *  0.148283 *   4.00000    1.000000    
     33 Si    c    0.698429 *  0.098099 *  0.812867 *   4.00000    1.000000    
     34 Ge    c    0.588510 *  0.691420 *  0.978150 *   4.00000    1.000000    
     35 Si    c    0.094679 *  0.397658 *  0.647875 *   4.00000    1.000000    
     36 Si    c    0.299581 *  0.903750 *  0.314488 *   4.00000    1.000000    
     37 Si    c    0.249225 *  0.341385 *  0.951686 *   4.00000    1.000000    
     38 Si    c    0.658087 *  0.910873 *  0.287317 *   4.00000    1.000000    
     39 Si    c    0.088000 *  0.747884 *  0.619079 *   4.00000    1.000000    
     40 Si    c    0.748139 *  0.660660 *  0.453132 *   4.00000    1.000000    
     41 Si    c    0.340336 *  0.088919 *  0.783946 *   4.00000    1.000000    
     42 Si    c    0.912476 *  0.254964 *  0.119333 *   4.00000    1.000000    
     43 Si    c    0.338673 *  0.252745 *  0.381732 *   4.00000    1.000000    
     44 Si    c    0.905088 *  0.658410 *  0.047733 *   4.00000    1.000000    
     45 Si    c    0.748101 *  0.087699 *  0.712303 *   4.00000    1.000000    
     46 Si    c    0.668061 *  0.754632 *  0.880342 *   4.00000    1.000000    
     47 Si    c    0.087277 *  0.339427 *  0.547147 *   4.00000    1.000000    
     48 Si    c    0.256762 *  0.912216 *  0.213372 *   4.00000    1.000000    
     49 Si    c    0.967583 *  0.121998 *  0.965454 *   4.00000    1.000000    
     50 Si    c    0.876352 *  0.850928 *  0.304132 *   4.00000    1.000000    
     51 Si    c    0.149969 *  0.028179 *  0.633451 *   4.00000    1.000000    
     52 Si    c    0.029532 *  0.877544 *  0.468248 *   4.00000    1.000000    
     53 Si    c    0.122849 *  0.151041 *  0.799016 *   4.00000    1.000000    
     54 Si    c    0.852926 *  0.978166 *  0.135713 *   4.00000    1.000000    
     55 Si    c    0.121539 *  0.972087 *  0.367574 *   4.00000    1.000000    
     56 Ge    c    0.841041 *  0.879494 *  0.032063 *   4.00000    1.000000    
     57 Si    c    0.027872 *  0.150383 *  0.698227 *   4.00000    1.000000    
     58 Si    c    0.878785 *  0.032280 *  0.863439 *   4.00000    1.000000    
     59 Si    c    0.150513 *  0.122515 *  0.532874 *   4.00000    1.000000    
     60 Ge    c    0.974394 *  0.851706 *  0.201166 *   4.00000    1.000000    
     61 O3    c    0.940113 *  0.006332 *  0.997044 *   1.33043    1.000000    
     62 O2    c    0.993155 *  0.929581 *  0.339123 *   0.87073    1.000000    
     63 O2    c    0.071185 *  0.070367 *  0.666424 *   0.87073    1.000000    
     64 O2    c    0.070225 *  0.998749 *  0.501180 *   0.87073    1.000000    
     65 O2    c    0.003718 *  0.075359 *  0.832464 *   0.87073    1.000000    
     66 O3    c    0.932216 *  0.945089 *  0.170819 *   1.33043    1.000000    
     67 O2    c    0.339375 *  0.580339 *  0.333741 *   0.87073    1.000000    
     68 O2    c    0.419218 *  0.759459 *  0.665761 *   0.87073    1.000000    
     69 O2    c    0.222047 *  0.657449 *  0.997146 *   0.87073    1.000000    
     70 O2    c    0.661117 *  0.423906 *  0.829401 *   0.87073    1.000000    
     71 O2    c    0.581650 *  0.238855 *  0.167959 *   0.87073    1.000000    
     72 O2    c    0.759978 *  0.340904 *  0.499679 *   0.87073    1.000000    
     73 O3    c    0.577902 *  0.328911 *  0.001410 *   1.33043    1.000000    
     74 O2    c    0.760689 *  0.419491 *  0.665354 *   0.87073    1.000000    
     75 O2    c    0.656446 *  0.237777 *  0.334797 *   0.87073    1.000000    
     76 O2    c    0.420108 *  0.659240 *  0.500460 *   0.87073    1.000000    
     77 O2    c    0.240833 *  0.580662 *  0.165963 *   0.87073    1.000000    
     78 O2    c    0.343878 *  0.764256 *  0.831696 *   0.87073    1.000000    
     79 O2    c    0.120130 *  0.219091 *  0.969335 *   0.87073    1.000000    
     80 O2    c    0.783382 *  0.911993 *  0.308409 *   0.87073    1.000000    
     81 O2    c    0.086927 *  0.874226 *  0.638751 *   0.87073    1.000000    
     82 O2    c    0.875322 *  0.787534 *  0.472632 *   0.87073    1.000000    
     83 O2    c    0.213180 *  0.087357 *  0.803748 *   0.87073    1.000000    
     84 O2    c    0.912165 *  0.131937 *  0.141032 *   0.87073    1.000000    
     85 O2    c    0.212454 *  0.126023 *  0.361818 *   0.87073    1.000000    
     86 O3    c    0.904466 *  0.777900 *  0.025443 *   1.33043    1.000000    
     87 O2    c    0.873894 *  0.086767 *  0.692531 *   0.87073    1.000000    
     88 O2    c    0.787012 *  0.878762 *  0.855876 *   0.87073    1.000000    
     89 O2    c    0.086956 *  0.212800 *  0.527227 *   0.87073    1.000000    
     90 O3    c    0.136545 *  0.915020 *  0.191536 *   1.33043    1.000000    
     91 O3    c    0.940890 *  0.869197 *  0.256240 *   1.33043    1.000000    
     92 O2    c    0.137390 *  0.070440 *  0.583457 *   0.87073    1.000000    
     93 O2    c    0.926342 *  0.070778 *  0.914384 *   0.87073    1.000000    
     94 O2    c    0.067377 *  0.138606 *  0.748995 *   0.87073    1.000000    
     95 O3    c    0.874012 *  0.939636 *  0.086644 *   1.33043    1.000000    
     96 O2    c    0.076987 *  0.933044 *  0.418786 *   0.87073    1.000000    
     97 O2    c    0.894456 *  0.199241 *  0.979725 *   0.87073    1.000000    
     98 O2    c    0.792707 *  0.698159 *  0.314469 *   0.87073    1.000000    
     99 O2    c    0.301392 *  0.096424 *  0.645259 *   0.87073    1.000000    
    100 O2    c    0.097175 *  0.794400 *  0.480490 *   0.87073    1.000000    
    101 O2    c    0.208874 *  0.303022 *  0.811068 *   0.87073    1.000000    
    102 O2    c    0.700224 *  0.903341 *  0.147537 *   0.87073    1.000000    
    103 O2    c    0.200401 *  0.901801 *  0.352403 *   0.87073    1.000000    
    104 O1    c    0.685752 *  0.808068 *  0.019632 *   1.73396    1.000000    
    105 O2    c    0.096462 *  0.301377 *  0.686163 *   0.87073    1.000000    
    106 O2    c    0.798624 *  0.102921 *  0.850754 *   0.87073    1.000000    
    107 O2    c    0.301490 *  0.205351 *  0.520716 *   0.87073    1.000000    
    108 O3    c    0.896809 *  0.690841 *  0.187766 *   1.33043    1.000000    
    109 O2    c    0.323142 *  0.644456 *  0.250070 *   0.87073    1.000000    
    110 O2    c    0.353186 *  0.676026 *  0.583252 *   0.87073    1.000000    
    111 O2    c    0.319629 *  0.674652 *  0.914590 *   0.87073    1.000000    
    112 O2    c    0.677439 *  0.353598 *  0.747799 *   0.87073    1.000000    
    113 O2    c    0.644411 *  0.321635 *  0.084617 *   0.87073    1.000000    
    114 O2    c    0.675338 *  0.323327 *  0.417277 *   0.87073    1.000000    
    115 O3    c    0.364519 *  0.324590 *  0.969878 *   1.33043    1.000000    
    116 O2    c    0.667169 *  0.042880 *  0.305791 *   0.87073    1.000000    
    117 O2    c    0.955813 *  0.625705 *  0.637322 *   0.87073    1.000000    
    118 O2    c    0.626143 *  0.671086 *  0.471585 *   0.87073    1.000000    
    119 O2    c    0.331860 *  0.958057 *  0.802975 *   0.87073    1.000000    
    120 O2    c    0.045334 *  0.378230 *  0.136864 *   0.87073    1.000000    
    121 O2    c    0.328357 *  0.374725 *  0.363484 *   0.87073    1.000000    
    122 O2    c    0.037051 *  0.666757 *  0.030228 *   0.87073    1.000000    
    123 O2    c    0.625229 *  0.954408 *  0.694699 *   0.87073    1.000000    
    124 O2    c    0.674387 *  0.629096 *  0.862586 *   0.87073    1.000000    
    125 O2    c    0.955120 *  0.329288 *  0.528749 *   0.87073    1.000000    
    126 O2    c    0.379775 *  0.045283 *  0.196738 *   0.87073    1.000000    
    127 O2    c    0.769125 *  0.301149 *  0.011956 *   0.87073    1.000000    
    128 O2    c    0.693954 *  0.466723 *  0.344807 *   0.87073    1.000000    
    129 O2    c    0.532000 *  0.227815 *  0.675823 *   0.87073    1.000000    
    130 O2    c    0.228604 *  0.695230 *  0.510894 *   0.87073    1.000000    
    131 O2    c    0.309195 *  0.535820 *  0.843415 *   0.87073    1.000000    
    132 O2    c    0.470630 *  0.769720 *  0.178332 *   0.87073    1.000000    
    133 O2    c    0.301587 *  0.770834 *  0.322351 *   0.87073    1.000000    
    134 O3    c    0.452604 *  0.705740 *  0.989292 *   1.33043    1.000000    
    135 O2    c    0.227929 *  0.532056 *  0.655834 *   0.87073    1.000000    
    136 O2    c    0.694839 *  0.230031 *  0.820897 *   0.87073    1.000000    
    137 O2    c    0.532147 *  0.304886 *  0.490063 *   0.87073    1.000000    
    138 O2    c    0.771401 *  0.466454 *  0.156438 *   0.87073    1.000000    
    139 O2    c    0.779051 *  0.530681 *  0.028590 *   0.87073    1.000000    
    140 O2    c    0.463223 *  0.251160 *  0.362156 *   0.87073    1.000000    
    141 O2    c    0.747583 *  0.212400 *  0.692422 *   0.87073    1.000000    
    142 O2    c    0.213477 *  0.464242 *  0.527839 *   0.87073    1.000000    
    143 O2    c    0.534046 *  0.745448 *  0.864475 *   0.87073    1.000000    
    144 O2    c    0.255008 *  0.785091 *  0.194250 *   0.87073    1.000000    
    145 O2    c    0.532887 *  0.784211 *  0.306292 *   0.87073    1.000000    
    146 O2    c    0.254926 *  0.470759 *  0.970279 *   0.87073    1.000000    
    147 O2    c    0.214243 *  0.749598 *  0.638890 *   0.87073    1.000000    
    148 O2    c    0.464797 *  0.217424 *  0.803097 *   0.87073    1.000000    
    149 O2    c    0.749474 *  0.535997 *  0.472905 *   0.87073    1.000000    
    150 O2    c    0.785701 *  0.251860 *  0.138703 *   0.87073    1.000000    
    151 O2    c    0.240474 *  0.333525 *  0.896880 *   0.87073    1.000000    
    152 O2    c    0.677319 *  0.907537 *  0.233070 *   0.87073    1.000000    
    153 O2    c    0.090757 *  0.766618 *  0.564880 *   0.87073    1.000000    
    154 O2    c    0.765988 *  0.676464 *  0.398903 *   0.87073    1.000000    
    155 O2    c    0.322831 *  0.089262 *  0.729699 *   0.87073    1.000000    
    156 O2    c    0.907938 *  0.230706 *  0.065056 *   0.87073    1.000000    
    157 O2    c    0.322422 *  0.233900 *  0.436024 *   0.87073    1.000000    
    158 O2    c    0.903665 *  0.677245 *  0.102555 *   0.87073    1.000000    
    159 O2    c    0.768126 *  0.093124 *  0.766550 *   0.87073    1.000000    
    160 O3    c    0.693496 *  0.782194 *  0.933034 *   1.33043    1.000000    
    161 O2    c    0.089339 *  0.322525 *  0.601449 *   0.87073    1.000000    
    162 O2    c    0.230726 *  0.906861 *  0.267661 *   0.87073    1.000000    
    163 O1    c    0.596798 *  0.560881 *  0.998584 *   1.73396    1.000000    
    164 O2    c    0.438320 *  0.029732 *  0.323823 *   0.87073    1.000000    
    165 O2    c    0.969694 *  0.411676 *  0.657019 *   0.87073    1.000000    
    166 O2    c    0.412229 *  0.443046 *  0.491423 *   0.87073    1.000000    
    167 O2    c    0.560489 *  0.971164 *  0.822160 *   0.87073    1.000000    
    168 O2    c    0.032281 *  0.593118 *  0.156326 *   0.87073    1.000000    
    169 O2    c    0.556090 *  0.586772 *  0.343537 *   0.87073    1.000000    
    170 O2    c    0.026566 *  0.437451 *  0.009815 *   0.87073    1.000000    
    171 O2    c    0.412858 *  0.970029 *  0.674496 *   0.87073    1.000000    
    172 O2    c    0.446494 *  0.420621 *  0.844607 *   0.87073    1.000000    
    173 O2    c    0.970890 *  0.557215 *  0.509268 *   0.87073    1.000000    
    174 O2    c    0.591707 *  0.029683 *  0.177695 *   0.87073    1.000000    
    175 O2    c    0.585973 *  0.167203 *  0.251292 *   0.87073    1.000000    
    176 O2    c    0.834216 *  0.416698 *  0.582736 *   0.87073    1.000000    
    177 O3    c    0.591529 *  0.418330 *  0.913733 *   1.33043    1.000000    
    178 O2    c    0.416516 *  0.834178 *  0.748505 *   0.87073    1.000000    
    179 O2    c    0.166683 *  0.584810 *  0.082469 *   0.87073    1.000000    
    180 O2    c    0.416736 *  0.583989 *  0.417289 *   0.87073    1.000000    
    181 F     c    0.453166 *  0.904262 *  0.250958 *   0.56000    1.000000    
    182 F     c    0.095190 *  0.547439 *  0.583962 *   0.56000    1.000000    
    183 F     c    0.483008 *  0.563483 *  0.928639 *   0.56000    1.000000    
    184 F     c    0.546400 *  0.094428 *  0.749208 *   0.56000    1.000000    
    185 F     c    0.906643 *  0.455255 *  0.083587 *   0.56000    1.000000    
    186 F     c    0.547242 *  0.453357 *  0.418028 *   0.56000    1.000000    
    187 O3    s    0.935163 *  0.008941 *  0.996366 *  -3.33043    1.000000    
    188 O2    s    0.994907 *  0.925795 *  0.338531 *  -2.87073    1.000000    
    189 O2    s    0.075072 *  0.074656 *  0.666330 *  -2.87073    1.000000    
    190 O2    s    0.074727 *  0.999174 *  0.501077 *  -2.87073    1.000000    
    191 O2    s    0.003474 *  0.079205 *  0.832088 *  -2.87073    1.000000    
    192 O3    s    0.927620 *  0.940270 *  0.169804 *  -3.33043    1.000000    
    193 O2    s    0.350976 *  0.587615 *  0.333723 *  -2.87073    1.000000    
    194 O2    s    0.411762 *  0.763990 *  0.665765 *  -2.87073    1.000000    
    195 O2    s    0.219974 *  0.646138 *  0.997493 *  -2.87073    1.000000    
    196 O2    s    0.649689 *  0.415877 *  0.829760 *  -2.87073    1.000000    
    197 O2    s    0.589218 *  0.234669 *  0.167845 *  -2.87073    1.000000    
    198 O2    s    0.764381 *  0.352686 *  0.499735 *  -2.87073    1.000000    
    199 O3    s    0.586486 *  0.340417 *  0.002134 *  -3.33043    1.000000    
    200 O2    s    0.764831 *  0.411834 *  0.665441 *  -2.87073    1.000000    
    201 O2    s    0.644787 *  0.233812 *  0.334779 *  -2.87073    1.000000    
    202 O2    s    0.412452 *  0.647456 *  0.500493 *  -2.87073    1.000000    
    203 O2    s    0.236864 *  0.588338 *  0.166129 *  -2.87073    1.000000    
    204 O2    s    0.355284 *  0.768095 *  0.831897 *  -2.87073    1.000000    
    205 O2    s    0.118032 *  0.222287 *  0.966956 *  -2.87073    1.000000    
    206 O2    s    0.780151 *  0.905441 *  0.305793 *  -2.87073    1.000000    
    207 O2    s    0.093706 *  0.877543 *  0.636200 *  -2.87073    1.000000    
    208 O2    s    0.878551 *  0.784008 *  0.470190 *  -2.87073    1.000000    
    209 O2    s    0.216642 *  0.094278 *  0.801247 *  -2.87073    1.000000    
    210 O2    s    0.905977 *  0.129036 *  0.138160 *  -2.87073    1.000000    
    211 O2    s    0.215931 *  0.122913 *  0.364455 *  -2.87073    1.000000    
    212 O3    s    0.899570 *  0.773299 *  0.028265 *  -3.33043    1.000000    
    213 O2    s    0.877169 *  0.093562 *  0.695142 *  -2.87073    1.000000    
    214 O2    s    0.784673 *  0.882368 *  0.859072 *  -2.87073    1.000000    
    215 O2    s    0.093697 *  0.216347 *  0.529858 *  -2.87073    1.000000    
    216 O3    s    0.135411 *  0.909584 *  0.194491 *  -3.33043    1.000000    
    217 O3    s    0.936685 *  0.865643 *  0.256716 *  -3.33043    1.000000    
    218 O2    s    0.140294 *  0.071476 *  0.583472 *  -2.87073    1.000000    
    219 O2    s    0.925399 *  0.071973 *  0.914094 *  -2.87073    1.000000    
    220 O2    s    0.069279 *  0.141341 *  0.749006 *  -2.87073    1.000000    
    221 O3    s    0.868942 *  0.938818 *  0.087441 *  -3.33043    1.000000    
    222 O2    s    0.076566 *  0.931080 *  0.418683 *  -2.87073    1.000000    
    223 O2    s    0.902714 *  0.201277 *  0.982206 *  -2.87073    1.000000    
    224 O2    s    0.791349 *  0.704036 *  0.317297 *  -2.87073    1.000000    
    225 O2    s    0.295276 *  0.088984 *  0.647944 *  -2.87073    1.000000    
    226 O2    s    0.089789 *  0.793070 *  0.483134 *  -2.87073    1.000000    
    227 O2    s    0.209998 *  0.297389 *  0.813862 *  -2.87073    1.000000    
    228 O2    s    0.705838 *  0.910945 *  0.150305 *  -2.87073    1.000000    
    229 O2    s    0.202150 *  0.909467 *  0.350139 *  -2.87073    1.000000    
    230 O1    s    0.693432 *  0.807108 *  0.018140 *  -3.73396    1.000000    
    231 O2    s    0.088964 *  0.295042 *  0.683569 *  -2.87073    1.000000    
    232 O2    s    0.796765 *  0.094959 *  0.848164 *  -2.87073    1.000000    
    233 O2    s    0.295212 *  0.206510 *  0.518130 *  -2.87073    1.000000    
    234 O3    s    0.903902 *  0.695659 *  0.185081 *  -3.33043    1.000000    
    235 O2    s    0.328959 *  0.656064 *  0.250100 *  -2.87073    1.000000    
    236 O2    s    0.341452 *  0.670161 *  0.583234 *  -2.87073    1.000000    
    237 O2    s    0.325374 *  0.670444 *  0.914489 *  -2.87073    1.000000    
    238 O2    s    0.671449 *  0.341959 *  0.747787 *  -2.87073    1.000000    
    239 O2    s    0.655897 *  0.327197 *  0.084770 *  -2.87073    1.000000    
    240 O2    s    0.669515 *  0.329205 *  0.417319 *  -2.87073    1.000000    
    241 O3    s    0.365431 *  0.333561 *  0.967884 *  -3.33043    1.000000    
    242 O2    s    0.657324 *  0.036239 *  0.303463 *  -2.87073    1.000000    
    243 O2    s    0.962509 *  0.622398 *  0.635039 *  -2.87073    1.000000    
    244 O2    s    0.622844 *  0.661061 *  0.469300 *  -2.87073    1.000000    
    245 O2    s    0.341689 *  0.964597 *  0.800603 *  -2.87073    1.000000    
    246 O2    s    0.038617 *  0.381455 *  0.134673 *  -2.87073    1.000000    
    247 O2    s    0.338290 *  0.378014 *  0.365663 *  -2.87073    1.000000    
    248 O2    s    0.030514 *  0.656530 *  0.032351 *  -2.87073    1.000000    
    249 O2    s    0.622108 *  0.961352 *  0.696858 *  -2.87073    1.000000    
    250 O2    s    0.665227 *  0.626023 *  0.864626 *  -2.87073    1.000000    
    251 O2    s    0.961813 *  0.339238 *  0.530989 *  -2.87073    1.000000    
    252 O2    s    0.383198 *  0.038538 *  0.198880 *  -2.87073    1.000000    
    253 O2    s    0.776514 *  0.308464 *  0.014947 *  -2.87073    1.000000    
    254 O2    s    0.686376 *  0.466174 *  0.347922 *  -2.87073    1.000000    
    255 O2    s    0.532738 *  0.220864 *  0.678879 *  -2.87073    1.000000    
    256 O2    s    0.221618 *  0.687623 *  0.513968 *  -2.87073    1.000000    
    257 O2    s    0.316003 *  0.536312 *  0.846303 *  -2.87073    1.000000    
    258 O2    s    0.469771 *  0.776696 *  0.181370 *  -2.87073    1.000000    
    259 O2    s    0.309142 *  0.777621 *  0.319288 *  -2.87073    1.000000    
    260 O3    s    0.448393 *  0.696287 *  0.986065 *  -3.33043    1.000000    
    261 O2    s    0.220800 *  0.532530 *  0.652665 *  -2.87073    1.000000    
    262 O2    s    0.687587 *  0.223140 *  0.817664 *  -2.87073    1.000000    
    263 O2    s    0.532690 *  0.312435 *  0.486938 *  -2.87073    1.000000    
    264 O2    s    0.778007 *  0.465554 *  0.153227 *  -2.87073    1.000000    
    265 O2    s    0.783952 *  0.527623 *  0.031122 *  -2.87073    1.000000    
    266 O2    s    0.465962 *  0.259027 *  0.364764 *  -2.87073    1.000000    
    267 O2    s    0.740075 *  0.207533 *  0.695068 *  -2.87073    1.000000    
    268 O2    s    0.208376 *  0.466958 *  0.530415 *  -2.87073    1.000000    
    269 O2    s    0.531216 *  0.739247 *  0.866175 *  -2.87073    1.000000    
    270 O2    s    0.262913 *  0.790100 *  0.196870 *  -2.87073    1.000000    
    271 O2    s    0.530139 *  0.789434 *  0.303687 *  -2.87073    1.000000    
    272 O2    s    0.260677 *  0.472848 *  0.967929 *  -2.87073    1.000000    
    273 O2    s    0.208901 *  0.741585 *  0.636220 *  -2.87073    1.000000    
    274 O2    s    0.467413 *  0.211831 *  0.800550 *  -2.87073    1.000000    
    275 O2    s    0.741511 *  0.533222 *  0.470265 *  -2.87073    1.000000    
    276 O2    s    0.790730 *  0.259919 *  0.136163 *  -2.87073    1.000000    
    277 O2    s    0.248477 *  0.341687 *  0.897385 *  -2.87073    1.000000    
    278 O2    s    0.667800 *  0.907479 *  0.233905 *  -2.87073    1.000000    
    279 O2    s    0.090967 *  0.757246 *  0.565802 *  -2.87073    1.000000    
    280 O2    s    0.756651 *  0.666889 *  0.399847 *  -2.87073    1.000000    
    281 O2    s    0.332535 *  0.089778 *  0.730662 *  -2.87073    1.000000    
    282 O2    s    0.907661 *  0.240209 *  0.065879 *  -2.87073    1.000000    
    283 O2    s    0.332077 *  0.243251 *  0.435171 *  -2.87073    1.000000    
    284 O2    s    0.903759 *  0.667801 *  0.101669 *  -2.87073    1.000000    
    285 O2    s    0.758660 *  0.093073 *  0.765619 *  -2.87073    1.000000    
    286 O3    s    0.683777 *  0.773094 *  0.930664 *  -3.33043    1.000000    
    287 O2    s    0.089673 *  0.332219 *  0.600605 *  -2.87073    1.000000    
    288 O2    s    0.240511 *  0.907036 *  0.267008 *  -2.87073    1.000000    
    289 O1    s    0.591032 *  0.559666 *  0.994765 *  -3.73396    1.000000    
    290 O2    s    0.438300 *  0.024677 *  0.320552 *  -2.87073    1.000000    
    291 O2    s    0.974679 *  0.416351 *  0.653607 *  -2.87073    1.000000    
    292 O2    s    0.416855 *  0.442627 *  0.488021 *  -2.87073    1.000000    
    293 O2    s    0.560346 *  0.976218 *  0.818772 *  -2.87073    1.000000    
    294 O2    s    0.027141 *  0.587707 *  0.153106 *  -2.87073    1.000000    
    295 O2    s    0.556258 *  0.582299 *  0.346887 *  -2.87073    1.000000    
    296 O2    s    0.021103 *  0.437380 *  0.013138 *  -2.87073    1.000000    
    297 O2    s    0.417327 *  0.974905 *  0.677883 *  -2.87073    1.000000    
    298 O2    s    0.445589 *  0.423827 *  0.847250 *  -2.87073    1.000000    
    299 O2    s    0.975624 *  0.557446 *  0.512632 *  -2.87073    1.000000    
    300 O2    s    0.586946 *  0.024873 *  0.180991 *  -2.87073    1.000000    
    301 O2    s    0.580172 *  0.156061 *  0.251262 *  -2.87073    1.000000    
    302 O2    s    0.845129 *  0.422185 *  0.582769 *  -2.87073    1.000000    
    303 O3    s    0.587082 *  0.424013 *  0.912755 *  -3.33043    1.000000    
    304 O2    s    0.422204 *  0.845295 *  0.748584 *  -2.87073    1.000000    
    305 O2    s    0.155237 *  0.579188 *  0.082607 *  -2.87073    1.000000    
    306 O2    s    0.422099 *  0.578485 *  0.417254 *  -2.87073    1.000000    
    307 F     s    0.452988 *  0.903901 *  0.250995 *  -1.56000    1.000000    
    308 F     s    0.095614 *  0.547673 *  0.584071 *  -1.56000    1.000000    
    309 F     s    0.488239 *  0.567417 *  0.931130 *  -1.56000    1.000000    
    310 F     s    0.546440 *  0.094668 *  0.749325 *  -1.56000    1.000000    
    311 F     s    0.906716 *  0.455403 *  0.083581 *  -1.56000    1.000000    
    312 F     s    0.547505 *  0.453210 *  0.418100 *  -1.56000    1.000000    
--------------------------------------------------------------------------------



********************************************************************************
*  General input information                                                   *
********************************************************************************

  Species output for all configurations : 

--------------------------------------------------------------------------------
  Species    Type    Atomic    Atomic    Charge       Radii (Angs)     Library
                     Number     Mass       (e)     Cova   Ionic  VDW   Symbol
--------------------------------------------------------------------------------
    Si       Core       14      28.09   4.000000   1.200  0.000  2.100          
    O1       Core        8      16.00   1.733957   0.730  0.000  1.360          
    O1       Shell       8       0.00  -3.733957   0.730  0.000  1.360          
    O2       Core        8      16.00   0.870733   0.730  0.000  1.360          
    O2       Shell       8       0.00  -2.870733   0.730  0.000  1.360          
    O3       Core        8      16.00   1.330431   0.730  0.000  1.360          
    O3       Shell       8       0.00  -3.330431   0.730  0.000  1.360          
    F        Core        9      19.00   0.560000   0.710  0.000  1.300          
    F        Shell       9       0.00  -1.560000   0.710  0.000  1.300          
    Ge       Core       32      72.61   4.000000   1.170  0.000  1.750          
--------------------------------------------------------------------------------


  Lattice summation method               =    Ewald          (3-D)
                                         =    Parry          (2-D)
                                         =    Saunders et al (1-D)
  Accuracy factor for lattice sums       =   12.000


  Time limit = Infinity

  Maximum range for interatomic potentials =        16.000000 Angstroms

  Taper potentials to zero over   1.0000 Angstroms using polynomial

  General interatomic potentials :

--------------------------------------------------------------------------------
Atom  Types   Potential         A         B         C         D     Cutoffs(Ang)
  1     2                                                            Min    Max 
--------------------------------------------------------------------------------
Si   c O1   s Buckingham    0.132E+04 0.318      10.1      0.00     0.000 16.000
Si   c O2   s Buckingham    0.132E+04 0.318      10.1      0.00     0.000 16.000
Si   c O3   s Buckingham    0.132E+04 0.318      10.1      0.00     0.000 16.000
Ge   c O1   s Buckingham    0.150E+04 0.326      16.8      0.00     0.000 16.000
Ge   c O2   s Buckingham    0.150E+04 0.326      16.8      0.00     0.000 16.000
Ge   c O3   s Buckingham    0.150E+04 0.326      16.8      0.00     0.000 16.000
O1   s O1   s Buckingham    0.228E+05 0.149      10.9      0.00     0.000 16.000
O1   s O2   s Buckingham    0.228E+05 0.149      10.9      0.00     0.000 16.000
O1   s O3   s Buckingham    0.228E+05 0.149      10.9      0.00     0.000 16.000
O2   s O2   s Buckingham    0.228E+05 0.149      10.9      0.00     0.000 16.000
O2   s O3   s Buckingham    0.228E+05 0.149      10.9      0.00     0.000 16.000
O3   s O3   s Buckingham    0.228E+05 0.149      10.9      0.00     0.000 16.000
Si   c F    s Buckingham     977.     0.282      0.00      0.00     0.000 16.000
Ge   c F    s Buckingham     681.     0.320      0.00      0.00     0.000 16.000
F    s F    s Buckingham     540.     0.262      0.00      0.00     0.000 16.000
O1   s F    s Buckingham    0.168E+04 0.268      0.00      0.00     0.000 16.000
O2   s F    s Buckingham    0.168E+04 0.268      0.00      0.00     0.000 16.000
O3   s F    s Buckingham    0.168E+04 0.268      0.00      0.00     0.000 16.000
O2   c O2   s Spring (c-s)   76.0      0.00      0.00      0.00     0.000  0.800
O3   c O3   s Spring (c-s)   128.      0.00      0.00      0.00     0.000  0.800
O1   c O1   s Spring (c-s)   180.      0.00      0.00      0.00     0.000  0.800
F    c F    s Spring (c-s)   33.5      0.00      0.00      0.00     0.000  0.800
--------------------------------------------------------------------------------

  General Three-body potentials :

  Harmonic form:

--------------------------------------------------------------------------------
Atom    Atom    Atom           Force Constants            Theta     Cutoffs  
  1       2       3     (eVrad**-2/eVrad**-3/eVrad**-4)   (deg)  1-2  1-3  2-3
--------------------------------------------------------------------------------
Si    c O1    s O1    s  1.261        0.0000    0.0000   109.470 0.00 0.00 0.00
                                                                 1.90 1.90 3.50
Si    c O1    s O2    s  1.261        0.0000    0.0000   109.470 0.00 0.00 0.00
                                                                 1.90 1.90 3.50
Si    c O2    s O2    s  1.261        0.0000    0.0000   109.470 0.00 0.00 0.00
                                                                 1.90 1.90 3.50
--------------------------------------------------------------------------------

********************************************************************************
*  Output for configuration   1                                                *
********************************************************************************


  Components of energy : 

--------------------------------------------------------------------------------
  Interatomic potentials     =        2058.90642538 eV
  Three-body potentials      =           0.46496082 eV
  Monopole - monopole (real) =       -6581.93321981 eV
  Monopole - monopole (recip)=       -3189.86561690 eV
  Monopole - monopole (total)=       -9771.79883671 eV
  Neutralising energy        =          -6.44898647 eV
--------------------------------------------------------------------------------
  Total lattice energy       =       -7718.87643698 eV
--------------------------------------------------------------------------------
  Total lattice energy       =         -744753.5823 kJ/(mole unit cells)
--------------------------------------------------------------------------------


  Number of variables =      939

  Maximum number of calculations  =          1000
  Maximum Hessian update interval =            10
  Maximum step size               =   0.010000000
  Maximum parameter tolerance     =   0.000010000
  Maximum function  tolerance     =   0.000010000
  Maximum gradient  tolerance     =   0.001000000
  Maximum gradient  component     =   0.010000000

  Symmetry not applied to optimisation

  Cell parameters to be optimised using strains

  RFO method to be used

  DFP hessian update to be used

  Dumpfile to be written after every cycle

  Start of bulk optimisation :

  Cycle:      0 Energy:     -7718.876437  Gnorm:      0.003808  CPU:    1.050
  ** Hessian has required structure
  Cycle:      1 Energy:     -7718.879439  Gnorm:      0.003776  CPU:    4.131
  ** Hessian has required structure
  Cycle:      2 Energy:     -7718.884440  Gnorm:      0.003707  CPU:    7.540
  ** Hessian has required structure
  Cycle:      3 Energy:     -7718.891893  Gnorm:      0.003581  CPU:   10.950
  ** Hessian has required structure
  Cycle:      4 Energy:     -7718.900690  Gnorm:      0.003415  CPU:   14.029
  ** Hessian has required structure
  Cycle:      5 Energy:     -7718.910879  Gnorm:      0.003210  CPU:   17.110
  ** Hessian has required structure
  Cycle:      6 Energy:     -7718.919631  Gnorm:      0.003028  CPU:   20.190
  ** Hessian has required structure
  Cycle:      7 Energy:     -7718.927319  Gnorm:      0.002864  CPU:   23.272
  ** Hessian has required structure
  Cycle:      8 Energy:     -7718.934189  Gnorm:      0.002713  CPU:   26.352
  ** Hessian has required structure
  Cycle:      9 Energy:     -7718.940374  Gnorm:      0.002574  CPU:   29.432
  ** Hessian has required structure
  Cycle:     10 Energy:     -7718.945964  Gnorm:      0.002442  CPU:   32.511
  ** Hessian has required structure
  Cycle:     11 Energy:     -7718.950999  Gnorm:      0.002321  CPU:   36.252
  ** Hessian has required structure
  Cycle:     12 Energy:     -7718.955594  Gnorm:      0.002208  CPU:   39.332
  ** Hessian has required structure
  Cycle:     13 Energy:     -7718.959763  Gnorm:      0.002100  CPU:   42.414
  ** Hessian has required structure
  Cycle:     14 Energy:     -7718.963548  Gnorm:      0.001999  CPU:   45.496
  ** Hessian has required structure
  Cycle:     15 Energy:     -7718.966983  Gnorm:      0.001903  CPU:   48.578
  ** Hessian has required structure
  Cycle:     16 Energy:     -7718.970101  Gnorm:      0.001812  CPU:   51.658
  ** Hessian has required structure
  Cycle:     17 Energy:     -7718.972932  Gnorm:      0.001726  CPU:   54.741
  ** Hessian has required structure
  Cycle:     18 Energy:     -7718.975500  Gnorm:      0.001644  CPU:   57.880
  ** Hessian has required structure
  Cycle:     19 Energy:     -7718.977830  Gnorm:      0.001566  CPU:   60.962
  ** Hessian has required structure
  Cycle:     20 Energy:     -7718.979944  Gnorm:      0.001492  CPU:   64.044
  ** Hessian has required structure
  Cycle:     21 Energy:     -7718.981858  Gnorm:      0.001420  CPU:   67.784
  ** Hessian has required structure
  Cycle:     22 Energy:     -7718.983596  Gnorm:      0.001353  CPU:   70.865
  ** Hessian has required structure
  Cycle:     23 Energy:     -7718.985170  Gnorm:      0.001290  CPU:   73.944
  ** Hessian has required structure
  Cycle:     24 Energy:     -7718.986597  Gnorm:      0.001229  CPU:   77.025
  ** Hessian has required structure
  Cycle:     25 Energy:     -7718.987889  Gnorm:      0.001172  CPU:   80.106
  ** Hessian has required structure
  Cycle:     26 Energy:     -7718.989059  Gnorm:      0.001117  CPU:   83.187
  ** Hessian has required structure
  Cycle:     27 Energy:     -7718.990118  Gnorm:      0.001064  CPU:   86.267
  ** Hessian has required structure
  Cycle:     28 Energy:     -7718.991076  Gnorm:      0.001014  CPU:   89.348
  ** Hessian has required structure
  Cycle:     29 Energy:     -7718.991943  Gnorm:      0.000966  CPU:   92.428
  ** Hessian has required structure
  Cycle:     30 Energy:     -7718.992728  Gnorm:      0.000921  CPU:   95.508
  ** Hessian has required structure
  Cycle:     31 Energy:     -7718.993437  Gnorm:      0.000876  CPU:   99.246
  ** Hessian has required structure
  Cycle:     32 Energy:     -7718.994079  Gnorm:      0.000835  CPU:  102.322
  ** Hessian has required structure
  Cycle:     33 Energy:     -7718.994659  Gnorm:      0.000795  CPU:  105.406
  ** Hessian has required structure
  Cycle:     34 Energy:     -7718.995183  Gnorm:      0.000757  CPU:  108.485
  ** Hessian has required structure
  Cycle:     35 Energy:     -7718.995657  Gnorm:      0.000721  CPU:  111.563
  ** Hessian has required structure
  Cycle:     36 Energy:     -7718.996085  Gnorm:      0.000687  CPU:  114.642
  ** Hessian has required structure
  Cycle:     37 Energy:     -7718.996472  Gnorm:      0.000654  CPU:  117.719
  ** Hessian has required structure
  Cycle:     38 Energy:     -7718.996822  Gnorm:      0.000623  CPU:  120.795
  ** Hessian has required structure
  Cycle:     39 Energy:     -7718.997138  Gnorm:      0.000593  CPU:  123.872
  ** Hessian has required structure
  Cycle:     40 Energy:     -7718.997423  Gnorm:      0.000565  CPU:  126.950
  ** Hessian has required structure
  Cycle:     41 Energy:     -7718.997681  Gnorm:      0.000537  CPU:  130.687
  ** Hessian has required structure
  Cycle:     42 Energy:     -7718.997914  Gnorm:      0.000511  CPU:  133.765
  ** Hessian has required structure
  Cycle:     43 Energy:     -7718.998124  Gnorm:      0.000487  CPU:  136.842
  ** Hessian has required structure
  Cycle:     44 Energy:     -7718.998314  Gnorm:      0.000463  CPU:  139.918
  ** Hessian has required structure
  Cycle:     45 Energy:     -7718.998485  Gnorm:      0.000441  CPU:  142.993
  ** Hessian has required structure
  Cycle:     46 Energy:     -7718.998640  Gnorm:      0.000420  CPU:  146.068
  ** Hessian has required structure
  Cycle:     47 Energy:     -7718.998780  Gnorm:      0.000399  CPU:  149.144
  ** Hessian has required structure
  Cycle:     48 Energy:     -7718.998906  Gnorm:      0.000380  CPU:  152.222
  ** Hessian has required structure
  Cycle:     49 Energy:     -7718.999020  Gnorm:      0.000362  CPU:  155.296
  ** Hessian has required structure
  Cycle:     50 Energy:     -7718.999123  Gnorm:      0.000344  CPU:  158.374
  ** Hessian has required structure
  Cycle:     51 Energy:     -7718.999216  Gnorm:      0.000327  CPU:  162.110
  ** Hessian has required structure
  Cycle:     52 Energy:     -7718.999300  Gnorm:      0.000311  CPU:  165.187
  ** Hessian has required structure
  Cycle:     53 Energy:     -7718.999376  Gnorm:      0.000296  CPU:  168.265
  ** Hessian has required structure
  Cycle:     54 Energy:     -7718.999444  Gnorm:      0.000281  CPU:  171.342
  ** Hessian has required structure
  Cycle:     55 Energy:     -7718.999506  Gnorm:      0.000268  CPU:  174.418
  ** Hessian has required structure
  Cycle:     56 Energy:     -7718.999561  Gnorm:      0.000255  CPU:  177.497
  ** Hessian has required structure
  Cycle:     57 Energy:     -7718.999602  Gnorm:      0.000245  CPU:  180.246
  ** Hessian has required structure
  Cycle:     58 Energy:     -7718.999630  Gnorm:      0.000237  CPU:  182.667
  ** Hessian has required structure
  Cycle:     59 Energy:     -7718.999652  Gnorm:      0.000231  CPU:  185.226
  ** Hessian has required structure
  Cycle:     60 Energy:     -7718.999672  Gnorm:      0.000226  CPU:  187.644
  ** Hessian has required structure
  Cycle:     61 Energy:     -7718.999696  Gnorm:      0.000219  CPU:  190.722
  ** Hessian has required structure
  Cycle:     62 Energy:     -7718.999715  Gnorm:      0.000214  CPU:  193.141
  ** Hessian has required structure
  Cycle:     63 Energy:     -7718.999731  Gnorm:      0.000209  CPU:  195.559
  ** Hessian has required structure
  Cycle:     64 Energy:     -7718.999746  Gnorm:      0.000204  CPU:  197.979
  ** Hessian has required structure
  Cycle:     65 Energy:     -7718.999760  Gnorm:      0.000200  CPU:  200.397
  ** Hessian has required structure
  Cycle:     66 Energy:     -7718.999773  Gnorm:      0.000196  CPU:  202.818
  ** Hessian has required structure
  Cycle:     67 Energy:     -7718.999786  Gnorm:      0.000192  CPU:  205.237
  ** Hessian has required structure
  Cycle:     68 Energy:     -7718.999797  Gnorm:      0.000188  CPU:  207.656
  ** Hessian has required structure
  Cycle:     69 Energy:     -7718.999809  Gnorm:      0.000184  CPU:  210.075
  ** Hessian has required structure
  Cycle:     70 Energy:     -7718.999820  Gnorm:      0.000180  CPU:  212.495
  ** Hessian has required structure
  Cycle:     71 Energy:     -7718.999835  Gnorm:      0.000175  CPU:  215.574
  ** Hessian has required structure
  Cycle:     72 Energy:     -7718.999847  Gnorm:      0.000171  CPU:  217.993
  ** Hessian has required structure
  Cycle:     73 Energy:     -7718.999858  Gnorm:      0.000167  CPU:  220.538
  ** Hessian has required structure
  Cycle:     74 Energy:     -7718.999867  Gnorm:      0.000163  CPU:  222.958
  ** Hessian has required structure
  Cycle:     75 Energy:     -7718.999876  Gnorm:      0.000160  CPU:  225.377
  ** Hessian has required structure
  Cycle:     76 Energy:     -7718.999884  Gnorm:      0.000156  CPU:  227.794
  ** Hessian has required structure
  Cycle:     77 Energy:     -7718.999892  Gnorm:      0.000153  CPU:  230.214
  ** Hessian has required structure
  Cycle:     78 Energy:     -7718.999899  Gnorm:      0.000150  CPU:  232.633
  ** Hessian has required structure
  Cycle:     79 Energy:     -7718.999907  Gnorm:      0.000147  CPU:  235.051
  ** Hessian has required structure
  Cycle:     80 Energy:     -7718.999914  Gnorm:      0.000144  CPU:  237.470
  ** Hessian has required structure
  Cycle:     81 Energy:     -7718.999923  Gnorm:      0.000140  CPU:  240.550
  ** Hessian has required structure
  Cycle:     82 Energy:     -7718.999931  Gnorm:      0.000136  CPU:  242.969
  ** Hessian has required structure
  Cycle:     83 Energy:     -7718.999938  Gnorm:      0.000133  CPU:  245.387
  ** Hessian has required structure
  Cycle:     84 Energy:     -7718.999944  Gnorm:      0.000130  CPU:  247.807
  ** Hessian has required structure
  Cycle:     85 Energy:     -7718.999949  Gnorm:      0.000127  CPU:  250.226
  ** Hessian has required structure
  Cycle:     86 Energy:     -7718.999955  Gnorm:      0.000125  CPU:  252.646
  ** Hessian has required structure
  Cycle:     87 Energy:     -7718.999960  Gnorm:      0.000122  CPU:  255.064
  ** Hessian has required structure
  Cycle:     88 Energy:     -7718.999964  Gnorm:      0.000120  CPU:  257.483
  ** Hessian has required structure
  Cycle:     89 Energy:     -7718.999969  Gnorm:      0.000117  CPU:  259.903
  ** Hessian has required structure
  Cycle:     90 Energy:     -7718.999973  Gnorm:      0.000115  CPU:  262.320
  ** Hessian has required structure
  Cycle:     91 Energy:     -7718.999979  Gnorm:      0.000111  CPU:  265.408
  ** Hessian has required structure
  Cycle:     92 Energy:     -7718.999984  Gnorm:      0.000109  CPU:  267.827
  ** Hessian has required structure
  Cycle:     93 Energy:     -7718.999989  Gnorm:      0.000106  CPU:  270.462
  ** Hessian has required structure
  Cycle:     94 Energy:     -7718.999992  Gnorm:      0.000104  CPU:  272.936
  ** Hessian has required structure
  Cycle:     95 Energy:     -7718.999996  Gnorm:      0.000102  CPU:  275.503
  ** Hessian has required structure
  Cycle:     96 Energy:     -7718.999999  Gnorm:      0.000100  CPU:  277.920
  ** Hessian has required structure
  Cycle:     97 Energy:     -7719.000003  Gnorm:      0.000097  CPU:  280.337
  ** Hessian has required structure
  Cycle:     98 Energy:     -7719.000006  Gnorm:      0.000095  CPU:  282.757
  ** Hessian has required structure
  Cycle:     99 Energy:     -7719.000008  Gnorm:      0.000094  CPU:  285.174
  ** Hessian has required structure
  Cycle:    100 Energy:     -7719.000011  Gnorm:      0.000092  CPU:  287.593
  ** Hessian has required structure
  Cycle:    101 Energy:     -7719.000015  Gnorm:      0.000089  CPU:  290.670
  ** Hessian has required structure
  Cycle:    102 Energy:     -7719.000018  Gnorm:      0.000087  CPU:  293.088
  ** Hessian has required structure
  Cycle:    103 Energy:     -7719.000021  Gnorm:      0.000085  CPU:  295.674
  ** Hessian has required structure
  Cycle:    104 Energy:     -7719.000023  Gnorm:      0.000083  CPU:  298.106
  ** Hessian has required structure
  Cycle:    105 Energy:     -7719.000026  Gnorm:      0.000081  CPU:  300.715
  ** Hessian has required structure
  Cycle:    106 Energy:     -7719.000028  Gnorm:      0.000079  CPU:  303.135
  ** Hessian has required structure
  Cycle:    107 Energy:     -7719.000030  Gnorm:      0.000078  CPU:  305.718
  ** Hessian has required structure
  Cycle:    108 Energy:     -7719.000032  Gnorm:      0.000076  CPU:  308.136
  ** Hessian has required structure
  Cycle:    109 Energy:     -7719.000034  Gnorm:      0.000075  CPU:  310.697
  ** Hessian has required structure
  Cycle:    110 Energy:     -7719.000035  Gnorm:      0.000073  CPU:  313.131
  ** Hessian has required structure
  Cycle:    111 Energy:     -7719.000038  Gnorm:      0.000071  CPU:  316.208
  ** Hessian has required structure
  Cycle:    112 Energy:     -7719.000040  Gnorm:      0.000069  CPU:  318.627
  ** Hessian has required structure
  Cycle:    113 Energy:     -7719.000042  Gnorm:      0.000067  CPU:  321.046
  ** Hessian has required structure
  Cycle:    114 Energy:     -7719.000043  Gnorm:      0.000066  CPU:  323.464
  ** Hessian has required structure
  Cycle:    115 Energy:     -7719.000045  Gnorm:      0.000065  CPU:  325.883
  ** Hessian has required structure
  Cycle:    116 Energy:     -7719.000046  Gnorm:      0.000063  CPU:  328.302
  ** Hessian has required structure
  Cycle:    117 Energy:     -7719.000047  Gnorm:      0.000062  CPU:  330.720
  ** Hessian has required structure
  Cycle:    118 Energy:     -7719.000048  Gnorm:      0.000061  CPU:  333.211
  ** Hessian has required structure
  Cycle:    119 Energy:     -7719.000050  Gnorm:      0.000059  CPU:  335.630
  ** Hessian has required structure
  Cycle:    120 Energy:     -7719.000051  Gnorm:      0.000058  CPU:  338.048
  ** Hessian has required structure
  Cycle:    121 Energy:     -7719.000052  Gnorm:      0.000056  CPU:  341.124
  ** Hessian has required structure
  Cycle:    122 Energy:     -7719.000054  Gnorm:      0.000055  CPU:  343.542
  ** Hessian has required structure
  Cycle:    123 Energy:     -7719.000055  Gnorm:      0.000054  CPU:  345.961
  ** Hessian has required structure
  Cycle:    124 Energy:     -7719.000056  Gnorm:      0.000053  CPU:  348.380
  ** Hessian has required structure
  Cycle:    125 Energy:     -7719.000056  Gnorm:      0.000052  CPU:  350.798
  ** Hessian has required structure
  Cycle:    126 Energy:     -7719.000057  Gnorm:      0.000050  CPU:  353.217
  ** Hessian has required structure
  Cycle:    127 Energy:     -7719.000058  Gnorm:      0.000049  CPU:  355.771
  ** Hessian has required structure
  Cycle:    128 Energy:     -7719.000059  Gnorm:      0.000048  CPU:  358.202
  ** Hessian has required structure
  Cycle:    129 Energy:     -7719.000060  Gnorm:      0.000047  CPU:  360.622
  ** Hessian has required structure
  Cycle:    130 Energy:     -7719.000060  Gnorm:      0.000046  CPU:  363.040
  ** Hessian has required structure
  Cycle:    131 Energy:     -7719.000061  Gnorm:      0.000045  CPU:  366.118
  ** Hessian has required structure
  Cycle:    132 Energy:     -7719.000062  Gnorm:      0.000044  CPU:  368.535
  ** Hessian has required structure
  Cycle:    133 Energy:     -7719.000063  Gnorm:      0.000043  CPU:  370.952
  ** Hessian has required structure
  Cycle:    134 Energy:     -7719.000064  Gnorm:      0.000042  CPU:  373.370
  ** Hessian has required structure
  Cycle:    135 Energy:     -7719.000064  Gnorm:      0.000041  CPU:  375.787
  ** Hessian has required structure
  Cycle:    136 Energy:     -7719.000065  Gnorm:      0.000040  CPU:  378.204
  ** Hessian has required structure
  Cycle:    137 Energy:     -7719.000065  Gnorm:      0.000039  CPU:  380.623
  ** Hessian has required structure
  Cycle:    138 Energy:     -7719.000066  Gnorm:      0.000039  CPU:  383.042
  ** Hessian has required structure
  Cycle:    139 Energy:     -7719.000066  Gnorm:      0.000038  CPU:  385.460
  ** Hessian has required structure
  Cycle:    140 Energy:     -7719.000067  Gnorm:      0.000037  CPU:  387.877
  ** Hessian has required structure
  Cycle:    141 Energy:     -7719.000067  Gnorm:      0.000036  CPU:  390.969
  ** Hessian has required structure
  Cycle:    142 Energy:     -7719.000068  Gnorm:      0.000035  CPU:  393.387
  ** Hessian has required structure
  Cycle:    143 Energy:     -7719.000068  Gnorm:      0.000034  CPU:  395.806
  ** Hessian has required structure
  Cycle:    144 Energy:     -7719.000069  Gnorm:      0.000033  CPU:  398.222
  ** Hessian has required structure


  **** Optimisation achieved ****


  Final energy =   -7719.00006892 eV
  Final Gnorm  =       0.00003274

  Components of energy : 

--------------------------------------------------------------------------------
  Interatomic potentials     =        2059.67411412 eV
  Three-body potentials      =           0.47023627 eV
  Monopole - monopole (real) =       -6579.70855376 eV
  Monopole - monopole (recip)=       -3192.98058327 eV
  Monopole - monopole (total)=       -9772.68913704 eV
  Neutralising energy        =          -6.45528227 eV
--------------------------------------------------------------------------------
  Total lattice energy       =       -7719.00006892 eV
--------------------------------------------------------------------------------
  Total lattice energy       =         -744765.5109 kJ/(mole unit cells)
--------------------------------------------------------------------------------

  Final fractional coordinates of atoms :

--------------------------------------------------------------------------------
   No.  Atomic        x           y          z          Radius
        Label       (Frac)      (Frac)     (Frac)       (Angs) 
--------------------------------------------------------------------------------
     1  Si    c     0.699600    0.375700    0.033890    0.000000
     2  Si    c     0.628777    0.340478    0.366580    0.000000
     3  Si    c     0.693516    0.325947    0.698355    0.000000
     4  Si    c     0.306693    0.642375    0.530644    0.000000
     5  Si    c     0.397538    0.709934    0.863894    0.000000
     6  Si    c     0.337803    0.721752    0.196354    0.000000
     7  Si    c     0.385740    0.717032    0.297565    0.000000
     8  Si    c     0.324406    0.654278    0.965477    0.000000
     9  Si    c     0.311847    0.702516    0.631462    0.000000
    10  Si    c     0.639772    0.327789    0.799105    0.000000
    11  Si    c     0.684472    0.402030    0.467279    0.000000
    12  Si    c     0.710907    0.336601    0.134403    0.000000
    13  Ge    c     0.549702    0.445537    0.971403    0.000000
    14  Si    c     0.591225    0.126915    0.302314    0.000000
    15  Si    c     0.902588    0.497124    0.633969    0.000000
    16  Si    c     0.477923    0.604295    0.464989    0.000000
    17  Si    c     0.437650    0.917988    0.797918    0.000000
    18  Si    c     0.123645    0.555413    0.129789    0.000000
    19  Si    c     0.423448    0.546631    0.363026    0.000000
    20  Si    c     0.104866    0.595150    0.028221    0.000000
    21  Si    c     0.487337    0.915592    0.696141    0.000000
    22  Si    c     0.609385    0.502637    0.866711    0.000000
    23  Si    c     0.895709    0.439043    0.532160    0.000000
    24  Si    c     0.545996    0.131298    0.200582    0.000000
    25  Si    c     0.322860    0.428821    0.849957    0.000000
    26  Si    c     0.617363    0.922862    0.184287    0.000000
    27  Si    c     0.104889    0.718559    0.517605    0.000000
    28  Si    c     0.703877    0.616427    0.350464    0.000000
    29  Si    c     0.415340    0.123803    0.682732    0.000000
    30  Si    c     0.905526    0.309738    0.016694    0.000000
    31  Si    c     0.406326    0.325367    0.480447    0.000000
    32  Si    c     0.907606    0.618323    0.144642    0.000000
    33  Si    c     0.717822    0.127648    0.812856    0.000000
    34  Ge    c     0.596067    0.718009    0.975999    0.000000
    35  Si    c     0.111146    0.425990    0.647075    0.000000
    36  Si    c     0.308620    0.918186    0.313357    0.000000
    37  Si    c     0.264184    0.370341    0.951583    0.000000
    38  Si    c     0.667514    0.925537    0.285761    0.000000
    39  Si    c     0.103387    0.774832    0.618313    0.000000
    40  Si    c     0.756618    0.681476    0.451084    0.000000
    41  Si    c     0.359301    0.117637    0.783452    0.000000
    42  Si    c     0.923535    0.273276    0.117653    0.000000
    43  Si    c     0.347900    0.269379    0.379668    0.000000
    44  Si    c     0.897469    0.664909    0.043515    0.000000
    45  Si    c     0.766423    0.117963    0.712012    0.000000
    46  Si    c     0.686591    0.786120    0.880115    0.000000
    47  Si    c     0.097261    0.362197    0.546351    0.000000
    48  Si    c     0.267006    0.930389    0.212215    0.000000
    49  Si    c     0.985166    0.142029    0.964724    0.000000
    50  Si    c     0.885121    0.864614    0.302384    0.000000
    51  Si    c     0.166419    0.055766    0.632413    0.000000
    52  Si    c     0.038590    0.898660    0.466936    0.000000
    53  Si    c     0.142663    0.180377    0.797796    0.000000
    54  Si    c     0.866606    0.997929    0.133502    0.000000
    55  Si    c     0.131329    0.987680    0.366124    0.000000
    56  Ge    c     0.850152    0.898894    0.029340    0.000000
    57  Si    c     0.046319    0.180244    0.697138    0.000000
    58  Si    c     0.898781    0.060508    0.862036    0.000000
    59  Si    c     0.160404    0.145218    0.531655    0.000000
    60  Ge    c     0.984579    0.870575    0.199137    0.000000
    61  O3    c     0.959164    0.025922    0.995897    0.000000
    62  O2    c     0.001927    0.942829    0.337749    0.000000
    63  O2    c     0.087340    0.099091    0.664772    0.000000
    64  O2    c     0.078971    0.020400    0.499987    0.000000
    65  O2    c     0.021581    0.104041    0.830128    0.000000
    66  O3    c     0.946193    0.967417    0.169440    0.000000
    67  O2    c     0.347192    0.593721    0.329819    0.000000
    68  O2    c     0.437520    0.789355    0.663501    0.000000
    69  O2    c     0.221776    0.677371    0.993239    0.000000
    70  O2    c     0.679748    0.452164    0.831741    0.000000
    71  O2    c     0.593906    0.256811    0.169220    0.000000
    72  O2    c     0.767992    0.363412    0.500313    0.000000
    73  O3    c     0.577184    0.338278    0.001995    0.000000
    74  O2    c     0.778222    0.449325    0.666556    0.000000
    75  O2    c     0.666852    0.252048    0.335661    0.000000
    76  O2    c     0.427649    0.680558    0.497283    0.000000
    77  O2    c     0.251527    0.603443    0.161220    0.000000
    78  O2    c     0.361814    0.792472    0.829893    0.000000
    79  O2    c     0.136001    0.247380    0.970004    0.000000
    80  O2    c     0.792089    0.925428    0.307047    0.000000
    81  O2    c     0.104007    0.902081    0.638154    0.000000
    82  O2    c     0.883823    0.809831    0.470446    0.000000
    83  O2    c     0.231861    0.115762    0.803106    0.000000
    84  O2    c     0.927095    0.152112    0.138886    0.000000
    85  O2    c     0.222380    0.141243    0.359452    0.000000
    86  O3    c     0.896504    0.783536    0.021045    0.000000
    87  O2    c     0.892001    0.117071    0.692003    0.000000
    88  O2    c     0.804924    0.907089    0.854250    0.000000
    89  O2    c     0.095130    0.234084    0.526679    0.000000
    90  O3    c     0.147042    0.933541    0.190236    0.000000
    91  O3    c     0.949755    0.883945    0.254467    0.000000
    92  O2    c     0.152143    0.094749    0.582128    0.000000
    93  O2    c     0.951152    0.095177    0.912792    0.000000
    94  O2    c     0.089007    0.169189    0.747464    0.000000
    95  O3    c     0.887347    0.956147    0.084769    0.000000
    96  O2    c     0.088687    0.953428    0.417664    0.000000
    97  O2    c     0.902291    0.209918    0.978506    0.000000
    98  O2    c     0.801407    0.711630    0.312205    0.000000
    99  O2    c     0.318330    0.125371    0.644522    0.000000
   100  O2    c     0.104731    0.814688    0.479543    0.000000
   101  O2    c     0.229324    0.332220    0.810427    0.000000
   102  O2    c     0.713702    0.924032    0.145547    0.000000
   103  O2    c     0.209435    0.915957    0.351388    0.000000
   104  O1    c     0.695417    0.837380    0.017264    0.000000
   105  O2    c     0.115118    0.331265    0.685305    0.000000
   106  O2    c     0.818550    0.132223    0.850786    0.000000
   107  O2    c     0.310753    0.228989    0.518906    0.000000
   108  O3    c     0.904175    0.710542    0.183897    0.000000
   109  O2    c     0.332561    0.661041    0.246319    0.000000
   110  O2    c     0.366458    0.700728    0.580963    0.000000
   111  O2    c     0.334341    0.704497    0.913043    0.000000
   112  O2    c     0.695755    0.383624    0.748978    0.000000
   113  O2    c     0.645733    0.324333    0.084626    0.000000
   114  O2    c     0.685543    0.343484    0.417189    0.000000
   115  O3    c     0.380705    0.356170    0.969471    0.000000
   116  O2    c     0.677228    0.057139    0.305367    0.000000
   117  O2    c     0.971931    0.653474    0.637228    0.000000
   118  O2    c     0.634251    0.692484    0.468769    0.000000
   119  O2    c     0.350627    0.986726    0.802019    0.000000
   120  O2    c     0.055684    0.400082    0.134008    0.000000
   121  O2    c     0.336763    0.389963    0.360697    0.000000
   122  O2    c     0.030638    0.675331    0.026095    0.000000
   123  O2    c     0.643538    0.984693    0.693608    0.000000
   124  O2    c     0.691710    0.658825    0.863283    0.000000
   125  O2    c     0.963913    0.351325    0.528585    0.000000
   126  O2    c     0.390932    0.063610    0.196465    0.000000
   127  O2    c     0.767895    0.302118    0.010484    0.000000
   128  O2    c     0.703476    0.481970    0.343557    0.000000
   129  O2    c     0.549657    0.257608    0.676046    0.000000
   130  O2    c     0.237280    0.716635    0.509290    0.000000
   131  O2    c     0.329006    0.564859    0.842643    0.000000
   132  O2    c     0.482314    0.789319    0.175528    0.000000
   133  O2    c     0.309293    0.784257    0.319745    0.000000
   134  O3    c     0.461037    0.735588    0.989224    0.000000
   135  O2    c     0.245342    0.560749    0.654265    0.000000
   136  O2    c     0.714081    0.259376    0.821434    0.000000
   137  O2    c     0.541027    0.327859    0.489025    0.000000
   138  O2    c     0.778823    0.482383    0.154530    0.000000
   139  O2    c     0.772818    0.531914    0.025827    0.000000
   140  O2    c     0.472997    0.267143    0.360972    0.000000
   141  O2    c     0.766084    0.243057    0.692802    0.000000
   142  O2    c     0.222724    0.486155    0.526272    0.000000
   143  O2    c     0.552347    0.777382    0.863887    0.000000
   144  O2    c     0.265331    0.804084    0.192027    0.000000
   145  O2    c     0.541345    0.798388    0.303776    0.000000
   146  O2    c     0.268588    0.499894    0.969379    0.000000
   147  O2    c     0.230995    0.777318    0.637244    0.000000
   148  O2    c     0.483439    0.246295    0.803414    0.000000
   149  O2    c     0.758376    0.558324    0.471836    0.000000
   150  O2    c     0.797164    0.268186    0.138588    0.000000
   151  O2    c     0.254481    0.362611    0.896605    0.000000
   152  O2    c     0.688235    0.924101    0.231454    0.000000
   153  O2    c     0.102723    0.790984    0.564033    0.000000
   154  O2    c     0.774763    0.694354    0.396783    0.000000
   155  O2    c     0.340705    0.118031    0.729167    0.000000
   156  O2    c     0.917185    0.246236    0.063409    0.000000
   157  O2    c     0.331013    0.253018    0.434028    0.000000
   158  O2    c     0.899833    0.686950    0.098426    0.000000
   159  O2    c     0.787140    0.123117    0.766329    0.000000
   160  O3    c     0.710356    0.814714    0.932814    0.000000
   161  O2    c     0.102625    0.348245    0.600697    0.000000
   162  O2    c     0.240576    0.923602    0.266530    0.000000
   163  O1    c     0.606584    0.589265    0.999045    0.000000
   164  O2    c     0.448221    0.043042    0.323690    0.000000
   165  O2    c     0.986748    0.440503    0.656963    0.000000
   166  O2    c     0.419941    0.464803    0.488717    0.000000
   167  O2    c     0.579426    0.000402    0.821314    0.000000
   168  O2    c     0.039417    0.614037    0.151464    0.000000
   169  O2    c     0.564517    0.601259    0.340718    0.000000
   170  O2    c     0.026762    0.450675    0.006349    0.000000
   171  O2    c     0.430526    0.999443    0.673296    0.000000
   172  O2    c     0.464516    0.447947    0.846952    0.000000
   173  O2    c     0.979054    0.578947    0.509032    0.000000
   174  O2    c     0.604079    0.048598    0.177121    0.000000
   175  O2    c     0.596783    0.183173    0.251946    0.000000
   176  O2    c     0.846267    0.441383    0.583351    0.000000
   177  O3    c     0.612371    0.453885    0.916447    0.000000
   178  O2    c     0.434872    0.863396    0.746907    0.000000
   179  O2    c     0.168529    0.602137    0.077990    0.000000
   180  O2    c     0.424576    0.602217    0.413914    0.000000
   181  F     c     0.463254    0.920753    0.249347    0.000000
   182  F     c     0.107288    0.571871    0.582883    0.000000
   183  F     c     0.498124    0.601733    0.928070    0.000000
   184  F     c     0.564804    0.124121    0.748639    0.000000
   185  F     c     0.901810    0.461749    0.080178    0.000000
   186  F     c     0.555779    0.472260    0.415866    0.000000
   187  O3    s     0.953540    0.028635    0.995115    0.000000
   188  O2    s     0.003803    0.939335    0.337097    0.000000
   189  O2    s     0.091556    0.103363    0.664795    0.000000
   190  O2    s     0.083612    0.020864    0.499864    0.000000
   191  O2    s     0.021727    0.107905    0.829988    0.000000
   192  O3    s     0.941254    0.961968    0.168307    0.000000
   193  O2    s     0.358836    0.601330    0.329945    0.000000
   194  O2    s     0.429849    0.793551    0.663599    0.000000
   195  O2    s     0.220813    0.666562    0.993829    0.000000
   196  O2    s     0.668438    0.444414    0.831921    0.000000
   197  O2    s     0.601128    0.252049    0.168849    0.000000
   198  O2    s     0.772681    0.375190    0.500225    0.000000
   199  O3    s     0.586990    0.350012    0.002774    0.000000
   200  O2    s     0.782221    0.441471    0.666511    0.000000
   201  O2    s     0.655140    0.248320    0.335438    0.000000
   202  O2    s     0.420305    0.668828    0.497437    0.000000
   203  O2    s     0.247259    0.610633    0.161596    0.000000
   204  O2    s     0.373279    0.796602    0.830206    0.000000
   205  O2    s     0.133731    0.249480    0.967444    0.000000
   206  O2    s     0.788907    0.919013    0.304357    0.000000
   207  O2    s     0.110555    0.905251    0.635533    0.000000
   208  O2    s     0.887125    0.806032    0.468107    0.000000
   209  O2    s     0.235462    0.122822    0.800554    0.000000
   210  O2    s     0.920376    0.149039    0.136051    0.000000
   211  O2    s     0.225778    0.138320    0.362216    0.000000
   212  O3    s     0.893031    0.779917    0.024007    0.000000
   213  O2    s     0.895368    0.123849    0.694586    0.000000
   214  O2    s     0.802903    0.911054    0.857603    0.000000
   215  O2    s     0.102230    0.237916    0.529206    0.000000
   216  O3    s     0.145848    0.928060    0.193165    0.000000
   217  O3    s     0.945658    0.880615    0.254898    0.000000
   218  O2    s     0.154694    0.095995    0.582169    0.000000
   219  O2    s     0.948853    0.096337    0.912645    0.000000
   220  O2    s     0.090320    0.171714    0.747538    0.000000
   221  O3    s     0.882076    0.956032    0.085558    0.000000
   222  O2    s     0.087751    0.951012    0.417478    0.000000
   223  O2    s     0.911180    0.213204    0.981049    0.000000
   224  O2    s     0.800092    0.717732    0.315088    0.000000
   225  O2    s     0.312206    0.117842    0.647160    0.000000
   226  O2    s     0.097639    0.813637    0.482172    0.000000
   227  O2    s     0.230115    0.326495    0.813266    0.000000
   228  O2    s     0.719122    0.931304    0.148318    0.000000
   229  O2    s     0.211291    0.923744    0.349068    0.000000
   230  O1    s     0.703143    0.835588    0.015821    0.000000
   231  O2    s     0.107387    0.324810    0.682685    0.000000
   232  O2    s     0.816652    0.124245    0.848075    0.000000
   233  O2    s     0.304435    0.229894    0.516334    0.000000
   234  O3    s     0.911247    0.715002    0.181355    0.000000
   235  O2    s     0.338413    0.672704    0.246465    0.000000
   236  O2    s     0.354802    0.694976    0.581019    0.000000
   237  O2    s     0.339931    0.700227    0.912979    0.000000
   238  O2    s     0.689776    0.371978    0.748940    0.000000
   239  O2    s     0.657899    0.330821    0.084528    0.000000
   240  O2    s     0.679620    0.349216    0.417154    0.000000
   241  O3    s     0.381103    0.364421    0.967714    0.000000
   242  O2    s     0.667331    0.050596    0.302998    0.000000
   243  O2    s     0.978522    0.650084    0.634915    0.000000
   244  O2    s     0.630961    0.682339    0.466542    0.000000
   245  O2    s     0.360474    0.993328    0.799656    0.000000
   246  O2    s     0.048717    0.402785    0.131819    0.000000
   247  O2    s     0.346758    0.393442    0.362913    0.000000
   248  O2    s     0.024893    0.665444    0.028165    0.000000
   249  O2    s     0.640328    0.991516    0.695802    0.000000
   250  O2    s     0.682757    0.655703    0.865350    0.000000
   251  O2    s     0.970804    0.361414    0.530806    0.000000
   252  O2    s     0.394226    0.056639    0.198595    0.000000
   253  O2    s     0.775451    0.310516    0.013599    0.000000
   254  O2    s     0.695861    0.481547    0.346670    0.000000
   255  O2    s     0.550315    0.250548    0.679080    0.000000
   256  O2    s     0.230482    0.709167    0.512406    0.000000
   257  O2    s     0.335430    0.565383    0.845621    0.000000
   258  O2    s     0.481441    0.796165    0.178612    0.000000
   259  O2    s     0.317020    0.791275    0.316784    0.000000
   260  O3    s     0.456142    0.725800    0.985756    0.000000
   261  O2    s     0.238056    0.561123    0.651141    0.000000
   262  O2    s     0.706826    0.252529    0.818213    0.000000
   263  O2    s     0.541650    0.335240    0.485855    0.000000
   264  O2    s     0.785295    0.481357    0.151307    0.000000
   265  O2    s     0.778457    0.530435    0.028313    0.000000
   266  O2    s     0.475713    0.275152    0.363558    0.000000
   267  O2    s     0.758466    0.238027    0.695431    0.000000
   268  O2    s     0.217798    0.489021    0.528876    0.000000
   269  O2    s     0.549230    0.770859    0.865556    0.000000
   270  O2    s     0.273333    0.809073    0.194668    0.000000
   271  O2    s     0.538674    0.803701    0.301204    0.000000
   272  O2    s     0.273983    0.501665    0.967075    0.000000
   273  O2    s     0.225509    0.769217    0.634639    0.000000
   274  O2    s     0.486216    0.240818    0.800855    0.000000
   275  O2    s     0.750416    0.555306    0.469167    0.000000
   276  O2    s     0.801809    0.276161    0.135879    0.000000
   277  O2    s     0.262949    0.370647    0.897159    0.000000
   278  O2    s     0.678752    0.924080    0.232243    0.000000
   279  O2    s     0.103017    0.781635    0.564962    0.000000
   280  O2    s     0.765389    0.684815    0.397743    0.000000
   281  O2    s     0.350511    0.118584    0.730085    0.000000
   282  O2    s     0.916612    0.255615    0.064186    0.000000
   283  O2    s     0.340742    0.262396    0.433162    0.000000
   284  O2    s     0.900389    0.677813    0.097673    0.000000
   285  O2    s     0.777652    0.123041    0.765418    0.000000
   286  O3    s     0.700792    0.805590    0.930031    0.000000
   287  O2    s     0.102943    0.357900    0.599816    0.000000
   288  O2    s     0.250306    0.923687    0.265867    0.000000
   289  O1    s     0.601141    0.586609    0.995266    0.000000
   290  O2    s     0.448155    0.038233    0.320358    0.000000
   291  O2    s     0.991529    0.445004    0.653510    0.000000
   292  O2    s     0.424684    0.464310    0.485351    0.000000
   293  O2    s     0.579354    0.005475    0.817975    0.000000
   294  O2    s     0.034279    0.608243    0.148467    0.000000
   295  O2    s     0.564668    0.596962    0.344119    0.000000
   296  O2    s     0.021840    0.450667    0.009733    0.000000
   297  O2    s     0.434996    0.004277    0.676702    0.000000
   298  O2    s     0.463744    0.451598    0.849345    0.000000
   299  O2    s     0.984078    0.579344    0.512393    0.000000
   300  O2    s     0.599247    0.043510    0.180368    0.000000
   301  O2    s     0.590915    0.171908    0.251831    0.000000
   302  O2    s     0.857260    0.446927    0.583298    0.000000
   303  O3    s     0.607581    0.458341    0.915341    0.000000
   304  O2    s     0.440549    0.874455    0.747006    0.000000
   305  O2    s     0.157540    0.596641    0.078266    0.000000
   306  O2    s     0.429955    0.596740    0.413957    0.000000
   307  F     s     0.463041    0.920393    0.249364    0.000000
   308  F     s     0.107637    0.572052    0.582962    0.000000
   309  F     s     0.504671    0.608502    0.931233    0.000000
   310  F     s     0.564836    0.124385    0.748722    0.000000
   311  F     s     0.900910    0.461140    0.080073    0.000000
   312  F     s     0.556012    0.472121    0.415909    0.000000
--------------------------------------------------------------------------------

  Final Cartesian lattice vectors (Angstroms) :

       11.997230   -0.016796   -0.010273
       -6.012977   10.382992   -0.037904
       -0.033402   -0.332144   29.446226


  Final cell parameters and derivatives :

--------------------------------------------------------------------------------
       a           11.997247 Angstrom     dE/de1(xx)     0.002495 eV/strain
       b           11.998494 Angstrom     dE/de2(yy)     0.001751 eV/strain
       c           29.448118 Angstrom     dE/de3(zz)     0.001477 eV/strain
       alpha       90.707665 Degrees      dE/de4(yz)     0.000261 eV/strain
       beta        90.113144 Degrees      dE/de5(xz)     0.000230 eV/strain
       gamma      120.155762 Degrees      dE/de6(xy)    -0.000178 eV/strain
--------------------------------------------------------------------------------

  Primitive cell volume =          3664.883065 Angs**3

  Density of cell =      1.765956 g/cm**3

  Non-primitive cell volume =          3664.883065 Angs**3


  Final internal derivatives :

--------------------------------------------------------------------------------
   No.  Atomic          a             b             c           Radius
        Label          (eV)          (eV)          (eV)        (eV/Angs)
--------------------------------------------------------------------------------
      1 Si    c       0.000000      0.000000      0.000000      0.000000
      2 Si    c       0.000127     -0.000043      0.000090      0.000000
      3 Si    c      -0.000120     -0.000062      0.000010      0.000000
      4 Si    c       0.000137      0.000172      0.001719      0.000000
      5 Si    c      -0.000324     -0.000778      0.001888      0.000000
      6 Si    c      -0.000086     -0.000271      0.000369      0.000000
      7 Si    c       0.000055      0.000000     -0.000650      0.000000
      8 Si    c       0.002197     -0.002187     -0.004453      0.000000
      9 Si    c       0.000191     -0.000070     -0.001102      0.000000
     10 Si    c       0.000042     -0.000382     -0.001430      0.000000
     11 Si    c       0.000073     -0.000338      0.000301      0.000000
     12 Si    c       0.000548     -0.000614      0.001168      0.000000
     13 Ge    c      -0.002507      0.001624     -0.005815      0.000000
     14 Si    c      -0.000124      0.000228     -0.000506      0.000000
     15 Si    c       0.000403     -0.000243     -0.000978      0.000000
     16 Si    c       0.000238     -0.000230      0.001023      0.000000
     17 Si    c      -0.000188     -0.000133      0.002028      0.000000
     18 Si    c       0.000019     -0.000534      0.001201      0.000000
     19 Si    c       0.000203     -0.000076     -0.000414      0.000000
     20 Si    c       0.000523     -0.000287      0.002135      0.000000
     21 Si    c      -0.000067     -0.000100     -0.001045      0.000000
     22 Si    c      -0.000748     -0.000348      0.001192      0.000000
     23 Si    c      -0.000029      0.000206      0.000835      0.000000
     24 Si    c      -0.000050     -0.000111      0.000970      0.000000
     25 Si    c      -0.000408     -0.000318      0.000879      0.000000
     26 Si    c      -0.000254     -0.000357      0.000023      0.000000
     27 Si    c      -0.000057      0.000212      0.001278      0.000000
     28 Si    c       0.000161      0.000057     -0.000272      0.000000
     29 Si    c      -0.000111      0.000197     -0.000828      0.000000
     30 Si    c       0.000774     -0.000361      0.001654      0.000000
     31 Si    c       0.000161     -0.000293      0.000687      0.000000
     32 Si    c       0.000210     -0.000112      0.001371      0.000000
     33 Si    c      -0.000193     -0.000402      0.000284      0.000000
     34 Ge    c      -0.000284     -0.000723     -0.003949      0.000000
     35 Si    c       0.000267     -0.000112     -0.000655      0.000000
     36 Si    c       0.000009      0.000287     -0.000498      0.000000
     37 Si    c      -0.000561     -0.000232     -0.003016      0.000000
     38 Si    c       0.000018      0.000135     -0.000676      0.000000
     39 Si    c       0.000239      0.000075     -0.001310      0.000000
     40 Si    c       0.000141     -0.000108      0.000780      0.000000
     41 Si    c      -0.000097     -0.000227      0.000372      0.000000
     42 Si    c      -0.000307     -0.000018     -0.001283      0.000000
     43 Si    c       0.000141     -0.000153      0.000440      0.000000
     44 Si    c       0.000081     -0.000013     -0.000761      0.000000
     45 Si    c       0.000074     -0.000028     -0.001023      0.000000
     46 Si    c      -0.000422     -0.000987     -0.000185      0.000000
     47 Si    c       0.000143     -0.000028      0.001212      0.000000
     48 Si    c      -0.000197     -0.000177      0.000770      0.000000
     49 Si    c      -0.000166     -0.001243     -0.000803      0.000000
     50 Si    c       0.000060      0.000065     -0.000349      0.000000
     51 Si    c       0.000097      0.000065     -0.000767      0.000000
     52 Si    c      -0.000019     -0.000081      0.001206      0.000000
     53 Si    c      -0.000286     -0.000394      0.000811      0.000000
     54 Si    c      -0.000502     -0.000321     -0.000638      0.000000
     55 Si    c       0.000073      0.000022     -0.000432      0.000000
     56 Ge    c      -0.000147      0.001215     -0.000560      0.000000
     57 Si    c       0.000128     -0.000090     -0.000654      0.000000
     58 Si    c      -0.000387     -0.000613     -0.000274      0.000000
     59 Si    c       0.000058     -0.000185      0.000533      0.000000
     60 Ge    c      -0.000089     -0.000598      0.000445      0.000000
     61 O3    c      -0.000104     -0.000081     -0.003533      0.000000
     62 O2    c       0.000181      0.000352     -0.000373      0.000000
     63 O2    c      -0.000183      0.000130     -0.000183      0.000000
     64 O2    c      -0.000137      0.000010      0.000847      0.000000
     65 O2    c      -0.000239     -0.001090      0.000680      0.000000
     66 O3    c      -0.001055     -0.000275      0.000333      0.000000
     67 O2    c       0.000099      0.000075     -0.000977      0.000000
     68 O2    c       0.000123     -0.000012     -0.000835      0.000000
     69 O2    c      -0.001056      0.001088      0.003394      0.000000
     70 O2    c      -0.000165     -0.000359     -0.001363      0.000000
     71 O2    c      -0.000367     -0.000096      0.001052      0.000000
     72 O2    c       0.000018      0.000158      0.000671      0.000000
     73 O3    c      -0.000145     -0.002664     -0.003675      0.000000
     74 O2    c      -0.000064     -0.000025      0.000235      0.000000
     75 O2    c       0.000035     -0.000060     -0.000838      0.000000
     76 O2    c       0.000537     -0.000263      0.000204      0.000000
     77 O2    c      -0.000133     -0.000553     -0.000247      0.000000
     78 O2    c      -0.000142     -0.000277      0.001763      0.000000
     79 O2    c       0.000465     -0.000540     -0.000093      0.000000
     80 O2    c       0.000053      0.000130     -0.000169      0.000000
     81 O2    c       0.000197     -0.000116     -0.001135      0.000000
     82 O2    c      -0.000045     -0.000143      0.000405      0.000000
     83 O2    c      -0.000017     -0.000457      0.000301      0.000000
     84 O2    c      -0.000208     -0.000443     -0.000463      0.000000
     85 O2    c       0.000056      0.000167     -0.000114      0.000000
     86 O3    c       0.002411     -0.002597     -0.002582      0.000000
     87 O2    c      -0.000038      0.000072     -0.001039      0.000000
     88 O2    c      -0.000162     -0.000418     -0.000468      0.000000
     89 O2    c       0.000255      0.000079      0.000123      0.000000
     90 O3    c      -0.000566     -0.000116      0.000635      0.000000
     91 O3    c      -0.000520     -0.000308      0.000403      0.000000
     92 O2    c       0.000093     -0.000271      0.000228      0.000000
     93 O2    c      -0.000118     -0.000089      0.000532      0.000000
     94 O2    c      -0.000286     -0.000010     -0.000630      0.000000
     95 O3    c      -0.000075      0.000074      0.000932      0.000000
     96 O2    c      -0.000287     -0.000075     -0.000204      0.000000
     97 O2    c      -0.000467      0.000663     -0.000296      0.000000
     98 O2    c      -0.000019      0.000045      0.000270      0.000000
     99 O2    c      -0.000057     -0.000032     -0.000319      0.000000
    100 O2    c       0.000060      0.000356     -0.000034      0.000000
    101 O2    c      -0.000470     -0.000661     -0.000151      0.000000
    102 O2    c      -0.000276     -0.000282     -0.000751      0.000000
    103 O2    c      -0.000024      0.000171     -0.000029      0.000000
    104 O1    c      -0.001565     -0.000330     -0.008926      0.000000
    105 O2    c       0.000005     -0.000110     -0.000205      0.000000
    106 O2    c      -0.000338     -0.000560      0.000442      0.000000
    107 O2    c       0.000121     -0.000157      0.000436      0.000000
    108 O3    c       0.000380     -0.001171     -0.000677      0.000000
    109 O2    c      -0.000024     -0.000145      0.001373      0.000000
    110 O2    c       0.000176      0.000113     -0.000015      0.000000
    111 O2    c       0.000173     -0.000874     -0.003289      0.000000
    112 O2    c      -0.000098     -0.000137      0.001766      0.000000
    113 O2    c      -0.000155     -0.000173     -0.001490      0.000000
    114 O2    c       0.000182     -0.000256      0.000406      0.000000
    115 O3    c       0.000992     -0.002441      0.001453      0.000000
    116 O2    c       0.000147     -0.000103     -0.000760      0.000000
    117 O2    c      -0.000007      0.000024     -0.000448      0.000000
    118 O2    c       0.000070     -0.000255      0.000160      0.000000
    119 O2    c      -0.000260     -0.000182      0.000771      0.000000
    120 O2    c       0.000178     -0.000457      0.000564      0.000000
    121 O2    c       0.000120      0.000101     -0.000049      0.000000
    122 O2    c       0.000522      0.000347      0.000970      0.000000
    123 O2    c       0.000084     -0.000217     -0.001659      0.000000
    124 O2    c      -0.000308     -0.000636     -0.001130      0.000000
    125 O2    c       0.000347      0.000040      0.000373      0.000000
    126 O2    c      -0.000284      0.000043      0.000047      0.000000
    127 O2    c      -0.000135      0.000316      0.000835      0.000000
    128 O2    c       0.000205     -0.000059      0.000075      0.000000
    129 O2    c       0.000011     -0.000125      0.000312      0.000000
    130 O2    c       0.000240      0.000005      0.001067      0.000000
    131 O2    c      -0.000394     -0.000522      0.000210      0.000000
    132 O2    c      -0.000263     -0.000103      0.000303      0.000000
    133 O2    c       0.000240      0.000029     -0.000494      0.000000
    134 O3    c       0.001896     -0.002095     -0.001402      0.000000
    135 O2    c       0.000006      0.000046     -0.001025      0.000000
    136 O2    c      -0.000292     -0.000287     -0.001681      0.000000
    137 O2    c       0.000194     -0.000299      0.000147      0.000000
    138 O2    c      -0.000326     -0.000185      0.000675      0.000000
    139 O2    c      -0.001691      0.002006     -0.003357      0.000000
    140 O2    c       0.000108      0.000083     -0.000097      0.000000
    141 O2    c       0.000057     -0.000010     -0.000649      0.000000
    142 O2    c       0.000434      0.000131      0.000458      0.000000
    143 O2    c      -0.000437     -0.000778     -0.001112      0.000000
    144 O2    c      -0.000332     -0.000201     -0.000303      0.000000
    145 O2    c      -0.000033      0.000004     -0.000759      0.000000
    146 O2    c      -0.000165     -0.000348      0.001075      0.000000
    147 O2    c       0.000229     -0.000058     -0.001219      0.000000
    148 O2    c      -0.000151     -0.000301     -0.001474      0.000000
    149 O2    c      -0.000175      0.000017      0.000092      0.000000
    150 O2    c      -0.000305     -0.000163      0.000139      0.000000
    151 O2    c      -0.000285     -0.000656      0.001392      0.000000
    152 O2    c      -0.000084      0.000043      0.001626      0.000000
    153 O2    c       0.000326      0.000043      0.001412      0.000000
    154 O2    c       0.000092     -0.000010      0.000108      0.000000
    155 O2    c       0.000061     -0.000253     -0.000044      0.000000
    156 O2    c      -0.000007     -0.000035      0.001740      0.000000
    157 O2    c       0.000143     -0.000179     -0.000063      0.000000
    158 O2    c       0.000402      0.000348     -0.000709      0.000000
    159 O2    c      -0.000239     -0.000040      0.000355      0.000000
    160 O3    c       0.000395     -0.000943      0.001021      0.000000
    161 O2    c      -0.000015      0.000121     -0.000311      0.000000
    162 O2    c      -0.000011     -0.000069      0.000022      0.000000
    163 O1    c       0.001241      0.000671      0.001132      0.000000
    164 O2    c       0.000059      0.000155     -0.000488      0.000000
    165 O2    c      -0.000116      0.000268     -0.000145      0.000000
    166 O2    c      -0.000001     -0.000094      0.000256      0.000000
    167 O2    c      -0.000357     -0.000326      0.000909      0.000000
    168 O2    c      -0.000048     -0.000460      0.000404      0.000000
    169 O2    c       0.000020      0.000194      0.000023      0.000000
    170 O2    c       0.000761      0.000184      0.000667      0.000000
    171 O2    c       0.000271     -0.000306     -0.000662      0.000000
    172 O2    c      -0.000246     -0.000720     -0.000389      0.000000
    173 O2    c       0.000028      0.000208      0.000826      0.000000
    174 O2    c      -0.000411     -0.000051      0.000381      0.000000
    175 O2    c       0.000007     -0.000100      0.000473      0.000000
    176 O2    c       0.000324     -0.000113     -0.000087      0.000000
    177 O3    c      -0.000455     -0.000477     -0.005720      0.000000
    178 O2    c      -0.000017     -0.000309     -0.002285      0.000000
    179 O2    c       0.000485     -0.000132     -0.001947      0.000000
    180 O2    c       0.000011     -0.000016     -0.000039      0.000000
    181 F     c      -0.000120     -0.000002      0.000631      0.000000
    182 F     c       0.000207      0.000116      0.000525      0.000000
    183 F     c       0.000412     -0.002597      0.003747      0.000000
    184 F     c       0.000036     -0.000001      0.000790      0.000000
    185 F     c       0.000685     -0.000140     -0.000207      0.000000
    186 F     c       0.000128     -0.000198      0.000751      0.000000
    187 O3    s      -0.000031     -0.000198      0.003759      0.000000
    188 O2    s       0.000073      0.000044      0.000435      0.000000
    189 O2    s       0.000264     -0.000285      0.000953      0.000000
    190 O2    s       0.000162      0.000134     -0.001104      0.000000
    191 O2    s      -0.000449     -0.000400     -0.001395      0.000000
    192 O3    s      -0.000265     -0.000870     -0.000412      0.000000
    193 O2    s      -0.000012      0.000167      0.001824      0.000000
    194 O2    s      -0.000003     -0.000070      0.001561      0.000000
    195 O2    s       0.001364     -0.000583     -0.001504      0.000000
    196 O2    s      -0.000063     -0.000573      0.001646      0.000000
    197 O2    s      -0.000298     -0.000418     -0.001001      0.000000
    198 O2    s       0.000415     -0.000494     -0.000984      0.000000
    199 O3    s       0.000475      0.001856      0.005196      0.000000
    200 O2    s       0.000011      0.000042      0.000090      0.000000
    201 O2    s       0.000316      0.000036      0.001034      0.000000
    202 O2    s      -0.000082      0.000288     -0.000842      0.000000
    203 O2    s      -0.000094     -0.000259      0.000494      0.000000
    204 O2    s      -0.000238     -0.000574     -0.002898      0.000000
    205 O2    s       0.000215     -0.000476      0.001104      0.000000
    206 O2    s       0.000095      0.000049      0.000508      0.000000
    207 O2    s      -0.000089     -0.000120      0.002083      0.000000
    208 O2    s       0.000078     -0.000168     -0.000488      0.000000
    209 O2    s      -0.000257     -0.000275     -0.000533      0.000000
    210 O2    s      -0.000134     -0.000408      0.001419      0.000000
    211 O2    s       0.000206      0.000008      0.000465      0.000000
    212 O3    s       0.000685      0.001062      0.002793      0.000000
    213 O2    s      -0.000067     -0.000209      0.001904      0.000000
    214 O2    s      -0.000438     -0.000771      0.000909      0.000000
    215 O2    s       0.000065      0.000130     -0.000239      0.000000
    216 O3    s       0.000245     -0.000326     -0.000795      0.000000
    217 O3    s       0.000233     -0.000567      0.000740      0.000000
    218 O2    s      -0.000419      0.000111     -0.000179      0.000000
    219 O2    s      -0.000369     -0.000160     -0.000648      0.000000
    220 O2    s      -0.000069     -0.000528      0.000655      0.000000
    221 O3    s       0.000623     -0.000258      0.001163      0.000000
    222 O2    s      -0.000240     -0.000172      0.000029      0.000000
    223 O2    s       0.000075      0.000249      0.000892      0.000000
    224 O2    s       0.000267      0.000091      0.000207      0.000000
    225 O2    s       0.000146      0.000069      0.001040      0.000000
    226 O2    s       0.000408     -0.000024     -0.000385      0.000000
    227 O2    s      -0.000712     -0.000536     -0.000359      0.000000
    228 O2    s      -0.000503     -0.000134      0.001180      0.000000
    229 O2    s       0.000134     -0.000048      0.000820      0.000000
    230 O1    s      -0.000260     -0.000362      0.009959      0.000000
    231 O2    s       0.000155      0.000050      0.000599      0.000000
    232 O2    s      -0.000443     -0.000366     -0.000593      0.000000
    233 O2    s       0.000085     -0.000381     -0.000638      0.000000
    234 O3    s      -0.000522      0.000062      0.001012      0.000000
    235 O2    s      -0.000192     -0.000065     -0.000920      0.000000
    236 O2    s       0.000266      0.000209     -0.000020      0.000000
    237 O2    s      -0.000605     -0.000212      0.003248      0.000000
    238 O2    s       0.000059     -0.000159     -0.002006      0.000000
    239 O2    s      -0.000039      0.000299     -0.000949      0.000000
    240 O2    s       0.000051     -0.000102     -0.000141      0.000000
    241 O3    s      -0.001425      0.000574     -0.000296      0.000000
    242 O2    s       0.000042      0.000070      0.001249      0.000000
    243 O2    s       0.000002      0.000028      0.001154      0.000000
    244 O2    s      -0.000106      0.000047     -0.000058      0.000000
    245 O2    s      -0.000019     -0.000530     -0.001346      0.000000
    246 O2    s       0.000270     -0.000509      0.000228      0.000000
    247 O2    s       0.000069      0.000072      0.000360      0.000000
    248 O2    s       0.000332      0.000018     -0.000846      0.000000
    249 O2    s      -0.000151      0.000096      0.002783      0.000000
    250 O2    s      -0.000043     -0.000651      0.001234      0.000000
    251 O2    s       0.000269      0.000104     -0.000611      0.000000
    252 O2    s      -0.000134     -0.000250     -0.000224      0.000000
    253 O2    s      -0.000492      0.000881     -0.001113      0.000000
    254 O2    s       0.000096      0.000152      0.000273      0.000000
    255 O2    s       0.000070      0.000043      0.000048      0.000000
    256 O2    s       0.000398      0.000016     -0.001717      0.000000
    257 O2    s      -0.000577     -0.000478     -0.000887      0.000000
    258 O2    s      -0.000189     -0.000259     -0.000128      0.000000
    259 O2    s       0.000118     -0.000104      0.001400      0.000000
    260 O3    s      -0.000809      0.000887      0.002729      0.000000
    261 O2    s       0.000317     -0.000062      0.001744      0.000000
    262 O2    s      -0.000107     -0.000186      0.002366      0.000000
    263 O2    s       0.000019     -0.000320     -0.000068      0.000000
    264 O2    s      -0.000172     -0.000205     -0.000270      0.000000
    265 O2    s       0.004122     -0.003911      0.005660      0.000000
    266 O2    s       0.000183     -0.000206      0.000285      0.000000
    267 O2    s      -0.000015     -0.000135      0.001208      0.000000
    268 O2    s       0.000114      0.000112     -0.000981      0.000000
    269 O2    s      -0.000099     -0.000628      0.001803      0.000000
    270 O2    s      -0.000170     -0.000054      0.000664      0.000000
    271 O2    s       0.000198     -0.000020      0.001677      0.000000
    272 O2    s      -0.000368     -0.001062     -0.000094      0.000000
    273 O2    s      -0.000103      0.000125      0.002229      0.000000
    274 O2    s      -0.000230     -0.000350      0.002159      0.000000
    275 O2    s       0.000433     -0.000435     -0.000006      0.000000
    276 O2    s      -0.000216     -0.000655      0.000730      0.000000
    277 O2    s      -0.000254     -0.001000      0.000527      0.000000
    278 O2    s      -0.000014     -0.000126     -0.001334      0.000000
    279 O2    s       0.000003      0.000236     -0.001421      0.000000
    280 O2    s       0.000131      0.000008      0.000101      0.000000
    281 O2    s      -0.000222     -0.000027      0.000165      0.000000
    282 O2    s       0.000537     -0.000692     -0.001098      0.000000
    283 O2    s       0.000018     -0.000156     -0.000239      0.000000
    284 O2    s       0.000635     -0.000113     -0.000417      0.000000
    285 O2    s       0.000119     -0.000641     -0.000667      0.000000
    286 O3    s      -0.001687     -0.001171     -0.000668      0.000000
    287 O2    s       0.000280     -0.000246      0.000219      0.000000
    288 O2    s      -0.000126      0.000060     -0.000248      0.000000
    289 O1    s      -0.000988     -0.001626      0.000204      0.000000
    290 O2    s       0.000095      0.000090      0.001034      0.000000
    291 O2    s       0.000086     -0.000105      0.000668      0.000000
    292 O2    s       0.000064     -0.000102     -0.000241      0.000000
    293 O2    s      -0.000086     -0.000541     -0.001716      0.000000
    294 O2    s       0.000407     -0.000539     -0.000276      0.000000
    295 O2    s       0.000126     -0.000039      0.000581      0.000000
    296 O2    s       0.000343      0.000369     -0.001161      0.000000
    297 O2    s      -0.000169      0.000061      0.001586      0.000000
    298 O2    s      -0.000048     -0.000986     -0.000195      0.000000
    299 O2    s       0.000370     -0.000084     -0.001181      0.000000
    300 O2    s      -0.000276     -0.000075     -0.000612      0.000000
    301 O2    s      -0.000180      0.000194     -0.000686      0.000000
    302 O2    s      -0.000163      0.000097      0.000324      0.000000
    303 O3    s       0.000260     -0.001726      0.003802      0.000000
    304 O2    s      -0.000081     -0.000172      0.001983      0.000000
    305 O2    s       0.000049      0.000042      0.001582      0.000000
    306 O2    s       0.000053     -0.000085      0.000268      0.000000
    307 F     s      -0.000189     -0.000033     -0.000603      0.000000
    308 F     s       0.000229      0.000109     -0.000569      0.000000
    309 F     s      -0.001075     -0.000659     -0.001570      0.000000
    310 F     s       0.000118     -0.000254     -0.000903      0.000000
    311 F     s       0.000498      0.000457      0.000461      0.000000
    312 F     s       0.000081     -0.000119     -0.000627      0.000000
--------------------------------------------------------------------------------
  Maximum abs         0.004122      0.003911      0.009959      0.000000
--------------------------------------------------------------------------------


  Time to end of optimisation =     400.6408 seconds


  Peak dynamic memory used =      19.13 MB 


  Timing analysis for GULP :

--------------------------------------------------------------------------------
  Task / Subroutine                                          Time (Seconds)
--------------------------------------------------------------------------------
  Calculation of reciprocal space energy and derivatives          7.2217
  Calculation of real space energy and derivatives              216.3159
  Calculation of three-body energy and derivatives               24.9451
  Global summation overhead                                       0.0002
--------------------------------------------------------------------------------
  Total CPU time                                                400.6409
--------------------------------------------------------------------------------


  Dump file written as out.res                                                 
  CIF file written as out.cif                                                 


  Job Finished at 05:15.13  7th December   2016                               

