********************************************************************************
*                       GENERAL UTILITY LATTICE PROGRAM                        *
*                                 Julian Gale                                  *
*                      Nanochemistry Research Institute                        *
*                           Department of Chemistry                            *
*                    Curtin University, Western Australia                      *
********************************************************************************
* Version = 4.2.0 * Last modified =  20th January 2014                         *
********************************************************************************
*  optimise     - perform optimisation run                                     *
*  conp         - constant pressure calculation                                *
*  qok          - running with non charge neutral cell is OK                   *
*  rfo          - optimisation step to be determined by RFO method             *
********************************************************************************

  Job Started  at 09:58.45  7th December   2016                               

  Number of CPUs =     1


  Total number of configurations input =   1

********************************************************************************
*  Input for Configuration =   1                                               *
********************************************************************************

  Formula = Si56Ge4O120F6                                               

  Number of irreducible atoms/shells =     312


  Total number atoms/shells =     312

  Dimensionality = 3               :  Bulk   


  Charge on solid   =  -6.000000 =>neutralising background added


  Cartesian lattice vectors (Angstroms) :

       12.009955    0.000000    0.000000
       -6.007887   10.397862    0.000000
       -0.354200   -0.002787   29.403398

  Cell parameters (Angstroms/Degrees):

  a =      12.0100    alpha =  89.6594
  b =      12.0088    beta  =  90.6902
  c =      29.4055    gamma = 120.0193

  Initial cell volume =        3671.833361 Angs**3

  Temperature of configuration =  0.000     K 

  Pressure of configuration =         0.000 GPa 

  Fractional coordinates of asymmetric unit :

--------------------------------------------------------------------------------
   No.  Atomic       x           y          z         Charge      Occupancy
        Label      (Frac)      (Frac)     (Frac)        (e)         (Frac)  
--------------------------------------------------------------------------------
      1 Si    c    0.699600    0.375700    0.033890     4.00000    1.000000    
      2 Si    c    0.621361 *  0.323692 *  0.365437 *   4.00000    1.000000    
      3 Si    c    0.669608 *  0.305114 *  0.699066 *   4.00000    1.000000    
      4 Si    c    0.300206 *  0.615837 *  0.532807 *   4.00000    1.000000    
      5 Si    c    0.374840 *  0.683268 *  0.865199 *   4.00000    1.000000    
      6 Si    c    0.324290 *  0.704321 *  0.199457 *   4.00000    1.000000    
      7 Si    c    0.380588 *  0.703769 *  0.300379 *   4.00000    1.000000    
      8 Si    c    0.317187 *  0.616903 *  0.967281 *   4.00000    1.000000    
      9 Si    c    0.307906 *  0.682923 *  0.634792 *   4.00000    1.000000    
     10 Si    c    0.631795 *  0.303702 *  0.801042 *   4.00000    1.000000    
     11 Si    c    0.677995 *  0.378352 *  0.466424 *   4.00000    1.000000    
     12 Si    c    0.703155 *  0.323040 *  0.134875 *   4.00000    1.000000    
     13 Si    c    0.525393 *  0.409907 *  0.967337 *   4.00000    1.000000    
     14 Si    c    0.583710 *  0.112771 *  0.301176 *   4.00000    1.000000    
     15 Si    c    0.878936 *  0.468896 *  0.635791 *   4.00000    1.000000    
     16 Si    c    0.471415 *  0.580458 *  0.466863 *   4.00000    1.000000    
     17 Si    c    0.425540 *  0.897943 *  0.800390 *   4.00000    1.000000    
     18 Si    c    0.112308 *  0.529651 *  0.135072 *   4.00000    1.000000    
     19 Si    c    0.417883 *  0.529235 *  0.364860 *   4.00000    1.000000    
     20 Si    c    0.109764 *  0.580400 *  0.033031 *   4.00000    1.000000    
     21 Si    c    0.469074 *  0.899429 *  0.699306 *   4.00000    1.000000    
     22 Si    c    0.589265 *  0.468866 *  0.864414 *   4.00000    1.000000    
     23 Si    c    0.885196 *  0.409243 *  0.532972 *   4.00000    1.000000    
     24 Si    c    0.529714 *  0.112767 *  0.199167 *   4.00000    1.000000    
     25 Ge    c    0.317445 *  0.414933 *  0.857044 *   4.00000    1.000000    
     26 Si    c    0.601312 *  0.904934 *  0.185003 *   4.00000    1.000000    
     27 Si    c    0.096567 *  0.693025 *  0.516764 *   4.00000    1.000000    
     28 Si    c    0.697186 *  0.600996 *  0.350658 *   4.00000    1.000000    
     29 Si    c    0.390857 *  0.103595 *  0.687654 *   4.00000    1.000000    
     30 Si    c    0.901110 *  0.300309 *  0.019535 *   4.00000    1.000000    
     31 Si    c    0.400476 *  0.300700 *  0.480623 *   4.00000    1.000000    
     32 Si    c    0.904400 *  0.600783 *  0.149281 *   4.00000    1.000000    
     33 Si    c    0.708493 *  0.101716 *  0.812535 *   4.00000    1.000000    
     34 Si    c    0.597921 *  0.693628 *  0.983281 *   4.00000    1.000000    
     35 Ge    c    0.096915 *  0.414790 *  0.642821 *   4.00000    1.000000    
     36 Si    c    0.304184 *  0.904260 *  0.314837 *   4.00000    1.000000    
     37 Si    c    0.242211 *  0.329385 *  0.952674 *   4.00000    1.000000    
     38 Si    c    0.660790 *  0.912109 *  0.286046 *   4.00000    1.000000    
     39 Si    c    0.088965 *  0.748095 *  0.618351 *   4.00000    1.000000    
     40 Si    c    0.749104 *  0.658267 *  0.451559 *   4.00000    1.000000    
     41 Si    c    0.347824 *  0.098929 *  0.789427 *   4.00000    1.000000    
     42 Si    c    0.911404 *  0.251211 *  0.120550 *   4.00000    1.000000    
     43 Si    c    0.340816 *  0.250872 *  0.379592 *   4.00000    1.000000    
     44 Si    c    0.908742 *  0.656697 *  0.048325 *   4.00000    1.000000    
     45 Si    c    0.748389 *  0.099809 *  0.710646 *   4.00000    1.000000    
     46 Si    c    0.658640 *  0.747961 *  0.881509 *   4.00000    1.000000    
     47 Si    c    0.087456 *  0.328182 *  0.547371 *   4.00000    1.000000    
     48 Si    c    0.251907 *  0.912070 *  0.213882 *   4.00000    1.000000    
     49 Si    c    0.965689 *  0.118587 *  0.969822 *   4.00000    1.000000    
     50 Si    c    0.877887 *  0.848633 *  0.300290 *   4.00000    1.000000    
     51 Si    c    0.145415 *  0.027762 *  0.632495 *   4.00000    1.000000    
     52 Si    c    0.029768 *  0.873803 *  0.465484 *   4.00000    1.000000    
     53 Ge    c    0.127730 *  0.160468 *  0.803008 *   4.00000    1.000000    
     54 Si    c    0.848056 *  0.970943 *  0.134949 *   4.00000    1.000000    
     55 Si    c    0.123770 *  0.970443 *  0.364873 *   4.00000    1.000000    
     56 Si    c    0.846047 *  0.874238 *  0.034343 *   4.00000    1.000000    
     57 Ge    c    0.030093 *  0.159742 *  0.696586 *   4.00000    1.000000    
     58 Si    c    0.880439 *  0.027807 *  0.867446 *   4.00000    1.000000    
     59 Si    c    0.154030 *  0.118267 *  0.530024 *   4.00000    1.000000    
     60 Si    c    0.971358 *  0.848545 *  0.199600 *   4.00000    1.000000    
     61 O2    c    0.922694 *  0.995537 *  0.001952 *   0.87073    1.000000    
     62 O2    c    0.001041 *  0.928392 *  0.332503 *   0.87073    1.000000    
     63 O3    c    0.055010 *  0.059098 *  0.660568 *   1.33043    1.000000    
     64 O2    c    0.075632 *  0.995401 *  0.497737 *   0.87073    1.000000    
     65 O3    c    0.001382 *  0.060500 *  0.838790 *   1.33043    1.000000    
     66 O2    c    0.928013 *  0.928267 *  0.167388 *   0.87073    1.000000    
     67 O2    c    0.341679 *  0.579839 *  0.332666 *   0.87073    1.000000    
     68 O2    c    0.431171 *  0.781792 *  0.664284 *   0.87073    1.000000    
     69 O2    c    0.234481 *  0.654858 *  0.000507 *   0.87073    1.000000    
     70 O2    c    0.676000 *  0.425825 *  0.835177 *   0.87073    1.000000    
     71 O2    c    0.580068 *  0.238995 *  0.167105 *   0.87073    1.000000    
     72 O2    c    0.761582 *  0.338019 *  0.499243 *   0.87073    1.000000    
     73 O2    c    0.576240 *  0.336867 *  0.000925 *   0.87073    1.000000    
     74 O2    c    0.749085 *  0.427038 *  0.664963 *   0.87073    1.000000    
     75 O2    c    0.659778 *  0.238781 *  0.333365 *   0.87073    1.000000    
     76 O2    c    0.420960 *  0.654315 *  0.499553 *   0.87073    1.000000    
     77 O2    c    0.239386 *  0.580501 *  0.167112 *   0.87073    1.000000    
     78 O2    c    0.347638 *  0.779944 *  0.835436 *   0.87073    1.000000    
     79 O2    c    0.119157 *  0.209544 *  0.977330 *   0.87073    1.000000    
     80 O2    c    0.787873 *  0.912344 *  0.305735 *   0.87073    1.000000    
     81 O2    c    0.090991 *  0.874286 *  0.637007 *   0.87073    1.000000    
     82 O2    c    0.876074 *  0.784928 *  0.471153 *   0.87073    1.000000    
     83 O3    c    0.229868 *  0.098208 *  0.812821 *   1.33043    1.000000    
     84 O2    c    0.912124 *  0.124898 *  0.140340 *   0.87073    1.000000    
     85 O2    c    0.214022 *  0.124456 *  0.359714 *   0.87073    1.000000    
     86 O2    c    0.908887 *  0.783624 *  0.028716 *   0.87073    1.000000    
     87 O3    c    0.865612 *  0.099154 *  0.687225 *   1.33043    1.000000    
     88 O2    c    0.783168 *  0.874025 *  0.863025 *   0.87073    1.000000    
     89 O2    c    0.091011 *  0.208752 *  0.522495 *   0.87073    1.000000    
     90 O2    c    0.125106 *  0.912319 *  0.194151 *   0.87073    1.000000    
     91 O2    c    0.930723 *  0.860805 *  0.249941 *   0.87073    1.000000    
     92 O2    c    0.143145 *  0.065409 *  0.580196 *   0.87073    1.000000    
     93 O2    c    0.922780 *  0.066457 *  0.919575 *   0.87073    1.000000    
     94 O1    c    0.061172 *  0.124346 *  0.749803 *   1.73396    1.000000    
     95 O2    c    0.858806 *  0.928116 *  0.084692 *   0.87073    1.000000    
     96 O2    c    0.070550 *  0.927149 *  0.415102 *   0.87073    1.000000    
     97 O2    c    0.896856 *  0.200866 *  0.981739 *   0.87073    1.000000    
     98 O2    c    0.794944 *  0.697591 *  0.312428 *   0.87073    1.000000    
     99 O2    c    0.293664 *  0.105006 *  0.649322 *   0.87073    1.000000    
    100 O2    c    0.095576 *  0.787617 *  0.477512 *   0.87073    1.000000    
    101 O1    c    0.207626 *  0.317520 *  0.813984 *   1.73396    1.000000    
    102 O2    c    0.697235 *  0.903315 *  0.146843 *   0.87073    1.000000    
    103 O2    c    0.206367 *  0.902353 *  0.352910 *   0.87073    1.000000    
    104 O2    c    0.693981 *  0.789097 *  0.022250 *   0.87073    1.000000    
    105 O1    c    0.108252 *  0.316916 *  0.685798 *   1.73396    1.000000    
    106 O2    c    0.806043 *  0.102190 *  0.851114 *   0.87073    1.000000    
    107 O2    c    0.305421 *  0.201197 *  0.518467 *   0.87073    1.000000    
    108 O2    c    0.903133 *  0.697505 *  0.187441 *   0.87073    1.000000    
    109 O2    c    0.323826 *  0.647099 *  0.249890 *   0.87073    1.000000    
    110 O2    c    0.354624 *  0.674777 *  0.582906 *   0.87073    1.000000    
    111 O2    c    0.321388 *  0.675996 *  0.917235 *   0.87073    1.000000    
    112 O2    c    0.679169 *  0.361611 *  0.750134 *   0.87073    1.000000    
    113 O2    c    0.644363 *  0.320341 *  0.084317 *   0.87073    1.000000    
    114 O2    c    0.678105 *  0.322693 *  0.415989 *   0.87073    1.000000    
    115 O2    c    0.369962 *  0.324634 *  0.969907 *   0.87073    1.000000    
    116 O2    c    0.670927 *  0.043998 *  0.304576 *   0.87073    1.000000    
    117 O2    c    0.955464 *  0.626038 *  0.635019 *   0.87073    1.000000    
    118 O2    c    0.627495 *  0.667744 *  0.470339 *   0.87073    1.000000    
    119 O2    c    0.339405 *  0.965530 *  0.804954 *   0.87073    1.000000    
    120 O2    c    0.044245 *  0.373816 *  0.138651 *   0.87073    1.000000    
    121 O2    c    0.330440 *  0.373346 *  0.361433 *   0.87073    1.000000    
    122 O2    c    0.040010 *  0.666667 *  0.029454 *   0.87073    1.000000    
    123 O2    c    0.622855 *  0.967189 *  0.695028 *   0.87073    1.000000    
    124 O2    c    0.669754 *  0.625977 *  0.864598 *   0.87073    1.000000    
    125 O2    c    0.954790 *  0.323448 *  0.530221 *   0.87073    1.000000    
    126 O2    c    0.373754 *  0.044424 *  0.195650 *   0.87073    1.000000    
    127 O2    c    0.768162 *  0.302013 *  0.011776 *   0.87073    1.000000    
    128 O2    c    0.696152 *  0.466844 *  0.343178 *   0.87073    1.000000    
    129 O2    c    0.524003 *  0.236706 *  0.678885 *   0.87073    1.000000    
    130 O2    c    0.227453 *  0.687960 *  0.511492 *   0.87073    1.000000    
    131 O3    c    0.298580 *  0.547832 *  0.841201 *   1.33043    1.000000    
    132 O2    c    0.466884 *  0.771918 *  0.177270 *   0.87073    1.000000    
    133 O2    c    0.305726 *  0.771371 *  0.322640 *   0.87073    1.000000    
    134 O2    c    0.462055 *  0.688729 *  0.988639 *   0.87073    1.000000    
    135 O3    c    0.248856 *  0.547717 *  0.658908 *   1.33043    1.000000    
    136 O2    c    0.708168 *  0.234550 *  0.821224 *   0.87073    1.000000    
    137 O2    c    0.535628 *  0.303697 *  0.488482 *   0.87073    1.000000    
    138 O2    c    0.771330 *  0.466553 *  0.156799 *   0.87073    1.000000    
    139 O2    c    0.780820 *  0.531937 *  0.029161 *   0.87073    1.000000    
    140 O2    c    0.465733 *  0.250691 *  0.360059 *   0.87073    1.000000    
    141 O2    c    0.741660 *  0.223523 *  0.692482 *   0.87073    1.000000    
    142 O2    c    0.212648 *  0.460997 *  0.530160 *   0.87073    1.000000    
    143 O2    c    0.530624 *  0.744009 *  0.863158 *   0.87073    1.000000    
    144 O2    c    0.250609 *  0.786355 *  0.194109 *   0.87073    1.000000    
    145 O2    c    0.536346 *  0.785952 *  0.305593 *   0.87073    1.000000    
    146 O2    c    0.249924 *  0.462094 *  0.969942 *   0.87073    1.000000    
    147 O2    c    0.212258 *  0.742932 *  0.636690 *   0.87073    1.000000    
    148 O2    c    0.478135 *  0.222416 *  0.807892 *   0.87073    1.000000    
    149 O2    c    0.752942 *  0.534241 *  0.471161 *   0.87073    1.000000    
    150 O2    c    0.786108 *  0.250424 *  0.140261 *   0.87073    1.000000    
    151 O3    c    0.214966 *  0.303605 *  0.900000 *   1.33043    1.000000    
    152 O2    c    0.676619 *  0.910173 *  0.231646 *   0.87073    1.000000    
    153 O2    c    0.091898 *  0.758563 *  0.563522 *   0.87073    1.000000    
    154 O2    c    0.767264 *  0.675982 *  0.397179 *   0.87073    1.000000    
    155 O2    c    0.323082 *  0.104254 *  0.734864 *   0.87073    1.000000    
    156 O2    c    0.907113 *  0.231545 *  0.066257 *   0.87073    1.000000    
    157 O2    c    0.325766 *  0.231565 *  0.433902 *   0.87073    1.000000    
    158 O2    c    0.909079 *  0.675257 *  0.102688 *   0.87073    1.000000    
    159 O2    c    0.777118 *  0.103622 *  0.765252 *   0.87073    1.000000    
    160 O2    c    0.667062 *  0.758275 *  0.936315 *   0.87073    1.000000    
    161 O3    c    0.088479 *  0.302652 *  0.600049 *   1.33043    1.000000    
    162 O2    c    0.233681 *  0.909299 *  0.268272 *   0.87073    1.000000    
    163 O2    c    0.576632 *  0.551352 *  0.988856 *   0.87073    1.000000    
    164 O2    c    0.443288 *  0.029138 *  0.324147 *   0.87073    1.000000    
    165 O3    c    0.955564 *  0.411841 *  0.662030 *   1.33043    1.000000    
    166 O2    c    0.413703 *  0.439305 *  0.489684 *   0.87073    1.000000    
    167 O2    c    0.570579 *  0.975159 *  0.821336 *   0.87073    1.000000    
    168 O2    c    0.029404 *  0.586606 *  0.158476 *   0.87073    1.000000    
    169 O2    c    0.557832 *  0.586444 *  0.341501 *   0.87073    1.000000    
    170 O2    c    0.026304 *  0.439050 *  0.010304 *   0.87073    1.000000    
    171 O2    c    0.401547 *  0.976814 *  0.678203 *   0.87073    1.000000    
    172 O3    c    0.455378 *  0.411186 *  0.838136 *   1.33043    1.000000    
    173 O2    c    0.975914 *  0.550569 *  0.511515 *   0.87073    1.000000    
    174 O2    c    0.586489 *  0.029483 *  0.175917 *   0.87073    1.000000    
    175 O2    c    0.583100 *  0.165373 *  0.250172 *   0.87073    1.000000    
    176 O2    c    0.835917 *  0.413766 *  0.583562 *   0.87073    1.000000    
    177 O2    c    0.579175 *  0.415009 *  0.916718 *   0.87073    1.000000    
    178 O2    c    0.416972 *  0.838970 *  0.749711 *   0.87073    1.000000    
    179 O2    c    0.164073 *  0.582311 *  0.084098 *   0.87073    1.000000    
    180 O2    c    0.418621 *  0.581967 *  0.415808 *   0.87073    1.000000    
    181 F     c    0.452598 *  0.905095 *  0.249976 *   0.56000    1.000000    
    182 F     c    0.093764 *  0.515528 *  0.593564 *   0.56000    1.000000    
    183 F     c    0.422858 *  0.516744 *  0.906354 *   0.56000    1.000000    
    184 F     c    0.546120 *  0.098082 *  0.749882 *   0.56000    1.000000    
    185 F     c    0.903982 *  0.451726 *  0.084320 *   0.56000    1.000000    
    186 F     c    0.549391 *  0.452817 *  0.415880 *   0.56000    1.000000    
    187 O2    s    0.918629 *  0.995218 *  0.002113 *  -2.87073    1.000000    
    188 O2    s    0.001011 *  0.924179 *  0.332527 *  -2.87073    1.000000    
    189 O3    s    0.063309 *  0.063281 *  0.660169 *  -3.33043    1.000000    
    190 O2    s    0.079072 *  0.995044 *  0.497609 *  -2.87073    1.000000    
    191 O3    s    0.997362 *  0.064521 *  0.839272 *  -3.33043    1.000000    
    192 O2    s    0.923890 *  0.924116 *  0.167356 *  -2.87073    1.000000    
    193 O2    s    0.353534 *  0.587371 *  0.332666 *  -2.87073    1.000000    
    194 O2    s    0.421612 *  0.783169 *  0.664671 *  -2.87073    1.000000    
    195 O2    s    0.230257 *  0.643318 *  0.000401 *  -2.87073    1.000000    
    196 O2    s    0.663034 *  0.418121 *  0.834721 *  -2.87073    1.000000    
    197 O2    s    0.587556 *  0.234649 *  0.167076 *  -2.87073    1.000000    
    198 O2    s    0.765809 *  0.349565 *  0.499344 *  -2.87073    1.000000    
    199 O2    s    0.583686 *  0.348409 *  0.000853 *  -2.87073    1.000000    
    200 O2    s    0.754145 *  0.419223 *  0.665422 *  -2.87073    1.000000    
    201 O2    s    0.648012 *  0.234531 *  0.333344 *  -2.87073    1.000000    
    202 O2    s    0.413652 *  0.642780 *  0.499662 *  -2.87073    1.000000    
    203 O2    s    0.235015 *  0.588004 *  0.167151 *  -2.87073    1.000000    
    204 O2    s    0.358705 *  0.781686 *  0.835074 *  -2.87073    1.000000    
    205 O2    s    0.115411 *  0.212006 *  0.974141 *  -2.87073    1.000000    
    206 O2    s    0.784298 *  0.905594 *  0.303161 *  -2.87073    1.000000    
    207 O2    s    0.096395 *  0.876197 *  0.634503 *  -2.87073    1.000000    
    208 O2    s    0.879306 *  0.781301 *  0.468561 *  -2.87073    1.000000    
    209 O3    s    0.234633 *  0.103056 *  0.809617 *  -3.33043    1.000000    
    210 O2    s    0.905278 *  0.121599 *  0.137766 *  -2.87073    1.000000    
    211 O2    s    0.217526 *  0.121189 *  0.362273 *  -2.87073    1.000000    
    212 O2    s    0.902174 *  0.780193 *  0.031298 *  -2.87073    1.000000    
    213 O3    s    0.865662 *  0.103837 *  0.690399 *  -3.33043    1.000000    
    214 O2    s    0.779434 *  0.875990 *  0.865509 *  -2.87073    1.000000    
    215 O2    s    0.097226 *  0.211214 *  0.525702 *  -2.87073    1.000000    
    216 O2    s    0.121921 *  0.905557 *  0.196732 *  -2.87073    1.000000    
    217 O2    s    0.929337 *  0.858032 *  0.249943 *  -2.87073    1.000000    
    218 O2    s    0.144653 *  0.067436 *  0.580043 *  -2.87073    1.000000    
    219 O2    s    0.923126 *  0.068283 *  0.919763 *  -2.87073    1.000000    
    220 O1    s    0.063996 *  0.130061 *  0.749778 *  -3.73396    1.000000    
    221 O2    s    0.856120 *  0.926821 *  0.084660 *  -2.87073    1.000000    
    222 O2    s    0.071941 *  0.925974 *  0.415142 *  -2.87073    1.000000    
    223 O2    s    0.904536 *  0.202594 *  0.984449 *  -2.87073    1.000000    
    224 O2    s    0.793756 *  0.703762 *  0.315042 *  -2.87073    1.000000    
    225 O2    s    0.288098 *  0.096732 *  0.651537 *  -2.87073    1.000000    
    226 O2    s    0.088841 *  0.786619 *  0.480371 *  -2.87073    1.000000    
    227 O1    s    0.207680 *  0.310084 *  0.815769 *  -3.73396    1.000000    
    228 O2    s    0.703433 *  0.910668 *  0.149486 *  -2.87073    1.000000    
    229 O2    s    0.207610 *  0.909814 *  0.350288 *  -2.87073    1.000000    
    230 O2    s    0.699649 *  0.787883 *  0.019432 *  -2.87073    1.000000    
    231 O1    s    0.100747 *  0.309558 *  0.683990 *  -3.73396    1.000000    
    232 O2    s    0.803794 *  0.094363 *  0.848814 *  -2.87073    1.000000    
    233 O2    s    0.299422 *  0.202864 *  0.515715 *  -2.87073    1.000000    
    234 O2    s    0.910519 *  0.703667 *  0.184831 *  -2.87073    1.000000    
    235 O2    s    0.329712 *  0.658801 *  0.249908 *  -2.87073    1.000000    
    236 O2    s    0.344477 *  0.669355 *  0.582584 *  -2.87073    1.000000    
    237 O2    s    0.326014 *  0.670473 *  0.917535 *  -2.87073    1.000000    
    238 O2    s    0.673415 *  0.350030 *  0.750097 *  -2.87073    1.000000    
    239 O2    s    0.656041 *  0.326320 *  0.084259 *  -2.87073    1.000000    
    240 O2    s    0.672292 *  0.328493 *  0.415980 *  -2.87073    1.000000    
    241 O2    s    0.373459 *  0.333958 *  0.967919 *  -2.87073    1.000000    
    242 O2    s    0.660968 *  0.037318 *  0.302295 *  -2.87073    1.000000    
    243 O2    s    0.961849 *  0.623159 *  0.633327 *  -2.87073    1.000000    
    244 O2    s    0.624192 *  0.657846 *  0.468028 *  -2.87073    1.000000    
    245 O2    s    0.349717 *  0.972417 *  0.802774 *  -2.87073    1.000000    
    246 O2    s    0.037369 *  0.376981 *  0.136392 *  -2.87073    1.000000    
    247 O2    s    0.340461 *  0.376557 *  0.363679 *  -2.87073    1.000000    
    248 O2    s    0.033527 *  0.656797 *  0.031783 *  -2.87073    1.000000    
    249 O2    s    0.619542 *  0.974034 *  0.697201 *  -2.87073    1.000000    
    250 O2    s    0.660511 *  0.623083 *  0.866377 *  -2.87073    1.000000    
    251 O2    s    0.960645 *  0.332807 *  0.532209 *  -2.87073    1.000000    
    252 O2    s    0.377036 *  0.037658 *  0.197914 *  -2.87073    1.000000    
    253 O2    s    0.774990 *  0.309506 *  0.014926 *  -2.87073    1.000000    
    254 O2    s    0.688584 *  0.466208 *  0.346272 *  -2.87073    1.000000    
    255 O2    s    0.525254 *  0.229931 *  0.681942 *  -2.87073    1.000000    
    256 O2    s    0.220886 *  0.681134 *  0.514245 *  -2.87073    1.000000    
    257 O3    s    0.308032 *  0.552891 *  0.844944 *  -3.33043    1.000000    
    258 O2    s    0.466396 *  0.778976 *  0.180390 *  -2.87073    1.000000    
    259 O2    s    0.313254 *  0.778416 *  0.319513 *  -2.87073    1.000000    
    260 O2    s    0.461753 *  0.681901 *  0.985885 *  -2.87073    1.000000    
    261 O3    s    0.244542 *  0.552838 *  0.655139 *  -3.33043    1.000000    
    262 O2    s    0.700274 *  0.227844 *  0.818163 *  -2.87073    1.000000    
    263 O2    s    0.536173 *  0.311153 *  0.485316 *  -2.87073    1.000000    
    264 O2    s    0.778272 *  0.465868 *  0.153726 *  -2.87073    1.000000    
    265 O2    s    0.786327 *  0.529395 *  0.031675 *  -2.87073    1.000000    
    266 O2    s    0.468431 *  0.258393 *  0.362690 *  -2.87073    1.000000    
    267 O2    s    0.734474 *  0.219020 *  0.695102 *  -2.87073    1.000000    
    268 O2    s    0.209233 *  0.464085 *  0.532191 *  -2.87073    1.000000    
    269 O2    s    0.529216 *  0.738167 *  0.865411 *  -2.87073    1.000000    
    270 O2    s    0.258490 *  0.791530 *  0.196768 *  -2.87073    1.000000    
    271 O2    s    0.533630 *  0.791153 *  0.302974 *  -2.87073    1.000000    
    272 O2    s    0.256394 *  0.465146 *  0.967902 *  -2.87073    1.000000    
    273 O2    s    0.207900 *  0.737302 *  0.634448 *  -2.87073    1.000000    
    274 O2    s    0.480845 *  0.217908 *  0.805210 *  -2.87073    1.000000    
    275 O2    s    0.744732 *  0.531440 *  0.468590 *  -2.87073    1.000000    
    276 O2    s    0.791070 *  0.258158 *  0.137611 *  -2.87073    1.000000    
    277 O3    s    0.224412 *  0.313376 *  0.902755 *  -3.33043    1.000000    
    278 O2    s    0.667010 *  0.909835 *  0.232521 *  -2.87073    1.000000    
    279 O2    s    0.092075 *  0.750296 *  0.564163 *  -2.87073    1.000000    
    280 O2    s    0.757953 *  0.666210 *  0.398071 *  -2.87073    1.000000    
    281 O2    s    0.332574 *  0.103770 *  0.735353 *  -2.87073    1.000000    
    282 O2    s    0.906931 *  0.240887 *  0.067178 *  -2.87073    1.000000    
    283 O2    s    0.335227 *  0.240897 *  0.432972 *  -2.87073    1.000000    
    284 O2    s    0.908553 *  0.665436 *  0.101819 *  -2.87073    1.000000    
    285 O2    s    0.767262 *  0.103155 *  0.764768 *  -2.87073    1.000000    
    286 O2    s    0.658598 *  0.750091 *  0.935702 *  -2.87073    1.000000    
    287 O3    s    0.088809 *  0.312353 *  0.597233 *  -3.33043    1.000000    
    288 O2    s    0.243049 *  0.909075 *  0.267384 *  -2.87073    1.000000    
    289 O2    s    0.573471 *  0.552174 *  0.985990 *  -2.87073    1.000000    
    290 O2    s    0.442978 *  0.024259 *  0.320747 *  -2.87073    1.000000    
    291 O3    s    0.957849 *  0.418163 *  0.657961 *  -3.33043    1.000000    
    292 O2    s    0.418503 *  0.439291 *  0.486317 *  -2.87073    1.000000    
    293 O2    s    0.570329 *  0.980835 *  0.818199 *  -2.87073    1.000000    
    294 O2    s    0.024394 *  0.582026 *  0.155050 *  -2.87073    1.000000    
    295 O2    s    0.558266 *  0.581876 *  0.344921 *  -2.87073    1.000000    
    296 O2    s    0.021515 *  0.439043 *  0.013678 *  -2.87073    1.000000    
    297 O2    s    0.407509 *  0.982422 *  0.681418 *  -2.87073    1.000000    
    298 O3    s    0.459308 *  0.417610 *  0.842201 *  -3.33043    1.000000    
    299 O2    s    0.979834 *  0.551470 *  0.514341 *  -2.87073    1.000000    
    300 O2    s    0.581995 *  0.024578 *  0.179319 *  -2.87073    1.000000    
    301 O2    s    0.577603 *  0.154414 *  0.250165 *  -2.87073    1.000000    
    302 O2    s    0.845311 *  0.418593 *  0.583268 *  -2.87073    1.000000    
    303 O2    s    0.574394 *  0.419658 *  0.917001 *  -2.87073    1.000000    
    304 O2    s    0.423085 *  0.851005 *  0.749760 *  -2.87073    1.000000    
    305 O2    s    0.153071 *  0.576672 *  0.084059 *  -2.87073    1.000000    
    306 O2    s    0.424036 *  0.576376 *  0.415856 *  -2.87073    1.000000    
    307 F     s    0.452386 *  0.904726 *  0.249973 *  -1.56000    1.000000    
    308 F     s    0.094014 *  0.508812 *  0.596665 *  -1.56000    1.000000    
    309 F     s    0.416038 *  0.510184 *  0.903343 *  -1.56000    1.000000    
    310 F     s    0.545895 *  0.097807 *  0.749867 *  -1.56000    1.000000    
    311 F     s    0.903694 *  0.451632 *  0.084325 *  -1.56000    1.000000    
    312 F     s    0.549648 *  0.452791 *  0.415894 *  -1.56000    1.000000    
--------------------------------------------------------------------------------



********************************************************************************
*  General input information                                                   *
********************************************************************************

  Species output for all configurations : 

--------------------------------------------------------------------------------
  Species    Type    Atomic    Atomic    Charge       Radii (Angs)     Library
                     Number     Mass       (e)     Cova   Ionic  VDW   Symbol
--------------------------------------------------------------------------------
    Si       Core       14      28.09   4.000000   1.200  0.000  2.100          
    O1       Core        8      16.00   1.733957   0.730  0.000  1.360          
    O1       Shell       8       0.00  -3.733957   0.730  0.000  1.360          
    O2       Core        8      16.00   0.870733   0.730  0.000  1.360          
    O2       Shell       8       0.00  -2.870733   0.730  0.000  1.360          
    O3       Core        8      16.00   1.330431   0.730  0.000  1.360          
    O3       Shell       8       0.00  -3.330431   0.730  0.000  1.360          
    F        Core        9      19.00   0.560000   0.710  0.000  1.300          
    F        Shell       9       0.00  -1.560000   0.710  0.000  1.300          
    Ge       Core       32      72.61   4.000000   1.170  0.000  1.750          
--------------------------------------------------------------------------------


  Lattice summation method               =    Ewald          (3-D)
                                         =    Parry          (2-D)
                                         =    Saunders et al (1-D)
  Accuracy factor for lattice sums       =   12.000


  Time limit = Infinity

  Maximum range for interatomic potentials =        16.000000 Angstroms

  Taper potentials to zero over   1.0000 Angstroms using polynomial

  General interatomic potentials :

--------------------------------------------------------------------------------
Atom  Types   Potential         A         B         C         D     Cutoffs(Ang)
  1     2                                                            Min    Max 
--------------------------------------------------------------------------------
Si   c O1   s Buckingham    0.132E+04 0.318      10.1      0.00     0.000 16.000
Si   c O2   s Buckingham    0.132E+04 0.318      10.1      0.00     0.000 16.000
Si   c O3   s Buckingham    0.132E+04 0.318      10.1      0.00     0.000 16.000
Ge   c O1   s Buckingham    0.150E+04 0.326      16.8      0.00     0.000 16.000
Ge   c O2   s Buckingham    0.150E+04 0.326      16.8      0.00     0.000 16.000
Ge   c O3   s Buckingham    0.150E+04 0.326      16.8      0.00     0.000 16.000
O1   s O1   s Buckingham    0.228E+05 0.149      10.9      0.00     0.000 16.000
O1   s O2   s Buckingham    0.228E+05 0.149      10.9      0.00     0.000 16.000
O1   s O3   s Buckingham    0.228E+05 0.149      10.9      0.00     0.000 16.000
O2   s O2   s Buckingham    0.228E+05 0.149      10.9      0.00     0.000 16.000
O2   s O3   s Buckingham    0.228E+05 0.149      10.9      0.00     0.000 16.000
O3   s O3   s Buckingham    0.228E+05 0.149      10.9      0.00     0.000 16.000
Si   c F    s Buckingham     977.     0.282      0.00      0.00     0.000 16.000
Ge   c F    s Buckingham     681.     0.320      0.00      0.00     0.000 16.000
F    s F    s Buckingham     540.     0.262      0.00      0.00     0.000 16.000
O1   s F    s Buckingham    0.168E+04 0.268      0.00      0.00     0.000 16.000
O2   s F    s Buckingham    0.168E+04 0.268      0.00      0.00     0.000 16.000
O3   s F    s Buckingham    0.168E+04 0.268      0.00      0.00     0.000 16.000
O2   c O2   s Spring (c-s)   76.0      0.00      0.00      0.00     0.000  0.800
O3   c O3   s Spring (c-s)   128.      0.00      0.00      0.00     0.000  0.800
O1   c O1   s Spring (c-s)   180.      0.00      0.00      0.00     0.000  0.800
F    c F    s Spring (c-s)   33.5      0.00      0.00      0.00     0.000  0.800
--------------------------------------------------------------------------------

  General Three-body potentials :

  Harmonic form:

--------------------------------------------------------------------------------
Atom    Atom    Atom           Force Constants            Theta     Cutoffs  
  1       2       3     (eVrad**-2/eVrad**-3/eVrad**-4)   (deg)  1-2  1-3  2-3
--------------------------------------------------------------------------------
Si    c O1    s O1    s  1.261        0.0000    0.0000   109.470 0.00 0.00 0.00
                                                                 1.90 1.90 3.50
Si    c O1    s O2    s  1.261        0.0000    0.0000   109.470 0.00 0.00 0.00
                                                                 1.90 1.90 3.50
Si    c O2    s O2    s  1.261        0.0000    0.0000   109.470 0.00 0.00 0.00
                                                                 1.90 1.90 3.50
--------------------------------------------------------------------------------

********************************************************************************
*  Output for configuration   1                                                *
********************************************************************************


  Components of energy : 

--------------------------------------------------------------------------------
  Interatomic potentials     =        2061.29346748 eV
  Three-body potentials      =           0.50809267 eV
  Monopole - monopole (real) =       -6583.24892265 eV
  Monopole - monopole (recip)=       -3191.29820543 eV
  Monopole - monopole (total)=       -9774.54712809 eV
  Neutralising energy        =          -6.45120670 eV
--------------------------------------------------------------------------------
  Total lattice energy       =       -7719.19677464 eV
--------------------------------------------------------------------------------
  Total lattice energy       =         -744784.4900 kJ/(mole unit cells)
--------------------------------------------------------------------------------


  Number of variables =      939

  Maximum number of calculations  =          1000
  Maximum Hessian update interval =            10
  Maximum step size               =   0.010000000
  Maximum parameter tolerance     =   0.000010000
  Maximum function  tolerance     =   0.000010000
  Maximum gradient  tolerance     =   0.001000000
  Maximum gradient  component     =   0.010000000

  Symmetry not applied to optimisation

  Cell parameters to be optimised using strains

  RFO method to be used

  DFP hessian update to be used

  Dumpfile to be written after every cycle

  Start of bulk optimisation :

  Cycle:      0 Energy:     -7719.196775  Gnorm:      0.010906  CPU:    1.045
  ** Hessian has required structure
  Cycle:      1 Energy:     -7719.200660  Gnorm:      0.010498  CPU:    4.102
  ** Hessian has required structure
  Cycle:      2 Energy:     -7719.205384  Gnorm:      0.009982  CPU:    7.157
  ** Hessian has required structure
  Cycle:      3 Energy:     -7719.209719  Gnorm:      0.009484  CPU:   10.212
  ** Hessian has required structure
  Cycle:      4 Energy:     -7719.213638  Gnorm:      0.009011  CPU:   13.317
  ** Hessian has required structure
  Cycle:      5 Energy:     -7719.217181  Gnorm:      0.008562  CPU:   16.371
  ** Hessian has required structure
  Cycle:      6 Energy:     -7719.220383  Gnorm:      0.008135  CPU:   19.425
  ** Hessian has required structure
  Cycle:      7 Energy:     -7719.223278  Gnorm:      0.007729  CPU:   22.481
  ** Hessian has required structure
  Cycle:      8 Energy:     -7719.225894  Gnorm:      0.007343  CPU:   25.536
  ** Hessian has required structure
  Cycle:      9 Energy:     -7719.228258  Gnorm:      0.006977  CPU:   28.592
  ** Hessian has required structure
  Cycle:     10 Energy:     -7719.230393  Gnorm:      0.006628  CPU:   31.647
  ** Hessian has required structure
  Cycle:     11 Energy:     -7719.232322  Gnorm:      0.006297  CPU:   35.361
  ** Hessian has required structure
  Cycle:     12 Energy:     -7719.234065  Gnorm:      0.005983  CPU:   38.416
  ** Hessian has required structure
  Cycle:     13 Energy:     -7719.235639  Gnorm:      0.005685  CPU:   41.471
  ** Hessian has required structure
  Cycle:     14 Energy:     -7719.237061  Gnorm:      0.005401  CPU:   44.526
  ** Hessian has required structure
  Cycle:     15 Energy:     -7719.238345  Gnorm:      0.005131  CPU:   47.581
  ** Hessian has required structure
  Cycle:     16 Energy:     -7719.239504  Gnorm:      0.004875  CPU:   50.636
  ** Hessian has required structure
  Cycle:     17 Energy:     -7719.240551  Gnorm:      0.004632  CPU:   53.691
  ** Hessian has required structure
  Cycle:     18 Energy:     -7719.241496  Gnorm:      0.004401  CPU:   56.746
  ** Hessian has required structure
  Cycle:     19 Energy:     -7719.242350  Gnorm:      0.004181  CPU:   59.801
  ** Hessian has required structure
  Cycle:     20 Energy:     -7719.243121  Gnorm:      0.003972  CPU:   62.856
  ** Hessian has required structure
  Cycle:     21 Energy:     -7719.243816  Gnorm:      0.003774  CPU:   66.570
  ** Hessian has required structure
  Cycle:     22 Energy:     -7719.244444  Gnorm:      0.003585  CPU:   69.626
  ** Hessian has required structure
  Cycle:     23 Energy:     -7719.245011  Gnorm:      0.003406  CPU:   72.682
  ** Hessian has required structure
  Cycle:     24 Energy:     -7719.245523  Gnorm:      0.003236  CPU:   75.738
  ** Hessian has required structure
  Cycle:     25 Energy:     -7719.245985  Gnorm:      0.003075  CPU:   78.793
  ** Hessian has required structure
  Cycle:     26 Energy:     -7719.246402  Gnorm:      0.002921  CPU:   81.849
  ** Hessian has required structure
  Cycle:     27 Energy:     -7719.246779  Gnorm:      0.002775  CPU:   84.904
  ** Hessian has required structure
  Cycle:     28 Energy:     -7719.247119  Gnorm:      0.002637  CPU:   87.960
  ** Hessian has required structure
  Cycle:     29 Energy:     -7719.247425  Gnorm:      0.002505  CPU:   91.015
  ** Hessian has required structure
  Cycle:     30 Energy:     -7719.247702  Gnorm:      0.002380  CPU:   94.071
  ** Hessian has required structure
  Cycle:     31 Energy:     -7719.247952  Gnorm:      0.002261  CPU:   97.785
  ** Hessian has required structure
  Cycle:     32 Energy:     -7719.248178  Gnorm:      0.002148  CPU:  100.840
  ** Hessian has required structure
  Cycle:     33 Energy:     -7719.248381  Gnorm:      0.002041  CPU:  103.896
  ** Hessian has required structure
  Cycle:     34 Energy:     -7719.248565  Gnorm:      0.001939  CPU:  106.953
  ** Hessian has required structure
  Cycle:     35 Energy:     -7719.248731  Gnorm:      0.001842  CPU:  110.007
  ** Hessian has required structure
  Cycle:     36 Energy:     -7719.248881  Gnorm:      0.001750  CPU:  113.063
  ** Hessian has required structure
  Cycle:     37 Energy:     -7719.249016  Gnorm:      0.001662  CPU:  116.118
  ** Hessian has required structure
  Cycle:     38 Energy:     -7719.249138  Gnorm:      0.001579  CPU:  119.174
  ** Hessian has required structure
  Cycle:     39 Energy:     -7719.249248  Gnorm:      0.001500  CPU:  122.230
  ** Hessian has required structure
  Cycle:     40 Energy:     -7719.249347  Gnorm:      0.001425  CPU:  125.285
  ** Hessian has required structure
  Cycle:     41 Energy:     -7719.249437  Gnorm:      0.001354  CPU:  129.001
  ** Hessian has required structure
  Cycle:     42 Energy:     -7719.249517  Gnorm:      0.001286  CPU:  132.056
  ** Hessian has required structure
  Cycle:     43 Energy:     -7719.249590  Gnorm:      0.001222  CPU:  135.113
  ** Hessian has required structure
  Cycle:     44 Energy:     -7719.249656  Gnorm:      0.001161  CPU:  138.169
  ** Hessian has required structure
  Cycle:     45 Energy:     -7719.249716  Gnorm:      0.001103  CPU:  141.226
  ** Hessian has required structure
  Cycle:     46 Energy:     -7719.249769  Gnorm:      0.001048  CPU:  144.282
  ** Hessian has required structure
  Cycle:     47 Energy:     -7719.249799  Gnorm:      0.001017  CPU:  146.676
  ** Hessian has required structure
  Cycle:     48 Energy:     -7719.249822  Gnorm:      0.000991  CPU:  149.070
  ** Hessian has required structure
  Cycle:     49 Energy:     -7719.249843  Gnorm:      0.000968  CPU:  151.464
  ** Hessian has required structure
  Cycle:     50 Energy:     -7719.249861  Gnorm:      0.000947  CPU:  153.858
  ** Hessian has required structure
  Cycle:     51 Energy:     -7719.249885  Gnorm:      0.000918  CPU:  156.909
  ** Hessian has required structure
  Cycle:     52 Energy:     -7719.249904  Gnorm:      0.000895  CPU:  159.302
  ** Hessian has required structure
  Cycle:     53 Energy:     -7719.249920  Gnorm:      0.000874  CPU:  161.696
  ** Hessian has required structure
  Cycle:     54 Energy:     -7719.249935  Gnorm:      0.000855  CPU:  164.090
  ** Hessian has required structure
  Cycle:     55 Energy:     -7719.249949  Gnorm:      0.000837  CPU:  166.484
  ** Hessian has required structure
  Cycle:     56 Energy:     -7719.249962  Gnorm:      0.000820  CPU:  168.877
  ** Hessian has required structure
  Cycle:     57 Energy:     -7719.249975  Gnorm:      0.000803  CPU:  171.271
  ** Hessian has required structure
  Cycle:     58 Energy:     -7719.249986  Gnorm:      0.000786  CPU:  173.665
  ** Hessian has required structure
  Cycle:     59 Energy:     -7719.249998  Gnorm:      0.000770  CPU:  176.059
  ** Hessian has required structure
  Cycle:     60 Energy:     -7719.250009  Gnorm:      0.000755  CPU:  178.469
  ** Hessian has required structure
  Cycle:     61 Energy:     -7719.250024  Gnorm:      0.000732  CPU:  181.522
  ** Hessian has required structure
  Cycle:     62 Energy:     -7719.250036  Gnorm:      0.000713  CPU:  183.916
  ** Hessian has required structure
  Cycle:     63 Energy:     -7719.250047  Gnorm:      0.000697  CPU:  186.310
  ** Hessian has required structure
  Cycle:     64 Energy:     -7719.250056  Gnorm:      0.000682  CPU:  188.704
  ** Hessian has required structure
  Cycle:     65 Energy:     -7719.250065  Gnorm:      0.000667  CPU:  191.096
  ** Hessian has required structure
  Cycle:     66 Energy:     -7719.250073  Gnorm:      0.000653  CPU:  193.490
  ** Hessian has required structure
  Cycle:     67 Energy:     -7719.250081  Gnorm:      0.000640  CPU:  195.883
  ** Hessian has required structure
  Cycle:     68 Energy:     -7719.250089  Gnorm:      0.000627  CPU:  198.277
  ** Hessian has required structure
  Cycle:     69 Energy:     -7719.250096  Gnorm:      0.000614  CPU:  200.671
  ** Hessian has required structure
  Cycle:     70 Energy:     -7719.250103  Gnorm:      0.000601  CPU:  203.063
  ** Hessian has required structure
  Cycle:     71 Energy:     -7719.250112  Gnorm:      0.000583  CPU:  206.114
  ** Hessian has required structure
  Cycle:     72 Energy:     -7719.250120  Gnorm:      0.000568  CPU:  208.509
  ** Hessian has required structure
  Cycle:     73 Energy:     -7719.250127  Gnorm:      0.000555  CPU:  210.902
  ** Hessian has required structure
  Cycle:     74 Energy:     -7719.250133  Gnorm:      0.000543  CPU:  213.296
  ** Hessian has required structure
  Cycle:     75 Energy:     -7719.250138  Gnorm:      0.000532  CPU:  215.690
  ** Hessian has required structure
  Cycle:     76 Energy:     -7719.250144  Gnorm:      0.000521  CPU:  218.085
  ** Hessian has required structure
  Cycle:     77 Energy:     -7719.250149  Gnorm:      0.000510  CPU:  220.480
  ** Hessian has required structure
  Cycle:     78 Energy:     -7719.250153  Gnorm:      0.000499  CPU:  222.873
  ** Hessian has required structure
  Cycle:     79 Energy:     -7719.250158  Gnorm:      0.000489  CPU:  225.266
  ** Hessian has required structure
  Cycle:     80 Energy:     -7719.250162  Gnorm:      0.000479  CPU:  227.660
  ** Hessian has required structure
  Cycle:     81 Energy:     -7719.250168  Gnorm:      0.000465  CPU:  230.712
  ** Hessian has required structure
  Cycle:     82 Energy:     -7719.250173  Gnorm:      0.000453  CPU:  233.105
  ** Hessian has required structure
  Cycle:     83 Energy:     -7719.250178  Gnorm:      0.000443  CPU:  235.499
  ** Hessian has required structure
  Cycle:     84 Energy:     -7719.250181  Gnorm:      0.000433  CPU:  237.894
  ** Hessian has required structure
  Cycle:     85 Energy:     -7719.250185  Gnorm:      0.000424  CPU:  240.287
  ** Hessian has required structure
  Cycle:     86 Energy:     -7719.250188  Gnorm:      0.000415  CPU:  242.681
  ** Hessian has required structure
  Cycle:     87 Energy:     -7719.250191  Gnorm:      0.000406  CPU:  245.075
  ** Hessian has required structure
  Cycle:     88 Energy:     -7719.250195  Gnorm:      0.000398  CPU:  247.467
  ** Hessian has required structure
  Cycle:     89 Energy:     -7719.250197  Gnorm:      0.000390  CPU:  249.861
  ** Hessian has required structure
  Cycle:     90 Energy:     -7719.250200  Gnorm:      0.000382  CPU:  252.255
  ** Hessian has required structure
  Cycle:     91 Energy:     -7719.250204  Gnorm:      0.000370  CPU:  255.306
  ** Hessian has required structure
  Cycle:     92 Energy:     -7719.250207  Gnorm:      0.000361  CPU:  257.802
  ** Hessian has required structure
  Cycle:     93 Energy:     -7719.250210  Gnorm:      0.000353  CPU:  260.194
  ** Hessian has required structure
  Cycle:     94 Energy:     -7719.250212  Gnorm:      0.000345  CPU:  262.588
  ** Hessian has required structure
  Cycle:     95 Energy:     -7719.250215  Gnorm:      0.000338  CPU:  264.981
  ** Hessian has required structure
  Cycle:     96 Energy:     -7719.250217  Gnorm:      0.000331  CPU:  267.375
  ** Hessian has required structure
  Cycle:     97 Energy:     -7719.250219  Gnorm:      0.000324  CPU:  269.768
  ** Hessian has required structure
  Cycle:     98 Energy:     -7719.250221  Gnorm:      0.000317  CPU:  272.160
  ** Hessian has required structure
  Cycle:     99 Energy:     -7719.250222  Gnorm:      0.000311  CPU:  274.555
  ** Hessian has required structure
  Cycle:    100 Energy:     -7719.250224  Gnorm:      0.000304  CPU:  276.948
  ** Hessian has required structure
  Cycle:    101 Energy:     -7719.250227  Gnorm:      0.000295  CPU:  280.000
  ** Hessian has required structure
  Cycle:    102 Energy:     -7719.250229  Gnorm:      0.000288  CPU:  282.396
  ** Hessian has required structure
  Cycle:    103 Energy:     -7719.250230  Gnorm:      0.000281  CPU:  284.853
  ** Hessian has required structure
  Cycle:    104 Energy:     -7719.250232  Gnorm:      0.000275  CPU:  287.245
  ** Hessian has required structure
  Cycle:    105 Energy:     -7719.250233  Gnorm:      0.000269  CPU:  289.640
  ** Hessian has required structure
  Cycle:    106 Energy:     -7719.250235  Gnorm:      0.000264  CPU:  292.035
  ** Hessian has required structure
  Cycle:    107 Energy:     -7719.250236  Gnorm:      0.000258  CPU:  294.428
  ** Hessian has required structure
  Cycle:    108 Energy:     -7719.250237  Gnorm:      0.000253  CPU:  296.821
  ** Hessian has required structure
  Cycle:    109 Energy:     -7719.250238  Gnorm:      0.000248  CPU:  299.213
  ** Hessian has required structure
  Cycle:    110 Energy:     -7719.250240  Gnorm:      0.000243  CPU:  301.606
  ** Hessian has required structure
  Cycle:    111 Energy:     -7719.250241  Gnorm:      0.000235  CPU:  304.658
  ** Hessian has required structure
  Cycle:    112 Energy:     -7719.250242  Gnorm:      0.000229  CPU:  307.051
  ** Hessian has required structure
  Cycle:    113 Energy:     -7719.250243  Gnorm:      0.000224  CPU:  309.455
  ** Hessian has required structure
  Cycle:    114 Energy:     -7719.250244  Gnorm:      0.000219  CPU:  311.850
  ** Hessian has required structure
  Cycle:    115 Energy:     -7719.250245  Gnorm:      0.000215  CPU:  314.241
  ** Hessian has required structure
  Cycle:    116 Energy:     -7719.250246  Gnorm:      0.000210  CPU:  316.634
  ** Hessian has required structure
  Cycle:    117 Energy:     -7719.250247  Gnorm:      0.000206  CPU:  319.026
  ** Hessian has required structure
  Cycle:    118 Energy:     -7719.250248  Gnorm:      0.000202  CPU:  321.420
  ** Hessian has required structure
  Cycle:    119 Energy:     -7719.250249  Gnorm:      0.000197  CPU:  323.881
  ** Hessian has required structure
  Cycle:    120 Energy:     -7719.250249  Gnorm:      0.000193  CPU:  326.274
  ** Hessian has required structure
  Cycle:    121 Energy:     -7719.250250  Gnorm:      0.000188  CPU:  329.325
  ** Hessian has required structure
  Cycle:    122 Energy:     -7719.250251  Gnorm:      0.000183  CPU:  331.719
  ** Hessian has required structure
  Cycle:    123 Energy:     -7719.250252  Gnorm:      0.000179  CPU:  334.113
  ** Hessian has required structure
  Cycle:    124 Energy:     -7719.250252  Gnorm:      0.000175  CPU:  336.506
  ** Hessian has required structure
  Cycle:    125 Energy:     -7719.250253  Gnorm:      0.000171  CPU:  338.899
  ** Hessian has required structure
  Cycle:    126 Energy:     -7719.250253  Gnorm:      0.000167  CPU:  341.324
  ** Hessian has required structure
  Cycle:    127 Energy:     -7719.250254  Gnorm:      0.000164  CPU:  343.716
  ** Hessian has required structure
  Cycle:    128 Energy:     -7719.250254  Gnorm:      0.000161  CPU:  346.110
  ** Hessian has required structure
  Cycle:    129 Energy:     -7719.250255  Gnorm:      0.000157  CPU:  348.504
  ** Hessian has required structure
  Cycle:    130 Energy:     -7719.250255  Gnorm:      0.000154  CPU:  350.897
  ** Hessian has required structure
  Cycle:    131 Energy:     -7719.250256  Gnorm:      0.000149  CPU:  353.949
  ** Hessian has required structure
  Cycle:    132 Energy:     -7719.250257  Gnorm:      0.000146  CPU:  356.341
  ** Hessian has required structure
  Cycle:    133 Energy:     -7719.250257  Gnorm:      0.000142  CPU:  358.735
  ** Hessian has required structure
  Cycle:    134 Energy:     -7719.250257  Gnorm:      0.000139  CPU:  361.142
  ** Hessian has required structure
  Cycle:    135 Energy:     -7719.250258  Gnorm:      0.000136  CPU:  363.536
  ** Hessian has required structure
  Cycle:    136 Energy:     -7719.250258  Gnorm:      0.000133  CPU:  365.929
  ** Hessian has required structure
  Cycle:    137 Energy:     -7719.250258  Gnorm:      0.000131  CPU:  368.323
  ** Hessian has required structure
  Cycle:    138 Energy:     -7719.250259  Gnorm:      0.000128  CPU:  370.714
  ** Hessian has required structure
  Cycle:    139 Energy:     -7719.250259  Gnorm:      0.000125  CPU:  373.107
  ** Hessian has required structure
  Cycle:    140 Energy:     -7719.250259  Gnorm:      0.000123  CPU:  375.501
  ** Hessian has required structure
  Cycle:    141 Energy:     -7719.250260  Gnorm:      0.000119  CPU:  378.617
  ** Hessian has required structure
  Cycle:    142 Energy:     -7719.250260  Gnorm:      0.000116  CPU:  381.225
  ** Hessian has required structure
  Cycle:    143 Energy:     -7719.250260  Gnorm:      0.000113  CPU:  383.619
  ** Hessian has required structure
  Cycle:    144 Energy:     -7719.250261  Gnorm:      0.000111  CPU:  386.231
  ** Hessian has required structure
  Cycle:    145 Energy:     -7719.250261  Gnorm:      0.000109  CPU:  388.676
  ** Hessian has required structure
  Cycle:    146 Energy:     -7719.250261  Gnorm:      0.000106  CPU:  391.267
  ** Hessian has required structure
  Cycle:    147 Energy:     -7719.250261  Gnorm:      0.000104  CPU:  393.674
  ** Hessian has required structure
  Cycle:    148 Energy:     -7719.250261  Gnorm:      0.000102  CPU:  396.066
  ** Hessian has required structure
  Cycle:    149 Energy:     -7719.250262  Gnorm:      0.000100  CPU:  398.461
  ** Hessian has required structure
  Cycle:    150 Energy:     -7719.250262  Gnorm:      0.000098  CPU:  400.856
  ** Hessian has required structure
  Cycle:    151 Energy:     -7719.250262  Gnorm:      0.000095  CPU:  403.906
  ** Hessian has required structure
  Cycle:    152 Energy:     -7719.250262  Gnorm:      0.000093  CPU:  406.299
  ** Hessian has required structure
  Cycle:    153 Energy:     -7719.250262  Gnorm:      0.000090  CPU:  408.896
  ** Hessian has required structure
  Cycle:    154 Energy:     -7719.250263  Gnorm:      0.000088  CPU:  411.291
  ** Hessian has required structure
  Cycle:    155 Energy:     -7719.250263  Gnorm:      0.000087  CPU:  413.685
  ** Hessian has required structure
  Cycle:    156 Energy:     -7719.250263  Gnorm:      0.000085  CPU:  416.078
  ** Hessian has required structure
  Cycle:    157 Energy:     -7719.250263  Gnorm:      0.000083  CPU:  418.472
  ** Hessian has required structure
  Cycle:    158 Energy:     -7719.250263  Gnorm:      0.000081  CPU:  420.866
  ** Hessian has required structure
  Cycle:    159 Energy:     -7719.250263  Gnorm:      0.000080  CPU:  423.257
  ** Hessian has required structure
  Cycle:    160 Energy:     -7719.250263  Gnorm:      0.000078  CPU:  425.652
  ** Hessian has required structure
  Cycle:    161 Energy:     -7719.250264  Gnorm:      0.000076  CPU:  428.906
  ** Hessian has required structure
  Cycle:    162 Energy:     -7719.250264  Gnorm:      0.000074  CPU:  431.300
  ** Hessian has required structure
  Cycle:    163 Energy:     -7719.250264  Gnorm:      0.000072  CPU:  433.693
  ** Hessian has required structure
  Cycle:    164 Energy:     -7719.250264  Gnorm:      0.000070  CPU:  436.087
  ** Hessian has required structure
  Cycle:    165 Energy:     -7719.250264  Gnorm:      0.000069  CPU:  438.481
  ** Hessian has required structure
  Cycle:    166 Energy:     -7719.250264  Gnorm:      0.000068  CPU:  440.874
  ** Hessian has required structure
  Cycle:    167 Energy:     -7719.250264  Gnorm:      0.000066  CPU:  443.266
  ** Hessian has required structure
  Cycle:    168 Energy:     -7719.250264  Gnorm:      0.000065  CPU:  445.660
  ** Hessian has required structure
  Cycle:    169 Energy:     -7719.250264  Gnorm:      0.000063  CPU:  448.054
  ** Hessian has required structure
  Cycle:    170 Energy:     -7719.250264  Gnorm:      0.000062  CPU:  450.448
  ** Hessian has required structure
  Cycle:    171 Energy:     -7719.250265  Gnorm:      0.000060  CPU:  453.500
  ** Hessian has required structure
  Cycle:    172 Energy:     -7719.250265  Gnorm:      0.000059  CPU:  455.893
  ** Hessian has required structure
  Cycle:    173 Energy:     -7719.250265  Gnorm:      0.000057  CPU:  458.286
  ** Hessian has required structure
  Cycle:    174 Energy:     -7719.250265  Gnorm:      0.000056  CPU:  460.681
  ** Hessian has required structure
  Cycle:    175 Energy:     -7719.250265  Gnorm:      0.000055  CPU:  463.075
  ** Hessian has required structure
  Cycle:    176 Energy:     -7719.250265  Gnorm:      0.000054  CPU:  465.470
  ** Hessian has required structure
  Cycle:    177 Energy:     -7719.250265  Gnorm:      0.000053  CPU:  467.864
  ** Hessian has required structure
  Cycle:    178 Energy:     -7719.250265  Gnorm:      0.000052  CPU:  470.257
  ** Hessian has required structure
  Cycle:    179 Energy:     -7719.250265  Gnorm:      0.000051  CPU:  472.652
  ** Hessian has required structure
  Cycle:    180 Energy:     -7719.250265  Gnorm:      0.000050  CPU:  475.046
  ** Hessian has required structure
  Cycle:    181 Energy:     -7719.250265  Gnorm:      0.000048  CPU:  478.162
  ** Hessian has required structure
  Cycle:    182 Energy:     -7719.250265  Gnorm:      0.000047  CPU:  480.556
  ** Hessian has required structure
  Cycle:    183 Energy:     -7719.250265  Gnorm:      0.000046  CPU:  483.118
  ** Hessian has required structure
  Cycle:    184 Energy:     -7719.250265  Gnorm:      0.000045  CPU:  485.511
  ** Hessian has required structure
  Cycle:    185 Energy:     -7719.250265  Gnorm:      0.000044  CPU:  487.904
  ** Hessian has required structure
  Cycle:    186 Energy:     -7719.250265  Gnorm:      0.000043  CPU:  490.297
  ** Hessian has required structure
  Cycle:    187 Energy:     -7719.250265  Gnorm:      0.000042  CPU:  492.692
  ** Hessian has required structure
  Cycle:    188 Energy:     -7719.250265  Gnorm:      0.000041  CPU:  495.085
  ** Hessian has required structure
  Cycle:    189 Energy:     -7719.250265  Gnorm:      0.000040  CPU:  497.479
  ** Hessian has required structure
  Cycle:    190 Energy:     -7719.250265  Gnorm:      0.000039  CPU:  499.872
  ** Hessian has required structure
  Cycle:    191 Energy:     -7719.250265  Gnorm:      0.000038  CPU:  502.926
  ** Hessian has required structure
  Cycle:    192 Energy:     -7719.250266  Gnorm:      0.000037  CPU:  505.319
  ** Hessian has required structure
  Cycle:    193 Energy:     -7719.250266  Gnorm:      0.000036  CPU:  507.713
  ** Hessian has required structure
  Cycle:    194 Energy:     -7719.250266  Gnorm:      0.000036  CPU:  510.107
  ** Hessian has required structure
  Cycle:    195 Energy:     -7719.250266  Gnorm:      0.000035  CPU:  512.501
  ** Hessian has required structure
  Cycle:    196 Energy:     -7719.250266  Gnorm:      0.000034  CPU:  514.895
  ** Hessian has required structure
  Cycle:    197 Energy:     -7719.250266  Gnorm:      0.000033  CPU:  517.289
  ** Hessian has required structure
  Cycle:    198 Energy:     -7719.250266  Gnorm:      0.000033  CPU:  519.683
  ** Hessian has required structure


  **** Optimisation achieved ****


  Final energy =   -7719.25026568 eV
  Final Gnorm  =       0.00003213

  Components of energy : 

--------------------------------------------------------------------------------
  Interatomic potentials     =        2061.84410543 eV
  Three-body potentials      =           0.53084935 eV
  Monopole - monopole (real) =       -6581.55278736 eV
  Monopole - monopole (recip)=       -3193.61653784 eV
  Monopole - monopole (total)=       -9775.16932520 eV
  Neutralising energy        =          -6.45589526 eV
--------------------------------------------------------------------------------
  Total lattice energy       =       -7719.25026568 eV
--------------------------------------------------------------------------------
  Total lattice energy       =         -744789.6511 kJ/(mole unit cells)
--------------------------------------------------------------------------------

  Final fractional coordinates of atoms :

--------------------------------------------------------------------------------
   No.  Atomic        x           y          z          Radius
        Label       (Frac)      (Frac)     (Frac)       (Angs) 
--------------------------------------------------------------------------------
     1  Si    c     0.699600    0.375700    0.033890    0.000000
     2  Si    c     0.625878    0.321233    0.366742    0.000000
     3  Si    c     0.678045    0.313592    0.700042    0.000000
     4  Si    c     0.307976    0.615822    0.534534    0.000000
     5  Si    c     0.376238    0.687179    0.865421    0.000000
     6  Si    c     0.325239    0.701368    0.200367    0.000000
     7  Si    c     0.383792    0.701366    0.301394    0.000000
     8  Si    c     0.315513    0.615825    0.967228    0.000000
     9  Si    c     0.318601    0.687177    0.636340    0.000000
    10  Si    c     0.643198    0.313588    0.801720    0.000000
    11  Si    c     0.683767    0.375707    0.467873    0.000000
    12  Si    c     0.703019    0.321231    0.135021    0.000000
    13  Si    c     0.523948    0.408822    0.967173    0.000000
    14  Si    c     0.587191    0.110942    0.301959    0.000000
    15  Si    c     0.888832    0.471912    0.637349    0.000000
    16  Si    c     0.476909    0.578199    0.468335    0.000000
    17  Si    c     0.436604    0.908054    0.801692    0.000000
    18  Si    c     0.112585    0.527104    0.135624    0.000000
    19  Si    c     0.422182    0.527103    0.366138    0.000000
    20  Si    c     0.108953    0.578199    0.033427    0.000000
    21  Si    c     0.479102    0.908058    0.700069    0.000000
    22  Si    c     0.590740    0.471912    0.864413    0.000000
    23  Si    c     0.892537    0.408820    0.534589    0.000000
    24  Si    c     0.531414    0.110941    0.199804    0.000000
    25  Ge    c     0.318525    0.418681    0.857247    0.000000
    26  Si    c     0.602078    0.902268    0.185932    0.000000
    27  Si    c     0.103802    0.692790    0.518078    0.000000
    28  Si    c     0.701460    0.598667    0.351991    0.000000
    29  Si    c     0.399731    0.112709    0.688870    0.000000
    30  Si    c     0.899567    0.298261    0.019793    0.000000
    31  Si    c     0.406360    0.298262    0.481969    0.000000
    32  Si    c     0.904870    0.598667    0.149770    0.000000
    33  Si    c     0.720628    0.112704    0.812892    0.000000
    34  Si    c     0.596654    0.692792    0.983684    0.000000
    35  Ge    c     0.107816    0.418681    0.644515    0.000000
    36  Si    c     0.307853    0.902266    0.315830    0.000000
    37  Si    c     0.240411    0.328006    0.952497    0.000000
    38  Si    c     0.663838    0.909850    0.286944    0.000000
    39  Si    c     0.098730    0.751109    0.619481    0.000000
    40  Si    c     0.754484    0.655716    0.452999    0.000000
    41  Si    c     0.358905    0.110170    0.790885    0.000000
    42  Si    c     0.910755    0.248574    0.120910    0.000000
    43  Si    c     0.345484    0.248573    0.380853    0.000000
    44  Si    c     0.908893    0.655711    0.048763    0.000000
    45  Si    c     0.758918    0.110172    0.710877    0.000000
    46  Si    c     0.660039    0.751109    0.882280    0.000000
    47  Si    c     0.095258    0.328002    0.549265    0.000000
    48  Si    c     0.253676    0.909850    0.214817    0.000000
    49  Si    c     0.964887    0.116889    0.970664    0.000000
    50  Si    c     0.881132    0.846339    0.301339    0.000000
    51  Si    c     0.151541    0.029459    0.633942    0.000000
    52  Si    c     0.035028    0.872052    0.466616    0.000000
    53  Ge    c     0.132089    0.162794    0.804218    0.000000
    54  Si    c     0.848158    0.968347    0.135874    0.000000
    55  Si    c     0.127854    0.968346    0.365888    0.000000
    56  Si    c     0.844692    0.872053    0.035146    0.000000
    57  Ge    c     0.038359    0.162792    0.697543    0.000000
    58  Si    c     0.885574    0.029459    0.867820    0.000000
    59  Si    c     0.159667    0.116888    0.531097    0.000000
    60  Si    c     0.972870    0.846339    0.200422    0.000000
    61  O2    c     0.921135    0.994288    0.003138    0.000000
    62  O2    c     0.005141    0.926667    0.333316    0.000000
    63  O3    c     0.059566    0.059007    0.661791    0.000000
    64  O2    c     0.080823    0.994288    0.498623    0.000000
    65  O3    c     0.007096    0.059010    0.839969    0.000000
    66  O2    c     0.929190    0.926667    0.168445    0.000000
    67  O2    c     0.345616    0.577650    0.333859    0.000000
    68  O2    c     0.441556    0.789419    0.665522    0.000000
    69  O2    c     0.232926    0.652988    0.000733    0.000000
    70  O2    c     0.683196    0.434821    0.835979    0.000000
    71  O2    c     0.580490    0.236685    0.167434    0.000000
    72  O2    c     0.768285    0.336413    0.500912    0.000000
    73  O2    c     0.575790    0.336410    0.000850    0.000000
    74  O2    c     0.759284    0.434824    0.665782    0.000000
    75  O2    c     0.663859    0.236685    0.334329    0.000000
    76  O2    c     0.427726    0.652987    0.501029    0.000000
    77  O2    c     0.239699    0.577652    0.167902    0.000000
    78  O2    c     0.355516    0.789414    0.836238    0.000000
    79  O2    c     0.118485    0.208639    0.977843    0.000000
    80  O2    c     0.791120    0.910099    0.306719    0.000000
    81  O2    c     0.100835    0.876792    0.638725    0.000000
    82  O2    c     0.881566    0.782453    0.472650    0.000000
    83  O3    c     0.240995    0.108578    0.814507    0.000000
    84  O2    c     0.911797    0.122432    0.140890    0.000000
    85  O2    c     0.218301    0.122431    0.360872    0.000000
    86  O2    c     0.908549    0.782449    0.029111    0.000000
    87  O3    c     0.875236    0.108580    0.687255    0.000000
    88  O2    c     0.783618    0.876791    0.863036    0.000000
    89  O2    c     0.097818    0.208637    0.523918    0.000000
    90  O2    c     0.126642    0.910098    0.195042    0.000000
    91  O2    c     0.932746    0.857829    0.250881    0.000000
    92  O2    c     0.147448    0.063621    0.581315    0.000000
    93  O2    c     0.923837    0.063624    0.920446    0.000000
    94  O1    c     0.065581    0.123506    0.750880    0.000000
    95  O2    c     0.858127    0.924640    0.085719    0.000000
    96  O2    c     0.074178    0.924637    0.416042    0.000000
    97  O2    c     0.895083    0.198643    0.981976    0.000000
    98  O2    c     0.798707    0.695356    0.313702    0.000000
    99  O2    c     0.299881    0.111072    0.650838    0.000000
   100  O2    c     0.101885    0.786525    0.478506    0.000000
   101  O1    c     0.207615    0.320467    0.814514    0.000000
   102  O2    c     0.697432    0.900340    0.147722    0.000000
   103  O2    c     0.210571    0.900337    0.354039    0.000000
   104  O2    c     0.692307    0.786529    0.023255    0.000000
   105  O1    c     0.120507    0.320465    0.687247    0.000000
   106  O2    c     0.818839    0.111065    0.850925    0.000000
   107  O2    c     0.311226    0.198643    0.519786    0.000000
   108  O2    c     0.904312    0.695356    0.188059    0.000000
   109  O2    c     0.326022    0.644380    0.250881    0.000000
   110  O2    c     0.364130    0.676660    0.584459    0.000000
   111  O2    c     0.320195    0.676664    0.917303    0.000000
   112  O2    c     0.690339    0.373026    0.750881    0.000000
   113  O2    c     0.644255    0.319759    0.084401    0.000000
   114  O2    c     0.683171    0.319765    0.417362    0.000000
   115  O2    c     0.368544    0.323505    0.969804    0.000000
   116  O2    c     0.674464    0.042109    0.305304    0.000000
   117  O2    c     0.965822    0.628982    0.635987    0.000000
   118  O2    c     0.633040    0.665108    0.471799    0.000000
   119  O2    c     0.352052    0.977141    0.805972    0.000000
   120  O2    c     0.043932    0.371143    0.139033    0.000000
   121  O2    c     0.334876    0.371142    0.362729    0.000000
   122  O2    c     0.039730    0.665105    0.029963    0.000000
   123  O2    c     0.632742    0.977146    0.695789    0.000000
   124  O2    c     0.670819    0.628981    0.865774    0.000000
   125  O2    c     0.962624    0.323502    0.531958    0.000000
   126  O2    c     0.375308    0.042110    0.196459    0.000000
   127  O2    c     0.767105    0.300925    0.011823    0.000000
   128  O2    c     0.700542    0.464542    0.344517    0.000000
   129  O2    c     0.532218    0.246351    0.679632    0.000000
   130  O2    c     0.234440    0.687196    0.512964    0.000000
   131  O3    c     0.300038    0.552488    0.840934    0.000000
   132  O2    c     0.467560    0.769205    0.178101    0.000000
   133  O2    c     0.309309    0.769204    0.323660    0.000000
   134  O2    c     0.460423    0.687198    0.988798    0.000000
   135  O3    c     0.260110    0.552487    0.660828    0.000000
   136  O2    c     0.721782    0.246345    0.822130    0.000000
   137  O2    c     0.541487    0.300930    0.489940    0.000000
   138  O2    c     0.771663    0.464541    0.157245    0.000000
   139  O2    c     0.780630    0.531650    0.029221    0.000000
   140  O2    c     0.470152    0.248178    0.361301    0.000000
   141  O2    c     0.751116    0.233125    0.692436    0.000000
   142  O2    c     0.220849    0.460879    0.532237    0.000000
   143  O2    c     0.531789    0.746935    0.864032    0.000000
   144  O2    c     0.251667    0.783636    0.195182    0.000000
   145  O2    c     0.539633    0.783635    0.306579    0.000000
   146  O2    c     0.247697    0.460883    0.969525    0.000000
   147  O2    c     0.222804    0.746931    0.637730    0.000000
   148  O2    c     0.489660    0.233122    0.809326    0.000000
   149  O2    c     0.758687    0.531656    0.472541    0.000000
   150  O2    c     0.785691    0.248177    0.140462    0.000000
   151  O3    c     0.214427    0.303978    0.899702    0.000000
   152  O2    c     0.678549    0.907474    0.232470    0.000000
   153  O2    c     0.100661    0.760566    0.564538    0.000000
   154  O2    c     0.772039    0.673631    0.398555    0.000000
   155  O2    c     0.333687    0.114966    0.736225    0.000000
   156  O2    c     0.905611    0.228946    0.066536    0.000000
   157  O2    c     0.331001    0.228946    0.435226    0.000000
   158  O2    c     0.909255    0.673628    0.103206    0.000000
   159  O2    c     0.788930    0.114964    0.765537    0.000000
   160  O2    c     0.667568    0.760565    0.937224    0.000000
   161  O3    c     0.097213    0.303975    0.602060    0.000000
   162  O2    c     0.236587    0.907471    0.269292    0.000000
   163  O2    c     0.575108    0.550293    0.988668    0.000000
   164  O2    c     0.447109    0.027216    0.325054    0.000000
   165  O3    c     0.966829    0.416361    0.663911    0.000000
   166  O2    c     0.419424    0.436837    0.491077    0.000000
   167  O2    c     0.582396    0.986351    0.822075    0.000000
   168  O2    c     0.029834    0.584156    0.158928    0.000000
   169  O2    c     0.561985    0.584156    0.342833    0.000000
   170  O2    c     0.025077    0.436836    0.010684    0.000000
   171  O2    c     0.411609    0.986356    0.679686    0.000000
   172  O3    c     0.457190    0.416359    0.837851    0.000000
   173  O2    c     0.982850    0.550290    0.513094    0.000000
   174  O2    c     0.587770    0.027217    0.176708    0.000000
   175  O2    c     0.585628    0.163593    0.250881    0.000000
   176  O2    c     0.845028    0.414290    0.585310    0.000000
   177  O2    c     0.576928    0.414294    0.916452    0.000000
   178  O2    c     0.429052    0.850456    0.750880    0.000000
   179  O2    c     0.163742    0.579645    0.084565    0.000000
   180  O2    c     0.423566    0.579644    0.417196    0.000000
   181  F     c     0.455211    0.902760    0.250881    0.000000
   182  F     c     0.104233    0.517783    0.595151    0.000000
   183  F     c     0.421214    0.517786    0.906611    0.000000
   184  F     c     0.561339    0.115033    0.750880    0.000000
   185  F     c     0.903051    0.449875    0.084496    0.000000
   186  F     c     0.554490    0.449878    0.417266    0.000000
   187  O2    s     0.917208    0.993862    0.003213    0.000000
   188  O2    s     0.005005    0.922349    0.333386    0.000000
   189  O3    s     0.068308    0.063595    0.661382    0.000000
   190  O2    s     0.084324    0.993862    0.498548    0.000000
   191  O3    s     0.002942    0.063598    0.840378    0.000000
   192  O2    s     0.925007    0.922348    0.168375    0.000000
   193  O2    s     0.357420    0.585153    0.333839    0.000000
   194  O2    s     0.432060    0.790571    0.665910    0.000000
   195  O2    s     0.228752    0.641495    0.000620    0.000000
   196  O2    s     0.670068    0.426593    0.835442    0.000000
   197  O2    s     0.588004    0.232424    0.167430    0.000000
   198  O2    s     0.772444    0.347944    0.500988    0.000000
   199  O2    s     0.583162    0.347941    0.000774    0.000000
   200  O2    s     0.764183    0.426596    0.666320    0.000000
   201  O2    s     0.652085    0.232424    0.334333    0.000000
   202  O2    s     0.420407    0.641493    0.501142    0.000000
   203  O2    s     0.235398    0.585155    0.167923    0.000000
   204  O2    s     0.366165    0.790568    0.835851    0.000000
   205  O2    s     0.114583    0.210946    0.974624    0.000000
   206  O2    s     0.787525    0.903342    0.304144    0.000000
   207  O2    s     0.105882    0.878772    0.636125    0.000000
   208  O2    s     0.884762    0.778896    0.470012    0.000000
   209  O3    s     0.245264    0.112860    0.811256    0.000000
   210  O2    s     0.904965    0.119121    0.138334    0.000000
   211  O2    s     0.221821    0.119120    0.363427    0.000000
   212  O2    s     0.901796    0.778893    0.031749    0.000000
   213  O3    s     0.875250    0.112862    0.690506    0.000000
   214  O2    s     0.780551    0.878771    0.865637    0.000000
   215  O2    s     0.104027    0.210943    0.527137    0.000000
   216  O2    s     0.123480    0.903341    0.197617    0.000000
   217  O2    s     0.931443    0.855222    0.250881    0.000000
   218  O2    s     0.149334    0.066103    0.581207    0.000000
   219  O2    s     0.924432    0.066105    0.920554    0.000000
   220  O1    s     0.068704    0.129753    0.750880    0.000000
   221  O2    s     0.855457    0.923607    0.085647    0.000000
   222  O2    s     0.075815    0.923604    0.416114    0.000000
   223  O2    s     0.902890    0.200434    0.984739    0.000000
   224  O2    s     0.797514    0.701520    0.316307    0.000000
   225  O2    s     0.294695    0.102705    0.653031    0.000000
   226  O2    s     0.095165    0.785568    0.481406    0.000000
   227  O1    s     0.208194    0.313161    0.816348    0.000000
   228  O2    s     0.703711    0.907789    0.150376    0.000000
   229  O2    s     0.211741    0.907786    0.351385    0.000000
   230  O2    s     0.698070    0.785571    0.020355    0.000000
   231  O1    s     0.112623    0.313159    0.685414    0.000000
   232  O2    s     0.815659    0.102699    0.848731    0.000000
   233  O2    s     0.305209    0.200434    0.517023    0.000000
   234  O2    s     0.911669    0.701519    0.185455    0.000000
   235  O2    s     0.331856    0.656049    0.250881    0.000000
   236  O2    s     0.353988    0.671310    0.584155    0.000000
   237  O2    s     0.324986    0.671313    0.917607    0.000000
   238  O2    s     0.684319    0.360985    0.750881    0.000000
   239  O2    s     0.655881    0.325613    0.084409    0.000000
   240  O2    s     0.677400    0.325619    0.417353    0.000000
   241  O2    s     0.372077    0.332835    0.967810    0.000000
   242  O2    s     0.664440    0.035384    0.303044    0.000000
   243  O2    s     0.972290    0.626249    0.634340    0.000000
   244  O2    s     0.629723    0.655243    0.469477    0.000000
   245  O2    s     0.362084    0.983790    0.803860    0.000000
   246  O2    s     0.037116    0.374370    0.136792    0.000000
   247  O2    s     0.344919    0.374369    0.364970    0.000000
   248  O2    s     0.033182    0.655240    0.032284    0.000000
   249  O2    s     0.629358    0.983794    0.697901    0.000000
   250  O2    s     0.661618    0.626249    0.867421    0.000000
   251  O2    s     0.968421    0.332832    0.533952    0.000000
   252  O2    s     0.378608    0.035385    0.198718    0.000000
   253  O2    s     0.774061    0.308416    0.014987    0.000000
   254  O2    s     0.692974    0.463900    0.347614    0.000000
   255  O2    s     0.533498    0.239392    0.682746    0.000000
   256  O2    s     0.227984    0.680520    0.515716    0.000000
   257  O3    s     0.309432    0.557697    0.844716    0.000000
   258  O2    s     0.467085    0.776229    0.181242    0.000000
   259  O2    s     0.316808    0.776228    0.320520    0.000000
   260  O2    s     0.460203    0.680523    0.986046    0.000000
   261  O3    s     0.255925    0.557697    0.657046    0.000000
   262  O2    s     0.713543    0.239386    0.819016    0.000000
   263  O2    s     0.542022    0.308421    0.486775    0.000000
   264  O2    s     0.778589    0.463899    0.154147    0.000000
   265  O2    s     0.786087    0.528849    0.031779    0.000000
   266  O2    s     0.472879    0.255909    0.363944    0.000000
   267  O2    s     0.744008    0.228438    0.695187    0.000000
   268  O2    s     0.217410    0.464058    0.534206    0.000000
   269  O2    s     0.530445    0.741204    0.866217    0.000000
   270  O2    s     0.259620    0.788820    0.197810    0.000000
   271  O2    s     0.536863    0.788819    0.303951    0.000000
   272  O2    s     0.254315    0.464061    0.967556    0.000000
   273  O2    s     0.218417    0.741201    0.635545    0.000000
   274  O2    s     0.492081    0.228435    0.806575    0.000000
   275  O2    s     0.750429    0.528854    0.469984    0.000000
   276  O2    s     0.790694    0.255908    0.137819    0.000000
   277  O3    s     0.223619    0.313514    0.902632    0.000000
   278  O2    s     0.668945    0.907188    0.233376    0.000000
   279  O2    s     0.100784    0.752211    0.565232    0.000000
   280  O2    s     0.762731    0.663833    0.399443    0.000000
   281  O2    s     0.343025    0.114339    0.736702    0.000000
   282  O2    s     0.905533    0.238329    0.067476    0.000000
   283  O2    s     0.340462    0.238329    0.434286    0.000000
   284  O2    s     0.908765    0.663831    0.102319    0.000000
   285  O2    s     0.778964    0.114337    0.765060    0.000000
   286  O2    s     0.659091    0.752211    0.936530    0.000000
   287  O3    s     0.097556    0.313511    0.599130    0.000000
   288  O2    s     0.245905    0.907186    0.268386    0.000000
   289  O2    s     0.572013    0.551204    0.985866    0.000000
   290  O2    s     0.446735    0.022327    0.321649    0.000000
   291  O3    s     0.968904    0.422456    0.659808    0.000000
   292  O2    s     0.424225    0.436867    0.487707    0.000000
   293  O2    s     0.581866    0.991686    0.818960    0.000000
   294  O2    s     0.024833    0.579596    0.155511    0.000000
   295  O2    s     0.562427    0.579596    0.346250    0.000000
   296  O2    s     0.020306    0.436866    0.014055    0.000000
   297  O2    s     0.417473    0.991691    0.682801    0.000000
   298  O3    s     0.461210    0.422454    0.841954    0.000000
   299  O2    s     0.986856    0.551202    0.515897    0.000000
   300  O2    s     0.583256    0.022328    0.180113    0.000000
   301  O2    s     0.580168    0.152672    0.250881    0.000000
   302  O2    s     0.854325    0.419236    0.584937    0.000000
   303  O2    s     0.572577    0.419240    0.916825    0.000000
   304  O2    s     0.434860    0.862071    0.750880    0.000000
   305  O2    s     0.152788    0.574084    0.084531    0.000000
   306  O2    s     0.428959    0.574083    0.417231    0.000000
   307  F     s     0.455017    0.902372    0.250881    0.000000
   308  F     s     0.104604    0.510981    0.598382    0.000000
   309  F     s     0.414042    0.510985    0.903379    0.000000
   310  F     s     0.561581    0.115517    0.750880    0.000000
   311  F     s     0.902711    0.449798    0.084481    0.000000
   312  F     s     0.554754    0.449802    0.417281    0.000000
--------------------------------------------------------------------------------

  Final Cartesian lattice vectors (Angstroms) :

       12.005823    0.001677   -0.024220
       -6.004368   10.391012    0.012602
       -0.413375   -0.001460   29.367292


  Final cell parameters and derivatives :

--------------------------------------------------------------------------------
       a           12.005848 Angstrom     dE/de1(xx)     0.000053 eV/strain
       b           12.001071 Angstrom     dE/de2(yy)     0.000240 eV/strain
       c           29.370201 Angstrom     dE/de3(zz)     0.000091 eV/strain
       alpha       89.538837 Degrees      dE/de4(yz)    -0.000036 eV/strain
       beta        90.922028 Degrees      dE/de5(xz)     0.000084 eV/strain
       gamma      120.013195 Degrees      dE/de6(xy)    -0.000033 eV/strain
--------------------------------------------------------------------------------

  Primitive cell volume =          3663.839220 Angs**3

  Density of cell =      1.766459 g/cm**3

  Non-primitive cell volume =          3663.839220 Angs**3


  Final internal derivatives :

--------------------------------------------------------------------------------
   No.  Atomic          a             b             c           Radius
        Label          (eV)          (eV)          (eV)        (eV/Angs)
[...]
     58 Si    c       0.000507     -0.000086      0.000749      0.000000
     59 Si    c       0.000008      0.000161      0.000536      0.000000
     60 Si    c      -0.000003      0.000049      0.000094      0.000000
     61 O2    c       0.000327      0.000211     -0.000333      0.000000
     62 O2    c      -0.000054      0.000039     -0.000303      0.000000
     63 O3    c       0.000247      0.000280     -0.001775      0.000000
     64 O2    c      -0.000106      0.000124     -0.000287      0.000000
     65 O3    c      -0.000260      0.000159      0.005051      0.000000
     66 O2    c       0.000048      0.000093      0.000042      0.000000
     67 O2    c      -0.000123      0.000115     -0.002375      0.000000
     68 O2    c      -0.000093     -0.000273     -0.001083      0.000000
     69 O2    c       0.000345      0.000127     -0.001414      0.000000
     70 O2    c      -0.000075     -0.000218      0.001171      0.000000
     71 O2    c      -0.000047     -0.000035      0.000610      0.000000
     72 O2    c       0.000093      0.000145      0.002946      0.000000
     73 O2    c       0.000112      0.000061      0.001061      0.000000
     74 O2    c      -0.000200     -0.000182      0.001205      0.000000
     75 O2    c      -0.000090      0.000129      0.002137      0.000000
     76 O2    c       0.000159      0.000055     -0.003174      0.000000
     77 O2    c      -0.000058     -0.000048     -0.001312      0.000000
     78 O2    c      -0.000296     -0.000110     -0.002399      0.000000
     79 O2    c       0.000190      0.000187     -0.000294      0.000000
     80 O2    c      -0.000063      0.000009     -0.000074      0.000000
     81 O2    c      -0.000010      0.000029     -0.000380      0.000000
     82 O2    c      -0.000023      0.000089     -0.000070      0.000000
     83 O3    c      -0.000174     -0.000489      0.003870      0.000000
     84 O2    c       0.000008      0.000070      0.000308      0.000000
     85 O2    c      -0.000015      0.000046      0.000069      0.000000
     86 O2    c       0.000151      0.000077      0.000194      0.000000
     87 O3    c      -0.000219     -0.000280     -0.004712      0.000000
     88 O2    c       0.000157     -0.000057      0.000044      0.000000
     89 O2    c      -0.000022      0.000146      0.000290      0.000000
     90 O2    c      -0.000000      0.000010     -0.000336      0.000000
     91 O2    c       0.000060      0.000074     -0.000387      0.000000
     92 O2    c       0.000062      0.000183     -0.000092      0.000000
     93 O2    c       0.000155      0.000112     -0.000486      0.000000
     94 O1    c       0.000491     -0.000051      0.009502      0.000000
     95 O2    c       0.000176      0.000085     -0.000573      0.000000
     96 O2    c      -0.000024      0.000101      0.000069      0.000000
     97 O2    c       0.000172      0.000188      0.000049      0.000000
     98 O2    c      -0.000028      0.000035      0.000843      0.000000
     99 O2    c       0.000255     -0.000095     -0.000121      0.000000
    100 O2    c       0.000068      0.000262     -0.001094      0.000000
    101 O1    c       0.000162      0.000119     -0.002543      0.000000
    102 O2    c       0.000060      0.000011     -0.000498      0.000000
    103 O2    c      -0.000053     -0.000018     -0.001253      0.000000
    104 O2    c       0.000264      0.000248     -0.000499      0.000000
    105 O1    c      -0.000268      0.000359     -0.001962      0.000000
    106 O2    c      -0.000466     -0.000085      0.000614      0.000000
    107 O2    c      -0.000013      0.000111      0.000966      0.000000
    108 O2    c      -0.000058      0.000077      0.000593      0.000000
    109 O2    c      -0.000076      0.000020     -0.001332      0.000000
    110 O2    c       0.000084      0.000156     -0.000901      0.000000
    111 O2    c       0.000136      0.000254     -0.001095      0.000000
    112 O2    c      -0.000166     -0.000241      0.001347      0.000000
    113 O2    c       0.000034     -0.000059      0.002059      0.000000
    114 O2    c      -0.000031      0.000025     -0.001448      0.000000
    115 O2    c       0.000194      0.000198      0.000032      0.000000
    116 O2    c      -0.000082     -0.000008      0.000296      0.000000
    117 O2    c      -0.000028      0.000031     -0.000059      0.000000
    118 O2    c      -0.000013      0.000119     -0.000665      0.000000
    119 O2    c      -0.000295     -0.000378     -0.000027      0.000000
    120 O2    c       0.000031      0.000041      0.000256      0.000000
    121 O2    c      -0.000001      0.000018      0.000025      0.000000
    122 O2    c       0.000128      0.000071     -0.000150      0.000000
    123 O2    c      -0.000084     -0.000286     -0.000338      0.000000
    124 O2    c       0.000098      0.000024      0.000015      0.000000
    125 O2    c      -0.000021      0.000200      0.000621      0.000000
    126 O2    c      -0.000005      0.000012     -0.000453      0.000000
    127 O2    c       0.000123      0.000081      0.000325      0.000000
    128 O2    c      -0.000023      0.000038      0.001064      0.000000
    129 O2    c       0.000083     -0.000286      0.000220      0.000000
    130 O2    c       0.000055      0.000175     -0.002044      0.000000
    131 O3    c       0.000009     -0.000105     -0.005962      0.000000
    132 O2    c       0.000031     -0.000019     -0.000297      0.000000
    133 O2    c      -0.000076      0.000014     -0.001337      0.000000
    134 O2    c       0.000258      0.000236     -0.000285      0.000000
    135 O3    c      -0.000142     -0.000097      0.007596      0.000000
    136 O2    c      -0.000398     -0.000360      0.000577      0.000000
    137 O2    c      -0.000046      0.000106      0.001662      0.000000
    138 O2    c      -0.000026      0.000039      0.000007      0.000000
    139 O2    c       0.000056      0.000045      0.000220      0.000000
    140 O2    c      -0.000001      0.000023      0.000467      0.000000
    141 O2    c       0.000062     -0.000290     -0.000094      0.000000
    142 O2    c      -0.000011      0.000132     -0.000999      0.000000
    143 O2    c       0.000119     -0.000028     -0.000948      0.000000
    144 O2    c       0.000009      0.000004     -0.000051      0.000000
    145 O2    c      -0.000062     -0.000018     -0.000606      0.000000
    146 O2    c       0.000250      0.000223      0.000378      0.000000
    147 O2    c      -0.000059      0.000048      0.000335      0.000000
    148 O2    c      -0.000344     -0.000271      0.000535      0.000000
    149 O2    c      -0.000065      0.000135      0.000837      0.000000
    150 O2    c      -0.000006      0.000028     -0.000065      0.000000
    151 O3    c       0.000137     -0.000067      0.000302      0.000000
    152 O2    c      -0.000019     -0.000000     -0.000348      0.000000
    153 O2    c      -0.000031      0.000163      0.000221      0.000000
    154 O2    c      -0.000021      0.000073     -0.000222      0.000000
    155 O2    c      -0.000094     -0.000376     -0.000208      0.000000
    156 O2    c       0.000089      0.000097      0.000330      0.000000
    157 O2    c      -0.000062      0.000080     -0.000719      0.000000
    158 O2    c       0.000054      0.000058     -0.000048      0.000000
    159 O2    c      -0.000278     -0.000300      0.000767      0.000000
    160 O2    c       0.000214      0.000088     -0.000551      0.000000
    161 O3    c      -0.000127     -0.000023     -0.000838      0.000000
    162 O2    c      -0.000030     -0.000068      0.000531      0.000000
    163 O2    c       0.000270      0.000203      0.000614      0.000000
    164 O2    c      -0.000080      0.000012      0.000251      0.000000
    165 O3    c      -0.000159      0.000013     -0.003772      0.000000
    166 O2    c      -0.000018      0.000124     -0.000665      0.000000
    167 O2    c      -0.000289     -0.000374     -0.000355      0.000000
    168 O2    c      -0.000001      0.000041      0.000046      0.000000
    169 O2    c       0.000014      0.000043     -0.000158      0.000000
    170 O2    c       0.000167      0.000144     -0.000358      0.000000
    171 O2    c      -0.000010     -0.000260     -0.000384      0.000000
    172 O3    c       0.000074     -0.000165     -0.000176      0.000000
    173 O2    c      -0.000019      0.000202      0.000722      0.000000
    174 O2    c      -0.000007     -0.000006     -0.000194      0.000000
    175 O2    c       0.000039     -0.000021      0.001943      0.000000
    176 O2    c      -0.000005      0.000104     -0.000007      0.000000
    177 O2    c       0.000254      0.000089      0.001254      0.000000
    178 O2    c      -0.000180     -0.000447     -0.001865      0.000000
    179 O2    c       0.000075      0.000187     -0.002596      0.000000
    180 O2    c       0.000003      0.000060      0.000104      0.000000
    181 F     c      -0.000062     -0.000059      0.000063      0.000000
    182 F     c      -0.000180      0.000119      0.000034      0.000000
    183 F     c       0.000298      0.000065      0.000042      0.000000
    184 F     c      -0.000239     -0.000489     -0.000090      0.000000
    185 F     c       0.000074      0.000063     -0.000005      0.000000
    186 F     c      -0.000059      0.000078     -0.000109      0.000000
    187 O2    s       0.000283      0.000234      0.000452      0.000000
    188 O2    s      -0.000086      0.000085      0.000329      0.000000
    189 O3    s       0.000412      0.000096      0.002481      0.000000
    190 O2    s      -0.000038      0.000118      0.000234      0.000000
    191 O3    s      -0.000243      0.000119     -0.005636      0.000000
    192 O2    s       0.000042      0.000065     -0.000148      0.000000
    193 O2    s      -0.000159      0.000157      0.002761      0.000000
    194 O2    s      -0.000019     -0.000231      0.000655      0.000000
    195 O2    s       0.000295      0.000216      0.001381      0.000000
    196 O2    s      -0.000215     -0.000141     -0.001449      0.000000
    197 O2    s       0.000043     -0.000055     -0.000359      0.000000
    198 O2    s       0.000236      0.000049     -0.003921      0.000000
    199 O2    s       0.000193     -0.000001     -0.001128      0.000000
    200 O2    s      -0.000039     -0.000153     -0.001022      0.000000
    201 O2    s      -0.000061      0.000141     -0.002631      0.000000
    202 O2    s       0.000200      0.000031      0.003878      0.000000
    203 O2    s      -0.000109      0.000048      0.001211      0.000000
    204 O2    s      -0.000184     -0.000090      0.002744      0.000000
    205 O2    s       0.000184      0.000251      0.000494      0.000000
    206 O2    s      -0.000055      0.000011     -0.000021      0.000000
    207 O2    s      -0.000007      0.000052      0.000495      0.000000
    208 O2    s      -0.000005      0.000085      0.000044      0.000000
    209 O3    s      -0.000333     -0.000367     -0.005013      0.000000
    210 O2    s       0.000041      0.000036     -0.000463      0.000000
    211 O2    s      -0.000018      0.000034     -0.000148      0.000000
    212 O2    s       0.000156      0.000090     -0.000247      0.000000
    213 O3    s       0.000234     -0.000456      0.006238      0.000000
    214 O2    s       0.000009     -0.000073     -0.000159      0.000000
    215 O2    s       0.000013      0.000155     -0.000602      0.000000
    216 O2    s       0.000016      0.000004      0.000424      0.000000
    217 O2    s      -0.000016      0.000081      0.000287      0.000000
    218 O2    s       0.000087      0.000081     -0.000146      0.000000
    219 O2    s       0.000000      0.000188      0.000931      0.000000
    220 O1    s       0.000088     -0.000096     -0.007882      0.000000
    221 O2    s       0.000155      0.000137      0.000421      0.000000
    222 O2    s       0.000016      0.000129     -0.000184      0.000000
    223 O2    s       0.000166      0.000176      0.000076      0.000000
    224 O2    s      -0.000001     -0.000030     -0.001206      0.000000
    225 O2    s       0.000105     -0.000074      0.000175      0.000000
    226 O2    s      -0.000015      0.000300      0.001466      0.000000
    227 O1    s       0.000084     -0.000180      0.002982      0.000000
    228 O2    s       0.000091     -0.000003      0.000564      0.000000
    229 O2    s      -0.000022     -0.000055      0.001596      0.000000
    230 O2    s       0.000208      0.000278      0.000477      0.000000
    231 O1    s      -0.000123     -0.000308      0.002194      0.000000
    232 O2    s      -0.000382     -0.000190     -0.000997      0.000000
    233 O2    s      -0.000109      0.000146     -0.001500      0.000000
    234 O2    s      -0.000029      0.000045     -0.000787      0.000000
    235 O2    s      -0.000120     -0.000002      0.000779      0.000000
    236 O2    s      -0.000150     -0.000098      0.000632      0.000000
    237 O2    s       0.000369     -0.000046      0.000519      0.000000
    238 O2    s      -0.000095     -0.000422     -0.000941      0.000000
    239 O2    s       0.000035     -0.000054     -0.001667      0.000000
    240 O2    s      -0.000008      0.000127      0.001724      0.000000
    241 O2    s       0.000205      0.000257     -0.000083      0.000000
    242 O2    s      -0.000058      0.000004     -0.000509      0.000000
    243 O2    s      -0.000114      0.000146      0.000103      0.000000
    244 O2    s       0.000068      0.000078      0.000847      0.000000
    245 O2    s      -0.000310     -0.000301     -0.000234      0.000000
    246 O2    s      -0.000004      0.000118     -0.000434      0.000000
    247 O2    s      -0.000057      0.000103     -0.000141      0.000000
    248 O2    s       0.000090      0.000128      0.000216      0.000000
    249 O2    s       0.000024     -0.000316      0.000668      0.000000
    250 O2    s       0.000070     -0.000015     -0.000073      0.000000
    251 O2    s       0.000130      0.000160     -0.001136      0.000000
    252 O2    s       0.000052     -0.000007      0.000700      0.000000
    253 O2    s       0.000053      0.000114     -0.000387      0.000000
    254 O2    s      -0.000012      0.000027     -0.001658      0.000000
    255 O2    s       0.000012     -0.000175     -0.000225      0.000000
    256 O2    s      -0.000028      0.000239      0.003026      0.000000
    257 O3    s       0.000052     -0.000293      0.007817      0.000000
    258 O2    s       0.000018      0.000028      0.000331      0.000000
    259 O2    s      -0.000002     -0.000090      0.001898      0.000000
    260 O2    s       0.000217      0.000258      0.000194      0.000000
    261 O3    s       0.000026     -0.000255     -0.009989      0.000000
    262 O2    s      -0.000321     -0.000393     -0.000904      0.000000
    263 O2    s      -0.000047      0.000086     -0.002651      0.000000
    264 O2    s       0.000025      0.000051      0.000045      0.000000
    265 O2    s       0.000103      0.000001     -0.000262      0.000000
    266 O2    s      -0.000099      0.000084     -0.000734      0.000000
    267 O2    s       0.000006     -0.000178      0.000552      0.000000
    268 O2    s       0.000041      0.000275      0.001493      0.000000
    269 O2    s      -0.000039      0.000010      0.001448      0.000000
    270 O2    s      -0.000023      0.000020     -0.000012      0.000000
    271 O2    s      -0.000038      0.000027      0.000801      0.000000
    272 O2    s       0.000313      0.000234     -0.000612      0.000000
    273 O2    s       0.000042     -0.000108     -0.000807      0.000000
    274 O2    s      -0.000177     -0.000350     -0.001079      0.000000
    275 O2    s       0.000058     -0.000047     -0.001371      0.000000
    276 O2    s       0.000034      0.000008      0.000092      0.000000
    277 O3    s       0.000160      0.000508     -0.000338      0.000000
    278 O2    s      -0.000024      0.000062      0.000190      0.000000
    279 O2    s       0.000185      0.000022     -0.000306      0.000000
    280 O2    s       0.000038      0.000037      0.000234      0.000000
    281 O2    s      -0.000335     -0.000244      0.000259      0.000000
    282 O2    s       0.000126      0.000085     -0.000259      0.000000
    283 O2    s      -0.000005      0.000031      0.000713      0.000000
    284 O2    s       0.000076      0.000063      0.000136      0.000000
    285 O2    s       0.000010     -0.000410     -0.000810      0.000000
    286 O2    s       0.000048      0.000055      0.000206      0.000000
    287 O3    s       0.000140      0.000321      0.000453      0.000000
    288 O2    s      -0.000072      0.000040     -0.000706      0.000000
    289 O2    s       0.000216      0.000229     -0.000883      0.000000
    290 O2    s      -0.000053      0.000006     -0.000392      0.000000
    291 O3    s      -0.000209      0.000036      0.004450      0.000000
    292 O2    s      -0.000004      0.000074      0.000861      0.000000
    293 O2    s      -0.000296     -0.000331      0.000408      0.000000
    294 O2    s       0.000024      0.000049     -0.000178      0.000000
    295 O2    s      -0.000060      0.000062      0.000105      0.000000
    296 O2    s       0.000122      0.000125      0.000476      0.000000
    297 O2    s      -0.000084     -0.000206      0.000432      0.000000
    298 O3    s       0.000028     -0.000041      0.000430      0.000000
    299 O2    s       0.000091      0.000193     -0.001126      0.000000
    300 O2    s       0.000003      0.000024      0.000393      0.000000
    301 O2    s       0.000034     -0.000009     -0.001471      0.000000
    302 O2    s      -0.000153      0.000295      0.000021      0.000000
    303 O2    s       0.000153      0.000212     -0.000664      0.000000
    304 O2    s      -0.000188     -0.000142      0.001267      0.000000
    305 O2    s       0.000028      0.000161      0.002008      0.000000
    306 O2    s      -0.000066      0.000062     -0.000689      0.000000
    307 F     s      -0.000048      0.000026     -0.000172      0.000000
    308 F     s       0.000300      0.000087     -0.000131      0.000000
    309 F     s       0.000064      0.000229     -0.000166      0.000000
    310 F     s      -0.000241     -0.000489      0.000081      0.000000
    311 F     s       0.000127      0.000051      0.000034      0.000000
    312 F     s       0.000001     -0.000008      0.000130      0.000000
--------------------------------------------------------------------------------
  Maximum abs         0.000581      0.000554      0.009989      0.000000
--------------------------------------------------------------------------------


  Time to end of optimisation =     522.0785 seconds


  Peak dynamic memory used =      19.13 MB 


  Timing analysis for GULP :

--------------------------------------------------------------------------------
  Task / Subroutine                                          Time (Seconds)
--------------------------------------------------------------------------------
  Calculation of reciprocal space energy and derivatives          9.3897
  Calculation of real space energy and derivatives              277.5754
  Calculation of three-body energy and derivatives               31.4727
  Global summation overhead                                       0.0003
--------------------------------------------------------------------------------
  Total CPU time                                                522.0786
--------------------------------------------------------------------------------


  Dump file written as out.res                                                 
  CIF file written as out.cif                                                 


  Job Finished at 10:07.27  7th December   2016                               

