********************************************************************************
*                       GENERAL UTILITY LATTICE PROGRAM                        *
*                                 Julian Gale                                  *
*                      Nanochemistry Research Institute                        *
*                           Department of Chemistry                            *
*                    Curtin University, Western Australia                      *
********************************************************************************
* Version = 4.2.0 * Last modified =  20th January 2014                         *
********************************************************************************
*  optimise     - perform optimisation run                                     *
*  conp         - constant pressure calculation                                *
*  qok          - running with non charge neutral cell is OK                   *
*  rfo          - optimisation step to be determined by RFO method             *
********************************************************************************

  Job Started  at 15:38.18  7th December   2016                               

  Number of CPUs =     1


  Total number of configurations input =   1

********************************************************************************
*  Input for Configuration =   1                                               *
********************************************************************************

  Formula = Si56Ge4O120F6                                               

  Number of irreducible atoms/shells =     312


  Total number atoms/shells =     312

  Dimensionality = 3               :  Bulk   


  Charge on solid   =  -6.000000 =>neutralising background added


  Cartesian lattice vectors (Angstroms) :

       11.932978    0.000000    0.000000
       -5.968103   10.334619    0.000000
       -0.032270   -0.030002   29.687260

  Cell parameters (Angstroms/Degrees):

  a =      11.9330    alpha =  90.0190
  b =      11.9341    beta  =  90.0623
  c =      29.6873    gamma = 120.0059

  Initial cell volume =        3661.115381 Angs**3

  Temperature of configuration =  0.000     K 

  Pressure of configuration =         0.000 GPa 

  Fractional coordinates of asymmetric unit :

--------------------------------------------------------------------------------
   No.  Atomic       x           y          z         Charge      Occupancy
        Label      (Frac)      (Frac)     (Frac)        (e)         (Frac)  
--------------------------------------------------------------------------------
      1 Si    c    0.699600    0.375700    0.033890     4.00000    1.000000    
      2 Si    c    0.621808 *  0.323909 *  0.365637 *   4.00000    1.000000    
      3 Si    c    0.683264 *  0.298645 *  0.696781 *   4.00000    1.000000    
      4 Si    c    0.302085 *  0.623868 *  0.532930 *   4.00000    1.000000    
      5 Si    c    0.364008 *  0.679911 *  0.865412 *   4.00000    1.000000    
      6 Si    c    0.318986 *  0.696476 *  0.201214 *   4.00000    1.000000    
      7 Si    c    0.376106 *  0.700459 *  0.301248 *   4.00000    1.000000    
      8 Si    c    0.320817 *  0.623080 *  0.967417 *   4.00000    1.000000    
      9 Si    c    0.300981 *  0.678272 *  0.632924 *   4.00000    1.000000    
     10 Si    c    0.639529 *  0.306965 *  0.796784 *   4.00000    1.000000    
     11 Si    c    0.679548 *  0.377933 *  0.465351 *   4.00000    1.000000    
     12 Si    c    0.699753 *  0.318067 *  0.133410 *   4.00000    1.000000    
     13 Si    c    0.533039 *  0.411735 *  0.964664 *   4.00000    1.000000    
     14 Si    c    0.582329 *  0.114316 *  0.300505 *   4.00000    1.000000    
     15 Si    c    0.888227 *  0.469687 *  0.630690 *   4.00000    1.000000    
     16 Si    c    0.471451 *  0.584263 *  0.467489 *   4.00000    1.000000    
     17 Si    c    0.425275 *  0.894981 *  0.800266 *   4.00000    1.000000    
     18 Si    c    0.112018 *  0.524201 *  0.135253 *   4.00000    1.000000    
     19 Si    c    0.416506 *  0.531453 *  0.366626 *   4.00000    1.000000    
     20 Si    c    0.115439 *  0.582033 *  0.034671 *   4.00000    1.000000    
     21 Si    c    0.471296 *  0.885795 *  0.699734 *   4.00000    1.000000    
     22 Si    c    0.583103 *  0.459294 *  0.862079 *   4.00000    1.000000    
     23 Si    c    0.890109 *  0.417184 *  0.530048 *   4.00000    1.000000    
     24 Si    c    0.528100 *  0.111652 *  0.199637 *   4.00000    1.000000    
     25 Ge    c    0.309634 *  0.410349 *  0.859266 *   4.00000    1.000000    
     26 Si    c    0.597529 *  0.900184 *  0.187026 *   4.00000    1.000000    
     27 Si    c    0.099724 *  0.699575 *  0.516770 *   4.00000    1.000000    
     28 Si    c    0.697864 *  0.602723 *  0.351835 *   4.00000    1.000000    
     29 Si    c    0.400740 *  0.097780 *  0.684368 *   4.00000    1.000000    
     30 Si    c    0.903821 *  0.302741 *  0.017709 *   4.00000    1.000000    
     31 Si    c    0.400900 *  0.301985 *  0.480598 *   4.00000    1.000000    
     32 Si    c    0.902797 *  0.597544 *  0.150166 *   4.00000    1.000000    
     33 Si    c    0.709062 *  0.101128 *  0.813461 *   4.00000    1.000000    
     34 Si    c    0.605155 *  0.699942 *  0.978289 *   4.00000    1.000000    
     35 Si    c    0.097750 *  0.397857 *  0.646377 *   4.00000    1.000000    
     36 Si    c    0.300313 *  0.903910 *  0.315130 *   4.00000    1.000000    
     37 Si    c    0.247411 *  0.333630 *  0.954967 *   4.00000    1.000000    
     38 Si    c    0.658758 *  0.910775 *  0.286438 *   4.00000    1.000000    
     39 Si    c    0.090322 *  0.749265 *  0.616533 *   4.00000    1.000000    
     40 Si    c    0.750804 *  0.660485 *  0.451543 *   4.00000    1.000000    
     41 Si    c    0.354375 *  0.101126 *  0.784697 *   4.00000    1.000000    
     42 Si    c    0.909886 *  0.244955 *  0.117094 *   4.00000    1.000000    
     43 Si    c    0.340096 *  0.251815 *  0.380943 *   4.00000    1.000000    
     44 Si    c    0.911131 *  0.654902 *  0.050462 *   4.00000    1.000000    
     45 Si    c    0.752224 *  0.087041 *  0.713462 *   4.00000    1.000000    
     46 Si    c    0.650583 *  0.741858 *  0.876563 *   4.00000    1.000000    
     47 Si    c    0.092627 *  0.340816 *  0.546491 *   4.00000    1.000000    
     48 Si    c    0.249060 *  0.908562 *  0.215204 *   4.00000    1.000000    
     49 Ge    c    0.970777 *  0.116380 *  0.971021 *   4.00000    1.000000    
     50 Si    c    0.877909 *  0.849690 *  0.301060 *   4.00000    1.000000    
     51 Si    c    0.153572 *  0.029375 *  0.631847 *   4.00000    1.000000    
     52 Si    c    0.031047 *  0.879080 *  0.466443 *   4.00000    1.000000    
     53 Ge    c    0.133201 *  0.163795 *  0.799758 *   4.00000    1.000000    
     54 Si    c    0.842679 *  0.961942 *  0.135636 *   4.00000    1.000000    
     55 Si    c    0.120911 *  0.972003 *  0.365970 *   4.00000    1.000000    
     56 Si    c    0.846541 *  0.869640 *  0.035918 *   4.00000    1.000000    
     57 Si    c    0.031398 *  0.149734 *  0.696722 *   4.00000    1.000000    
     58 Ge    c    0.881060 *  0.021613 *  0.865156 *   4.00000    1.000000    
     59 Si    c    0.154326 *  0.121843 *  0.531343 *   4.00000    1.000000    
     60 Si    c    0.968642 *  0.845703 *  0.200660 *   4.00000    1.000000    
     61 O3    c    0.936339 *  0.000126 *  0.011023 *   1.33043    1.000000    
     62 O2    c    0.999656 *  0.931118 *  0.333276 *   0.87073    1.000000    
     63 O2    c    0.070994 *  0.071675 *  0.662229 *   0.87073    1.000000    
     64 O2    c    0.072338 *  0.000816 *  0.498782 *   0.87073    1.000000    
     65 O1    c    0.006177 *  0.053354 *  0.831979 *   1.73396    1.000000    
     66 O2    c    0.926342 *  0.926397 *  0.168783 *   0.87073    1.000000    
     67 O2    c    0.337785 *  0.578659 *  0.334433 *   0.87073    1.000000    
     68 O2    c    0.421376 *  0.760563 *  0.666922 *   0.87073    1.000000    
     69 O2    c    0.242000 *  0.661809 *  0.002678 *   0.87073    1.000000    
     70 O2    c    0.676466 *  0.427591 *  0.830925 *   0.87073    1.000000    
     71 O2    c    0.577184 *  0.235470 *  0.166362 *   0.87073    1.000000    
     72 O2    c    0.765128 *  0.339152 *  0.497354 *   0.87073    1.000000    
     73 O2    c    0.580143 *  0.339249 *  0.999524 *   0.87073    1.000000    
     74 O2    c    0.762177 *  0.419303 *  0.662730 *   0.87073    1.000000    
     75 O2    c    0.660504 *  0.240326 *  0.332468 *   0.87073    1.000000    
     76 O2    c    0.425636 *  0.662383 *  0.500378 *   0.87073    1.000000    
     77 O2    c    0.235771 *  0.572257 *  0.168604 *   0.87073    1.000000    
     78 O2    c    0.339960 *  0.778485 *  0.835334 *   0.87073    1.000000    
     79 O3    c    0.133194 *  0.217634 *  0.982202 *   1.33043    1.000000    
     80 O2    c    0.786633 *  0.913218 *  0.306312 *   0.87073    1.000000    
     81 O2    c    0.089089 *  0.874492 *  0.637085 *   0.87073    1.000000    
     82 O2    c    0.876500 *  0.786828 *  0.472021 *   0.87073    1.000000    
     83 O3    c    0.237104 *  0.103620 *  0.807880 *   1.33043    1.000000    
     84 O2    c    0.910287 *  0.117887 *  0.136250 *   0.87073    1.000000    
     85 O2    c    0.212448 *  0.126681 *  0.360709 *   0.87073    1.000000    
     86 O2    c    0.910002 *  0.779186 *  0.029475 *   0.87073    1.000000    
     87 O2    c    0.875862 *  0.084401 *  0.692200 *   0.87073    1.000000    
     88 O3    c    0.770534 *  0.860268 *  0.853893 *   1.33043    1.000000    
     89 O2    c    0.091736 *  0.213895 *  0.526435 *   0.87073    1.000000    
     90 O2    c    0.123158 *  0.909132 *  0.194740 *   0.87073    1.000000    
     91 O2    c    0.930486 *  0.860512 *  0.250860 *   0.87073    1.000000    
     92 O2    c    0.144450 *  0.068374 *  0.581141 *   0.87073    1.000000    
     93 O1    c    0.927299 *  0.041187 *  0.920677 *   1.73396    1.000000    
     94 O3    c    0.076216 *  0.135986 *  0.745104 *   1.33043    1.000000    
     95 O2    c    0.840642 *  0.901964 *  0.087632 *   0.87073    1.000000    
     96 O2    c    0.068109 *  0.931794 *  0.416057 *   0.87073    1.000000    
     97 O3    c    0.896356 *  0.207769 *  0.978150 *   1.33043    1.000000    
     98 O2    c    0.795564 *  0.697845 *  0.313256 *   0.87073    1.000000    
     99 O2    c    0.304701 *  0.098596 *  0.645735 *   0.87073    1.000000    
    100 O2    c    0.102406 *  0.797942 *  0.478225 *   0.87073    1.000000    
    101 O1    c    0.199299 *  0.316886 *  0.815841 *   1.73396    1.000000    
    102 O2    c    0.692415 *  0.896862 *  0.148833 *   0.87073    1.000000    
    103 O2    c    0.202746 *  0.901867 *  0.353612 *   0.87073    1.000000    
    104 O2    c    0.699461 *  0.795608 *  0.016795 *   0.87073    1.000000    
    105 O2    c    0.099216 *  0.302742 *  0.684995 *   0.87073    1.000000    
    106 O3    c    0.804477 *  0.108606 *  0.853024 *   1.33043    1.000000    
    107 O2    c    0.306297 *  0.203376 *  0.518969 *   0.87073    1.000000    
    108 O2    c    0.899448 *  0.692926 *  0.188632 *   0.87073    1.000000    
    109 O2    c    0.318922 *  0.640671 *  0.251438 *   0.87073    1.000000    
    110 O2    c    0.359881 *  0.680492 *  0.582988 *   0.87073    1.000000    
    111 O2    c    0.317392 *  0.679380 *  0.917876 *   0.87073    1.000000    
    112 O2    c    0.690812 *  0.362429 *  0.746274 *   0.87073    1.000000    
    113 O2    c    0.640678 *  0.317441 *  0.083569 *   0.87073    1.000000    
    114 O2    c    0.679742 *  0.321673 *  0.415236 *   0.87073    1.000000    
    115 O2    c    0.377424 *  0.328953 *  0.968437 *   0.87073    1.000000    
    116 O2    c    0.669727 *  0.044936 *  0.303558 *   0.87073    1.000000    
    117 O2    c    0.956368 *  0.626346 *  0.633957 *   0.87073    1.000000    
    118 O2    c    0.628412 *  0.671091 *  0.469718 *   0.87073    1.000000    
    119 O2    c    0.341025 *  0.965964 *  0.801267 *   0.87073    1.000000    
    120 O2    c    0.042368 *  0.367008 *  0.136364 *   0.87073    1.000000    
    121 O2    c    0.329161 *  0.374678 *  0.363400 *   0.87073    1.000000    
    122 O2    c    0.045157 *  0.668455 *  0.031887 *   0.87073    1.000000    
    123 O2    c    0.627950 *  0.954251 *  0.695727 *   0.87073    1.000000    
    124 O2    c    0.659176 *  0.616269 *  0.862193 *   0.87073    1.000000    
    125 O2    c    0.959861 *  0.330052 *  0.527646 *   0.87073    1.000000    
    126 O2    c    0.371153 *  0.041627 *  0.196619 *   0.87073    1.000000    
    127 O2    c    0.769279 *  0.303062 *  0.011442 *   0.87073    1.000000    
    128 O2    c    0.696950 *  0.467980 *  0.343770 *   0.87073    1.000000    
    129 O2    c    0.538082 *  0.228351 *  0.675801 *   0.87073    1.000000    
    130 O2    c    0.234732 *  0.699802 *  0.510278 *   0.87073    1.000000    
    131 O3    c    0.283960 *  0.540874 *  0.844098 *   1.33043    1.000000    
    132 O2    c    0.462993 *  0.765674 *  0.179325 *   0.87073    1.000000    
    133 O2    c    0.300610 *  0.769608 *  0.322571 *   0.87073    1.000000    
    134 O2    c    0.468826 *  0.695192 *  0.985483 *   0.87073    1.000000    
    135 O2    c    0.231507 *  0.533280 *  0.654002 *   0.87073    1.000000    
    136 O2    c    0.715284 *  0.239160 *  0.818372 *   0.87073    1.000000    
    137 O2    c    0.535792 *  0.302307 *  0.487426 *   0.87073    1.000000    
    138 O2    c    0.768619 *  0.461615 *  0.155805 *   0.87073    1.000000    
    139 O2    c    0.781106 *  0.532391 *  0.031039 *   0.87073    1.000000    
    140 O2    c    0.464908 *  0.249309 *  0.361149 *   0.87073    1.000000    
    141 O2    c    0.757166 *  0.215752 *  0.693632 *   0.87073    1.000000    
    142 O2    c    0.220676 *  0.467086 *  0.527890 *   0.87073    1.000000    
    143 O2    c    0.519398 *  0.736188 *  0.860666 *   0.87073    1.000000    
    144 O2    c    0.245341 *  0.779554 *  0.196423 *   0.87073    1.000000    
    145 O2    c    0.532864 *  0.784048 *  0.305846 *   0.87073    1.000000    
    146 O2    c    0.254555 *  0.467889 *  0.970868 *   0.87073    1.000000    
    147 O2    c    0.217413 *  0.751367 *  0.636318 *   0.87073    1.000000    
    148 O2    c    0.484455 *  0.226180 *  0.802344 *   0.87073    1.000000    
    149 O2    c    0.752941 *  0.534550 *  0.470187 *   0.87073    1.000000    
    150 O2    c    0.782112 *  0.243322 *  0.136127 *   0.87073    1.000000    
    151 O3    c    0.207784 *  0.301190 *  0.902997 *   1.33043    1.000000    
    152 O2    c    0.675059 *  0.905958 *  0.232550 *   0.87073    1.000000    
    153 O2    c    0.093276 *  0.770064 *  0.562579 *   0.87073    1.000000    
    154 O2    c    0.770268 *  0.678704 *  0.397566 *   0.87073    1.000000    
    155 O2    c    0.332267 *  0.103526 *  0.730632 *   0.87073    1.000000    
    156 O2    c    0.909983 *  0.228139 *  0.062919 *   0.87073    1.000000    
    157 O2    c    0.323673 *  0.231056 *  0.434818 *   0.87073    1.000000    
    158 O2    c    0.910416 *  0.674418 *  0.104312 *   0.87073    1.000000    
    159 O2    c    0.777823 *  0.089685 *  0.767530 *   0.87073    1.000000    
    160 O2    c    0.669277 *  0.766268 *  0.930852 *   0.87073    1.000000    
    161 O2    c    0.093977 *  0.322826 *  0.600397 *   0.87073    1.000000    
    162 O2    c    0.229313 *  0.908093 *  0.269079 *   0.87073    1.000000    
    163 O2    c    0.588519 *  0.558290 *  0.982580 *   0.87073    1.000000    
    164 O2    c    0.440453 *  0.030197 *  0.323323 *   0.87073    1.000000    
    165 O2    c    0.971628 *  0.412025 *  0.654020 *   0.87073    1.000000    
    166 O2    c    0.414507 *  0.441684 *  0.489613 *   0.87073    1.000000    
    167 O2    c    0.568248 *  0.975640 *  0.822944 *   0.87073    1.000000    
    168 O2    c    0.027192 *  0.580640 *  0.158492 *   0.87073    1.000000    
    169 O2    c    0.558279 *  0.590336 *  0.343520 *   0.87073    1.000000    
    170 O2    c    0.032591 *  0.442218 *  0.010292 *   0.87073    1.000000    
    171 O2    c    0.409991 *  0.968178 *  0.677991 *   0.87073    1.000000    
    172 O3    c    0.443765 *  0.396979 *  0.839483 *   1.33043    1.000000    
    173 O2    c    0.974180 *  0.559456 *  0.507343 *   0.87073    1.000000    
    174 O2    c    0.586365 *  0.027384 *  0.177447 *   0.87073    1.000000    
    175 O2    c    0.581868 *  0.167325 *  0.249916 *   0.87073    1.000000    
    176 O2    c    0.834629 *  0.416432 *  0.580199 *   0.87073    1.000000    
    177 O2    c    0.581226 *  0.407559 *  0.913887 *   0.87073    1.000000    
    178 O2    c    0.422353 *  0.833044 *  0.750789 *   0.87073    1.000000    
    179 O2    c    0.168336 *  0.580690 *  0.085192 *   0.87073    1.000000    
    180 O2    c    0.416742 *  0.584649 *  0.417181 *   0.87073    1.000000    
    181 F     c    0.450366 *  0.903459 *  0.250139 *   0.56000    1.000000    
    182 F     c    0.097368 *  0.548870 *  0.580966 *   0.56000    1.000000    
    183 F     c    0.419506 *  0.514666 *  0.905675 *   0.56000    1.000000    
    184 F     c    0.559327 *  0.096922 *  0.748775 *   0.56000    1.000000    
    185 F     c    0.905636 *  0.449726 *  0.082985 *   0.56000    1.000000    
    186 F     c    0.548889 *  0.452279 *  0.415633 *   0.56000    1.000000    
    187 O3    s    0.929090 *  0.995344 *  0.010391 *  -3.33043    1.000000    
    188 O2    s    0.999545 *  0.926512 *  0.333383 *  -2.87073    1.000000    
    189 O2    s    0.076154 *  0.075439 *  0.662505 *  -2.87073    1.000000    
    190 O2    s    0.076888 *  0.000645 *  0.498724 *  -2.87073    1.000000    
    191 O1    s    0.004806 *  0.059072 *  0.832513 *  -3.73396    1.000000    
    192 O2    s    0.921717 *  0.921300 *  0.168665 *  -2.87073    1.000000    
    193 O2    s    0.349877 *  0.586477 *  0.334272 *  -2.87073    1.000000    
    194 O2    s    0.414024 *  0.764893 *  0.666798 *  -2.87073    1.000000    
    195 O2    s    0.237368 *  0.649686 *  0.002246 *  -2.87073    1.000000    
    196 O2    s    0.663447 *  0.418644 *  0.830596 *  -2.87073    1.000000    
    197 O2    s    0.584859 *  0.231271 *  0.166358 *  -2.87073    1.000000    
    198 O2    s    0.769101 *  0.351210 *  0.497418 *  -2.87073    1.000000    
    199 O2    s    0.587501 *  0.350618 *  0.999404 *  -2.87073    1.000000    
    200 O2    s    0.767115 *  0.412004 *  0.662963 *  -2.87073    1.000000    
    201 O2    s    0.648357 *  0.235804 *  0.332580 *  -2.87073    1.000000    
    202 O2    s    0.417728 *  0.650317 *  0.500340 *  -2.87073    1.000000    
    203 O2    s    0.231500 *  0.579978 *  0.168495 *  -2.87073    1.000000    
    204 O2    s    0.351300 *  0.779836 *  0.834999 *  -2.87073    1.000000    
    205 O3    s    0.131657 *  0.221201 *  0.978576 *  -3.33043    1.000000    
    206 O2    s    0.782979 *  0.906192 *  0.303704 *  -2.87073    1.000000    
    207 O2    s    0.096124 *  0.877906 *  0.634430 *  -2.87073    1.000000    
    208 O2    s    0.879872 *  0.783469 *  0.469316 *  -2.87073    1.000000    
    209 O3    s    0.241568 *  0.108218 *  0.804764 *  -3.33043    1.000000    
    210 O2    s    0.903017 *  0.114543 *  0.134208 *  -2.87073    1.000000    
    211 O2    s    0.215924 *  0.123137 *  0.363312 *  -2.87073    1.000000    
    212 O2    s    0.903242 *  0.775699 *  0.032364 *  -2.87073    1.000000    
    213 O2    s    0.879260 *  0.091561 *  0.694879 *  -2.87073    1.000000    
    214 O3    s    0.766242 *  0.860194 *  0.857207 *  -3.33043    1.000000    
    215 O2    s    0.098548 *  0.217298 *  0.528994 *  -2.87073    1.000000    
    216 O2    s    0.119718 *  0.902254 *  0.197455 *  -2.87073    1.000000    
    217 O2    s    0.928872 *  0.857591 *  0.250848 *  -2.87073    1.000000    
    218 O2    s    0.146633 *  0.070103 *  0.581172 *  -2.87073    1.000000    
    219 O1    s    0.927363 *  0.046042 *  0.920522 *  -3.73396    1.000000    
    220 O3    s    0.075957 *  0.139896 *  0.744233 *  -3.33043    1.000000    
    221 O2    s    0.841554 *  0.905226 *  0.087287 *  -2.87073    1.000000    
    222 O2    s    0.069950 *  0.930424 *  0.416061 *  -2.87073    1.000000    
    223 O3    s    0.903004 *  0.209769 *  0.981435 *  -3.33043    1.000000    
    224 O2    s    0.794368 *  0.704397 *  0.315873 *  -2.87073    1.000000    
    225 O2    s    0.298592 *  0.091164 *  0.648190 *  -2.87073    1.000000    
    226 O2    s    0.094569 *  0.796551 *  0.480885 *  -2.87073    1.000000    
    227 O1    s    0.200354 *  0.309053 *  0.817173 *  -3.73396    1.000000    
    228 O2    s    0.698836 *  0.904373 *  0.151440 *  -2.87073    1.000000    
    229 O2    s    0.204143 *  0.909550 *  0.350917 *  -2.87073    1.000000    
    230 O2    s    0.704594 *  0.792983 *  0.014627 *  -2.87073    1.000000    
    231 O2    s    0.092039 *  0.296867 *  0.682172 *  -2.87073    1.000000    
    232 O3    s    0.801424 *  0.100988 *  0.850214 *  -3.33043    1.000000    
    233 O2    s    0.299891 *  0.204911 *  0.516306 *  -2.87073    1.000000    
    234 O2    s    0.907030 *  0.699122 *  0.185970 *  -2.87073    1.000000    
    235 O2    s    0.324703 *  0.652412 *  0.251303 *  -2.87073    1.000000    
    236 O2    s    0.348094 *  0.674546 *  0.582967 *  -2.87073    1.000000    
    237 O2    s    0.322153 *  0.673639 *  0.918007 *  -2.87073    1.000000    
    238 O2    s    0.684821 *  0.350350 *  0.746486 *  -2.87073    1.000000    
    239 O2    s    0.652586 *  0.323426 *  0.083478 *  -2.87073    1.000000    
    240 O2    s    0.673786 *  0.327640 *  0.415255 *  -2.87073    1.000000    
    241 O2    s    0.380921 *  0.338407 *  0.966623 *  -2.87073    1.000000    
    242 O2    s    0.659506 *  0.037950 *  0.301439 *  -2.87073    1.000000    
    243 O2    s    0.963406 *  0.623042 *  0.631790 *  -2.87073    1.000000    
    244 O2    s    0.625056 *  0.660943 *  0.467584 *  -2.87073    1.000000    
    245 O2    s    0.351816 *  0.972639 *  0.799368 *  -2.87073    1.000000    
    246 O2    s    0.035798 *  0.370546 *  0.134258 *  -2.87073    1.000000    
    247 O2    s    0.339396 *  0.378001 *  0.365573 *  -2.87073    1.000000    
    248 O2    s    0.038362 *  0.657984 *  0.034124 *  -2.87073    1.000000    
    249 O2    s    0.624750 *  0.961094 *  0.698007 *  -2.87073    1.000000    
    250 O2    s    0.650186 *  0.613431 *  0.863749 *  -2.87073    1.000000    
    251 O2    s    0.966584 *  0.340224 *  0.529876 *  -2.87073    1.000000    
    252 O2    s    0.374608 *  0.034941 *  0.198873 *  -2.87073    1.000000    
    253 O2    s    0.776132 *  0.310853 *  0.014558 *  -2.87073    1.000000    
    254 O2    s    0.689233 *  0.467283 *  0.346905 *  -2.87073    1.000000    
    255 O2    s    0.538634 *  0.221792 *  0.678902 *  -2.87073    1.000000    
    256 O2    s    0.227433 *  0.691927 *  0.513338 *  -2.87073    1.000000    
    257 O3    s    0.294336 *  0.546938 *  0.847484 *  -3.33043    1.000000    
    258 O2    s    0.462214 *  0.772691 *  0.182438 *  -2.87073    1.000000    
    259 O2    s    0.308459 *  0.776651 *  0.319533 *  -2.87073    1.000000    
    260 O2    s    0.467955 *  0.688165 *  0.982823 *  -2.87073    1.000000    
    261 O2    s    0.224643 *  0.534087 *  0.650996 *  -2.87073    1.000000    
    262 O2    s    0.706571 *  0.231745 *  0.815520 *  -2.87073    1.000000    
    263 O2    s    0.536454 *  0.310138 *  0.484416 *  -2.87073    1.000000    
    264 O2    s    0.775743 *  0.461176 *  0.152879 *  -2.87073    1.000000    
    265 O2    s    0.786569 *  0.529015 *  0.033429 *  -2.87073    1.000000    
    266 O2    s    0.467791 *  0.257453 *  0.363707 *  -2.87073    1.000000    
    267 O2    s    0.748726 *  0.210586 *  0.696069 *  -2.87073    1.000000    
    268 O2    s    0.215229 *  0.469770 *  0.530373 *  -2.87073    1.000000    
    269 O2    s    0.518124 *  0.730901 *  0.862877 *  -2.87073    1.000000    
    270 O2    s    0.253504 *  0.784857 *  0.198909 *  -2.87073    1.000000    
    271 O2    s    0.530156 *  0.789167 *  0.303303 *  -2.87073    1.000000    
    272 O2    s    0.261149 *  0.471011 *  0.968864 *  -2.87073    1.000000    
    273 O2    s    0.212333 *  0.743334 *  0.633857 *  -2.87073    1.000000    
    274 O2    s    0.487250 *  0.221267 *  0.799854 *  -2.87073    1.000000    
    275 O2    s    0.744926 *  0.531822 *  0.467709 *  -2.87073    1.000000    
    276 O2    s    0.787336 *  0.251420 *  0.133834 *  -2.87073    1.000000    
    277 O3    s    0.217857 *  0.311049 *  0.905239 *  -3.33043    1.000000    
    278 O2    s    0.665142 *  0.905862 *  0.233507 *  -2.87073    1.000000    
    279 O2    s    0.093639 *  0.760479 *  0.563468 *  -2.87073    1.000000    
    280 O2    s    0.760619 *  0.668819 *  0.398475 *  -2.87073    1.000000    
    281 O2    s    0.341713 *  0.102729 *  0.731184 *  -2.87073    1.000000    
    282 O2    s    0.909408 *  0.237372 *  0.063983 *  -2.87073    1.000000    
    283 O2    s    0.333492 *  0.240682 *  0.433896 *  -2.87073    1.000000    
    284 O2    s    0.909726 *  0.664234 *  0.103433 *  -2.87073    1.000000    
    285 O2    s    0.768396 *  0.090543 *  0.766745 *  -2.87073    1.000000    
    286 O2    s    0.660620 *  0.756851 *  0.930579 *  -2.87073    1.000000    
    287 O2    s    0.094230 *  0.332612 *  0.599461 *  -2.87073    1.000000    
    288 O2    s    0.238843 *  0.907704 *  0.268180 *  -2.87073    1.000000    
    289 O2    s    0.584412 *  0.558455 *  0.980214 *  -2.87073    1.000000    
    290 O2    s    0.440183 *  0.025195 *  0.320064 *  -2.87073    1.000000    
    291 O2    s    0.976681 *  0.416768 *  0.650771 *  -2.87073    1.000000    
    292 O2    s    0.419190 *  0.441583 *  0.486343 *  -2.87073    1.000000    
    293 O2    s    0.568335 *  0.980633 *  0.819615 *  -2.87073    1.000000    
    294 O2    s    0.022442 *  0.576384 *  0.155173 *  -2.87073    1.000000    
    295 O2    s    0.558493 *  0.585364 *  0.346815 *  -2.87073    1.000000    
    296 O2    s    0.027461 *  0.442054 *  0.013610 *  -2.87073    1.000000    
    297 O2    s    0.415573 *  0.973626 *  0.680953 *  -2.87073    1.000000    
    298 O3    s    0.448702 *  0.404463 *  0.843196 *  -3.33043    1.000000    
    299 O2    s    0.979065 *  0.559667 *  0.510704 *  -2.87073    1.000000    
    300 O2    s    0.581235 *  0.022374 *  0.180828 *  -2.87073    1.000000    
    301 O2    s    0.576340 *  0.156119 *  0.249891 *  -2.87073    1.000000    
    302 O2    s    0.845940 *  0.422037 *  0.580197 *  -2.87073    1.000000    
    303 O2    s    0.576361 *  0.412862 *  0.914242 *  -2.87073    1.000000    
    304 O2    s    0.427644 *  0.844593 *  0.750627 *  -2.87073    1.000000    
    305 O2    s    0.157131 *  0.575061 *  0.085073 *  -2.87073    1.000000    
    306 O2    s    0.422332 *  0.579105 *  0.417084 *  -2.87073    1.000000    
    307 F     s    0.450273 *  0.903190 *  0.250058 *  -1.56000    1.000000    
    308 F     s    0.097621 *  0.549074 *  0.580893 *  -1.56000    1.000000    
    309 F     s    0.411706 *  0.507281 *  0.902612 *  -1.56000    1.000000    
    310 F     s    0.559855 *  0.097036 *  0.748810 *  -1.56000    1.000000    
    311 F     s    0.905466 *  0.449730 *  0.082844 *  -1.56000    1.000000    
    312 F     s    0.549083 *  0.452048 *  0.415560 *  -1.56000    1.000000    
--------------------------------------------------------------------------------



********************************************************************************
*  General input information                                                   *
********************************************************************************

  Species output for all configurations : 

--------------------------------------------------------------------------------
  Species    Type    Atomic    Atomic    Charge       Radii (Angs)     Library
                     Number     Mass       (e)     Cova   Ionic  VDW   Symbol
--------------------------------------------------------------------------------
    Si       Core       14      28.09   4.000000   1.200  0.000  2.100          
    O1       Core        8      16.00   1.733957   0.730  0.000  1.360          
    O1       Shell       8       0.00  -3.733957   0.730  0.000  1.360          
    O2       Core        8      16.00   0.870733   0.730  0.000  1.360          
    O2       Shell       8       0.00  -2.870733   0.730  0.000  1.360          
    O3       Core        8      16.00   1.330431   0.730  0.000  1.360          
    O3       Shell       8       0.00  -3.330431   0.730  0.000  1.360          
    F        Core        9      19.00   0.560000   0.710  0.000  1.300          
    F        Shell       9       0.00  -1.560000   0.710  0.000  1.300          
    Ge       Core       32      72.61   4.000000   1.170  0.000  1.750          
--------------------------------------------------------------------------------


  Lattice summation method               =    Ewald          (3-D)
                                         =    Parry          (2-D)
                                         =    Saunders et al (1-D)
  Accuracy factor for lattice sums       =   12.000


  Time limit = Infinity

  Maximum range for interatomic potentials =        16.000000 Angstroms

  Taper potentials to zero over   1.0000 Angstroms using polynomial

  General interatomic potentials :

--------------------------------------------------------------------------------
Atom  Types   Potential         A         B         C         D     Cutoffs(Ang)
  1     2                                                            Min    Max 
--------------------------------------------------------------------------------
Si   c O1   s Buckingham    0.132E+04 0.318      10.1      0.00     0.000 16.000
Si   c O2   s Buckingham    0.132E+04 0.318      10.1      0.00     0.000 16.000
Si   c O3   s Buckingham    0.132E+04 0.318      10.1      0.00     0.000 16.000
Ge   c O1   s Buckingham    0.150E+04 0.326      16.8      0.00     0.000 16.000
Ge   c O2   s Buckingham    0.150E+04 0.326      16.8      0.00     0.000 16.000
Ge   c O3   s Buckingham    0.150E+04 0.326      16.8      0.00     0.000 16.000
O1   s O1   s Buckingham    0.228E+05 0.149      10.9      0.00     0.000 16.000
O1   s O2   s Buckingham    0.228E+05 0.149      10.9      0.00     0.000 16.000
O1   s O3   s Buckingham    0.228E+05 0.149      10.9      0.00     0.000 16.000
O2   s O2   s Buckingham    0.228E+05 0.149      10.9      0.00     0.000 16.000
O2   s O3   s Buckingham    0.228E+05 0.149      10.9      0.00     0.000 16.000
O3   s O3   s Buckingham    0.228E+05 0.149      10.9      0.00     0.000 16.000
Si   c F    s Buckingham     977.     0.282      0.00      0.00     0.000 16.000
Ge   c F    s Buckingham     681.     0.320      0.00      0.00     0.000 16.000
F    s F    s Buckingham     540.     0.262      0.00      0.00     0.000 16.000
O1   s F    s Buckingham    0.168E+04 0.268      0.00      0.00     0.000 16.000
O2   s F    s Buckingham    0.168E+04 0.268      0.00      0.00     0.000 16.000
O3   s F    s Buckingham    0.168E+04 0.268      0.00      0.00     0.000 16.000
O2   c O2   s Spring (c-s)   76.0      0.00      0.00      0.00     0.000  0.800
O3   c O3   s Spring (c-s)   128.      0.00      0.00      0.00     0.000  0.800
O1   c O1   s Spring (c-s)   180.      0.00      0.00      0.00     0.000  0.800
F    c F    s Spring (c-s)   33.5      0.00      0.00      0.00     0.000  0.800
--------------------------------------------------------------------------------

  General Three-body potentials :

  Harmonic form:

--------------------------------------------------------------------------------
Atom    Atom    Atom           Force Constants            Theta     Cutoffs  
  1       2       3     (eVrad**-2/eVrad**-3/eVrad**-4)   (deg)  1-2  1-3  2-3
--------------------------------------------------------------------------------
Si    c O1    s O1    s  1.261        0.0000    0.0000   109.470 0.00 0.00 0.00
                                                                 1.90 1.90 3.50
Si    c O1    s O2    s  1.261        0.0000    0.0000   109.470 0.00 0.00 0.00
                                                                 1.90 1.90 3.50
Si    c O2    s O2    s  1.261        0.0000    0.0000   109.470 0.00 0.00 0.00
                                                                 1.90 1.90 3.50
--------------------------------------------------------------------------------

********************************************************************************
*  Output for configuration   1                                                *
********************************************************************************


  Components of energy : 

--------------------------------------------------------------------------------
  Interatomic potentials     =        2060.97332252 eV
  Three-body potentials      =           0.44578249 eV
  Monopole - monopole (real) =       -6578.99720419 eV
  Monopole - monopole (recip)=       -3194.40394161 eV
  Monopole - monopole (total)=       -9773.40114580 eV
  Neutralising energy        =          -6.45749591 eV
--------------------------------------------------------------------------------
  Total lattice energy       =       -7718.43953669 eV
--------------------------------------------------------------------------------
  Total lattice energy       =         -744711.4281 kJ/(mole unit cells)
--------------------------------------------------------------------------------


  Number of variables =      939

  Maximum number of calculations  =          1000
  Maximum Hessian update interval =            10
  Maximum step size               =   0.010000000
  Maximum parameter tolerance     =   0.000010000
  Maximum function  tolerance     =   0.000010000
  Maximum gradient  tolerance     =   0.001000000
  Maximum gradient  component     =   0.010000000

  Symmetry not applied to optimisation

  Cell parameters to be optimised using strains

  RFO method to be used

  DFP hessian update to be used

  Dumpfile to be written after every cycle

  Start of bulk optimisation :

  Cycle:      0 Energy:     -7718.439537  Gnorm:      0.041418  CPU:    1.055
  ** Hessian has required structure
  Cycle:      1 Energy:     -7718.453797  Gnorm:      0.039347  CPU:    4.122
  ** Hessian has required structure
  Cycle:      2 Energy:     -7718.466671  Gnorm:      0.037379  CPU:    7.188
  ** Hessian has required structure
  Cycle:      3 Energy:     -7718.478279  Gnorm:      0.035510  CPU:   10.251
  ** Hessian has required structure
  Cycle:      4 Energy:     -7718.488746  Gnorm:      0.033734  CPU:   13.315
  ** Hessian has required structure
  Cycle:      5 Energy:     -7718.498185  Gnorm:      0.032047  CPU:   16.379
  ** Hessian has required structure
  Cycle:      6 Energy:     -7718.506696  Gnorm:      0.030444  CPU:   19.443
  ** Hessian has required structure
  Cycle:      7 Energy:     -7718.514372  Gnorm:      0.028921  CPU:   22.506
  ** Hessian has required structure
  Cycle:      8 Energy:     -7718.521295  Gnorm:      0.027475  CPU:   25.570
  ** Hessian has required structure
  Cycle:      9 Energy:     -7718.527539  Gnorm:      0.026101  CPU:   28.633
  ** Hessian has required structure
  Cycle:     10 Energy:     -7718.533170  Gnorm:      0.024795  CPU:   31.695
  ** Hessian has required structure
  Cycle:     11 Energy:     -7718.538252  Gnorm:      0.023554  CPU:   35.413
  ** Hessian has required structure
  Cycle:     12 Energy:     -7718.542834  Gnorm:      0.022376  CPU:   38.473
  ** Hessian has required structure
  Cycle:     13 Energy:     -7718.546966  Gnorm:      0.021257  CPU:   41.533
  ** Hessian has required structure
  Cycle:     14 Energy:     -7718.550694  Gnorm:      0.020194  CPU:   44.593
  ** Hessian has required structure
  Cycle:     15 Energy:     -7718.554056  Gnorm:      0.019184  CPU:   47.653
  ** Hessian has required structure
  Cycle:     16 Energy:     -7718.557089  Gnorm:      0.018225  CPU:   50.713
  ** Hessian has required structure
  Cycle:     17 Energy:     -7718.559825  Gnorm:      0.017314  CPU:   53.775
  ** Hessian has required structure
  Cycle:     18 Energy:     -7718.562293  Gnorm:      0.016448  CPU:   56.837
  ** Hessian has required structure
  Cycle:     19 Energy:     -7718.564520  Gnorm:      0.015626  CPU:   59.896
  ** Hessian has required structure
  Cycle:     20 Energy:     -7718.566528  Gnorm:      0.014844  CPU:   62.957
  ** Hessian has required structure
  Cycle:     21 Energy:     -7718.568343  Gnorm:      0.014100  CPU:   66.674
  ** Hessian has required structure
  Cycle:     22 Energy:     -7718.569978  Gnorm:      0.013395  CPU:   69.732
  ** Hessian has required structure
  Cycle:     23 Energy:     -7718.571452  Gnorm:      0.012725  CPU:   72.791
  ** Hessian has required structure
  Cycle:     24 Energy:     -7718.572783  Gnorm:      0.012089  CPU:   75.850
  ** Hessian has required structure
  Cycle:     25 Energy:     -7718.573983  Gnorm:      0.011485  CPU:   78.925
  ** Hessian has required structure
  Cycle:     26 Energy:     -7718.575066  Gnorm:      0.010911  CPU:   81.983
  ** Hessian has required structure
  Cycle:     27 Energy:     -7718.576042  Gnorm:      0.010365  CPU:   85.040
  ** Hessian has required structure
  Cycle:     28 Energy:     -7718.576924  Gnorm:      0.009847  CPU:   88.097
  ** Hessian has required structure
  Cycle:     29 Energy:     -7718.577719  Gnorm:      0.009354  CPU:   91.154
  ** Hessian has required structure
  Cycle:     30 Energy:     -7718.578437  Gnorm:      0.008887  CPU:   94.210
  ** Hessian has required structure
  Cycle:     31 Energy:     -7718.579085  Gnorm:      0.008441  CPU:   97.926
  ** Hessian has required structure
  Cycle:     32 Energy:     -7718.579669  Gnorm:      0.008019  CPU:  100.984
  ** Hessian has required structure
  Cycle:     33 Energy:     -7718.580196  Gnorm:      0.007618  CPU:  104.042
  ** Hessian has required structure
  Cycle:     34 Energy:     -7718.580672  Gnorm:      0.007237  CPU:  107.097
  ** Hessian has required structure
  Cycle:     35 Energy:     -7718.581101  Gnorm:      0.006875  CPU:  110.154
  ** Hessian has required structure
  Cycle:     36 Energy:     -7718.581488  Gnorm:      0.006531  CPU:  113.211
  ** Hessian has required structure
  Cycle:     37 Energy:     -7718.581837  Gnorm:      0.006205  CPU:  116.269
  ** Hessian has required structure
  Cycle:     38 Energy:     -7718.582152  Gnorm:      0.005895  CPU:  119.325
  ** Hessian has required structure
  Cycle:     39 Energy:     -7718.582436  Gnorm:      0.005600  CPU:  122.383
  ** Hessian has required structure
  Cycle:     40 Energy:     -7718.582693  Gnorm:      0.005320  CPU:  125.439
  ** Hessian has required structure
  Cycle:     41 Energy:     -7718.582925  Gnorm:      0.005053  CPU:  129.176
  ** Hessian has required structure
  Cycle:     42 Energy:     -7718.583134  Gnorm:      0.004800  CPU:  132.231
  ** Hessian has required structure
  Cycle:     43 Energy:     -7718.583322  Gnorm:      0.004560  CPU:  135.289
  ** Hessian has required structure
  Cycle:     44 Energy:     -7718.583492  Gnorm:      0.004332  CPU:  138.345
  ** Hessian has required structure
  Cycle:     45 Energy:     -7718.583646  Gnorm:      0.004116  CPU:  141.402
  ** Hessian has required structure
  Cycle:     46 Energy:     -7718.583784  Gnorm:      0.003910  CPU:  144.460
  ** Hessian has required structure
  Cycle:     47 Energy:     -7718.583860  Gnorm:      0.003793  CPU:  146.857
  ** Hessian has required structure
  Cycle:     48 Energy:     -7718.583921  Gnorm:      0.003696  CPU:  149.418
  ** Hessian has required structure
  Cycle:     49 Energy:     -7718.583973  Gnorm:      0.003611  CPU:  151.834
  ** Hessian has required structure
  Cycle:     50 Energy:     -7718.584020  Gnorm:      0.003532  CPU:  154.230
  ** Hessian has required structure
  Cycle:     51 Energy:     -7718.584082  Gnorm:      0.003426  CPU:  157.285
  ** Hessian has required structure
  Cycle:     52 Energy:     -7718.584131  Gnorm:      0.003338  CPU:  159.681
  ** Hessian has required structure
  Cycle:     53 Energy:     -7718.584174  Gnorm:      0.003261  CPU:  162.079
  ** Hessian has required structure
  Cycle:     54 Energy:     -7718.584212  Gnorm:      0.003190  CPU:  164.475
  ** Hessian has required structure
  Cycle:     55 Energy:     -7718.584248  Gnorm:      0.003123  CPU:  166.871
  ** Hessian has required structure
  Cycle:     56 Energy:     -7718.584282  Gnorm:      0.003058  CPU:  169.268
  ** Hessian has required structure
  Cycle:     57 Energy:     -7718.584314  Gnorm:      0.002995  CPU:  171.664
  ** Hessian has required structure
  Cycle:     58 Energy:     -7718.584344  Gnorm:      0.002933  CPU:  174.061
  ** Hessian has required structure
  Cycle:     59 Energy:     -7718.584373  Gnorm:      0.002873  CPU:  176.458
  ** Hessian has required structure
  Cycle:     60 Energy:     -7718.584401  Gnorm:      0.002815  CPU:  178.855
  ** Hessian has required structure
  Cycle:     61 Energy:     -7718.584441  Gnorm:      0.002730  CPU:  181.908
  ** Hessian has required structure
  Cycle:     62 Energy:     -7718.584472  Gnorm:      0.002660  CPU:  184.304
  ** Hessian has required structure
  Cycle:     63 Energy:     -7718.584499  Gnorm:      0.002599  CPU:  186.700
  ** Hessian has required structure
  Cycle:     64 Energy:     -7718.584524  Gnorm:      0.002542  CPU:  189.096
  ** Hessian has required structure
  Cycle:     65 Energy:     -7718.584546  Gnorm:      0.002488  CPU:  191.491
  ** Hessian has required structure
  Cycle:     66 Energy:     -7718.584568  Gnorm:      0.002437  CPU:  193.888
  ** Hessian has required structure
  Cycle:     67 Energy:     -7718.584588  Gnorm:      0.002386  CPU:  196.285
  ** Hessian has required structure
  Cycle:     68 Energy:     -7718.584607  Gnorm:      0.002337  CPU:  198.680
  ** Hessian has required structure
  Cycle:     69 Energy:     -7718.584626  Gnorm:      0.002290  CPU:  201.076
  ** Hessian has required structure
  Cycle:     70 Energy:     -7718.584644  Gnorm:      0.002243  CPU:  203.472
  ** Hessian has required structure
  Cycle:     71 Energy:     -7718.584669  Gnorm:      0.002175  CPU:  206.596
  ** Hessian has required structure
  Cycle:     72 Energy:     -7718.584688  Gnorm:      0.002120  CPU:  208.993
  ** Hessian has required structure
  Cycle:     73 Energy:     -7718.584706  Gnorm:      0.002071  CPU:  211.593
  ** Hessian has required structure
  Cycle:     74 Energy:     -7718.584721  Gnorm:      0.002026  CPU:  213.990
  ** Hessian has required structure
  Cycle:     75 Energy:     -7718.584735  Gnorm:      0.001983  CPU:  216.385
  ** Hessian has required structure
  Cycle:     76 Energy:     -7718.584749  Gnorm:      0.001942  CPU:  218.781
  ** Hessian has required structure
  Cycle:     77 Energy:     -7718.584762  Gnorm:      0.001902  CPU:  221.177
  ** Hessian has required structure
  Cycle:     78 Energy:     -7718.584774  Gnorm:      0.001863  CPU:  223.573
  ** Hessian has required structure
  Cycle:     79 Energy:     -7718.584786  Gnorm:      0.001824  CPU:  225.967
  ** Hessian has required structure
  Cycle:     80 Energy:     -7718.584797  Gnorm:      0.001787  CPU:  228.362
  ** Hessian has required structure
  Cycle:     81 Energy:     -7718.584813  Gnorm:      0.001733  CPU:  231.460
  ** Hessian has required structure
  Cycle:     82 Energy:     -7718.584826  Gnorm:      0.001689  CPU:  233.855
  ** Hessian has required structure
  Cycle:     83 Energy:     -7718.584837  Gnorm:      0.001650  CPU:  236.252
  ** Hessian has required structure
  Cycle:     84 Energy:     -7718.584847  Gnorm:      0.001614  CPU:  238.649
  ** Hessian has required structure
  Cycle:     85 Energy:     -7718.584856  Gnorm:      0.001580  CPU:  241.044
  ** Hessian has required structure
  Cycle:     86 Energy:     -7718.584864  Gnorm:      0.001547  CPU:  243.440
  ** Hessian has required structure
  Cycle:     87 Energy:     -7718.584872  Gnorm:      0.001515  CPU:  245.836
  ** Hessian has required structure
  Cycle:     88 Energy:     -7718.584880  Gnorm:      0.001484  CPU:  248.230
  ** Hessian has required structure
  Cycle:     89 Energy:     -7718.584888  Gnorm:      0.001454  CPU:  250.627
  ** Hessian has required structure
  Cycle:     90 Energy:     -7718.584895  Gnorm:      0.001424  CPU:  253.022
  ** Hessian has required structure
  Cycle:     91 Energy:     -7718.584905  Gnorm:      0.001381  CPU:  256.075
  ** Hessian has required structure
  Cycle:     92 Energy:     -7718.584913  Gnorm:      0.001346  CPU:  258.471
  ** Hessian has required structure
  Cycle:     93 Energy:     -7718.584920  Gnorm:      0.001315  CPU:  260.866
  ** Hessian has required structure
  Cycle:     94 Energy:     -7718.584926  Gnorm:      0.001286  CPU:  263.261
  ** Hessian has required structure
  Cycle:     95 Energy:     -7718.584932  Gnorm:      0.001259  CPU:  265.657
  ** Hessian has required structure
  Cycle:     96 Energy:     -7718.584937  Gnorm:      0.001233  CPU:  268.052
  ** Hessian has required structure
  Cycle:     97 Energy:     -7718.584943  Gnorm:      0.001208  CPU:  270.447
  ** Hessian has required structure
  Cycle:     98 Energy:     -7718.584948  Gnorm:      0.001183  CPU:  272.841
  ** Hessian has required structure
  Cycle:     99 Energy:     -7718.584952  Gnorm:      0.001158  CPU:  275.237
  ** Hessian has required structure
  Cycle:    100 Energy:     -7718.584957  Gnorm:      0.001135  CPU:  277.633
  ** Hessian has required structure
  Cycle:    101 Energy:     -7718.584963  Gnorm:      0.001101  CPU:  280.686
  ** Hessian has required structure
  Cycle:    102 Energy:     -7718.584968  Gnorm:      0.001073  CPU:  283.080
  ** Hessian has required structure
  Cycle:    103 Energy:     -7718.584973  Gnorm:      0.001048  CPU:  285.475
  ** Hessian has required structure
  Cycle:    104 Energy:     -7718.584977  Gnorm:      0.001025  CPU:  287.872
  ** Hessian has required structure
  Cycle:    105 Energy:     -7718.584980  Gnorm:      0.001003  CPU:  290.268
  ** Hessian has required structure
  Cycle:    106 Energy:     -7718.584984  Gnorm:      0.000982  CPU:  292.663
  ** Hessian has required structure
  Cycle:    107 Energy:     -7718.584987  Gnorm:      0.000962  CPU:  295.058
  ** Hessian has required structure
  Cycle:    108 Energy:     -7718.584990  Gnorm:      0.000942  CPU:  297.528
  ** Hessian has required structure
  Cycle:    109 Energy:     -7718.584993  Gnorm:      0.000923  CPU:  299.924
  ** Hessian has required structure
  Cycle:    110 Energy:     -7718.584996  Gnorm:      0.000904  CPU:  302.318
  ** Hessian has required structure
  Cycle:    111 Energy:     -7718.585000  Gnorm:      0.000877  CPU:  305.369
  ** Hessian has required structure
  Cycle:    112 Energy:     -7718.585004  Gnorm:      0.000855  CPU:  307.765
  ** Hessian has required structure
  Cycle:    113 Energy:     -7718.585006  Gnorm:      0.000835  CPU:  310.354
  ** Hessian has required structure
  Cycle:    114 Energy:     -7718.585009  Gnorm:      0.000817  CPU:  312.749
  ** Hessian has required structure
  Cycle:    115 Energy:     -7718.585011  Gnorm:      0.000800  CPU:  315.145
  ** Hessian has required structure
  Cycle:    116 Energy:     -7718.585013  Gnorm:      0.000783  CPU:  317.537
  ** Hessian has required structure
  Cycle:    117 Energy:     -7718.585015  Gnorm:      0.000767  CPU:  319.934
  ** Hessian has required structure
  Cycle:    118 Energy:     -7718.585017  Gnorm:      0.000751  CPU:  322.329
  ** Hessian has required structure
  Cycle:    119 Energy:     -7718.585019  Gnorm:      0.000736  CPU:  324.725
  ** Hessian has required structure
  Cycle:    120 Energy:     -7718.585021  Gnorm:      0.000721  CPU:  327.122
  ** Hessian has required structure
  Cycle:    121 Energy:     -7718.585024  Gnorm:      0.000699  CPU:  330.173
  ** Hessian has required structure
  Cycle:    122 Energy:     -7718.585026  Gnorm:      0.000681  CPU:  332.568
  ** Hessian has required structure
  Cycle:    123 Energy:     -7718.585028  Gnorm:      0.000665  CPU:  334.964
  ** Hessian has required structure
  Cycle:    124 Energy:     -7718.585029  Gnorm:      0.000651  CPU:  337.360
  ** Hessian has required structure
  Cycle:    125 Energy:     -7718.585031  Gnorm:      0.000637  CPU:  339.755
  ** Hessian has required structure
  Cycle:    126 Energy:     -7718.585032  Gnorm:      0.000624  CPU:  342.152
  ** Hessian has required structure
  Cycle:    127 Energy:     -7718.585033  Gnorm:      0.000611  CPU:  344.547
  ** Hessian has required structure
  Cycle:    128 Energy:     -7718.585035  Gnorm:      0.000598  CPU:  346.944
  ** Hessian has required structure
  Cycle:    129 Energy:     -7718.585036  Gnorm:      0.000586  CPU:  349.340
  ** Hessian has required structure
  Cycle:    130 Energy:     -7718.585037  Gnorm:      0.000574  CPU:  351.735
  ** Hessian has required structure
  Cycle:    131 Energy:     -7718.585039  Gnorm:      0.000557  CPU:  354.847
  ** Hessian has required structure
  Cycle:    132 Energy:     -7718.585040  Gnorm:      0.000543  CPU:  357.241
  ** Hessian has required structure
  Cycle:    133 Energy:     -7718.585041  Gnorm:      0.000530  CPU:  359.636
  ** Hessian has required structure
  Cycle:    134 Energy:     -7718.585042  Gnorm:      0.000519  CPU:  362.031
  ** Hessian has required structure
  Cycle:    135 Energy:     -7718.585043  Gnorm:      0.000508  CPU:  364.425
  ** Hessian has required structure
  Cycle:    136 Energy:     -7718.585044  Gnorm:      0.000497  CPU:  366.820
  ** Hessian has required structure
  Cycle:    137 Energy:     -7718.585045  Gnorm:      0.000487  CPU:  369.215
  ** Hessian has required structure
  Cycle:    138 Energy:     -7718.585046  Gnorm:      0.000477  CPU:  371.619
  ** Hessian has required structure
  Cycle:    139 Energy:     -7718.585046  Gnorm:      0.000467  CPU:  374.015
  ** Hessian has required structure
  Cycle:    140 Energy:     -7718.585047  Gnorm:      0.000458  CPU:  376.410
  ** Hessian has required structure
  Cycle:    141 Energy:     -7718.585048  Gnorm:      0.000444  CPU:  379.464
  ** Hessian has required structure
  Cycle:    142 Energy:     -7718.585049  Gnorm:      0.000432  CPU:  381.858
  ** Hessian has required structure
  Cycle:    143 Energy:     -7718.585050  Gnorm:      0.000422  CPU:  384.254
  ** Hessian has required structure
  Cycle:    144 Energy:     -7718.585050  Gnorm:      0.000413  CPU:  386.648
  ** Hessian has required structure
  Cycle:    145 Energy:     -7718.585051  Gnorm:      0.000405  CPU:  389.044
  ** Hessian has required structure
  Cycle:    146 Energy:     -7718.585052  Gnorm:      0.000396  CPU:  391.439
  ** Hessian has required structure
  Cycle:    147 Energy:     -7718.585052  Gnorm:      0.000388  CPU:  393.834
  ** Hessian has required structure
  Cycle:    148 Energy:     -7718.585053  Gnorm:      0.000380  CPU:  396.231
  ** Hessian has required structure
  Cycle:    149 Energy:     -7718.585053  Gnorm:      0.000372  CPU:  398.626
  ** Hessian has required structure
  Cycle:    150 Energy:     -7718.585054  Gnorm:      0.000365  CPU:  401.022
  ** Hessian has required structure
  Cycle:    151 Energy:     -7718.585054  Gnorm:      0.000354  CPU:  404.075
  ** Hessian has required structure
  Cycle:    152 Energy:     -7718.585055  Gnorm:      0.000345  CPU:  406.468
  ** Hessian has required structure
  Cycle:    153 Energy:     -7718.585055  Gnorm:      0.000337  CPU:  408.864
  ** Hessian has required structure
  Cycle:    154 Energy:     -7718.585056  Gnorm:      0.000329  CPU:  411.259
  ** Hessian has required structure
  Cycle:    155 Energy:     -7718.585056  Gnorm:      0.000322  CPU:  413.653
  ** Hessian has required structure
  Cycle:    156 Energy:     -7718.585056  Gnorm:      0.000316  CPU:  416.048
  ** Hessian has required structure
  Cycle:    157 Energy:     -7718.585057  Gnorm:      0.000309  CPU:  418.443
  ** Hessian has required structure
  Cycle:    158 Energy:     -7718.585057  Gnorm:      0.000303  CPU:  420.838
  ** Hessian has required structure
  Cycle:    159 Energy:     -7718.585057  Gnorm:      0.000297  CPU:  423.275
  ** Hessian has required structure
  Cycle:    160 Energy:     -7718.585058  Gnorm:      0.000291  CPU:  425.670
  ** Hessian has required structure
  Cycle:    161 Energy:     -7718.585058  Gnorm:      0.000282  CPU:  428.723
  ** Hessian has required structure
  Cycle:    162 Energy:     -7718.585058  Gnorm:      0.000275  CPU:  431.116
  ** Hessian has required structure
  Cycle:    163 Energy:     -7718.585059  Gnorm:      0.000268  CPU:  433.511
  ** Hessian has required structure
  Cycle:    164 Energy:     -7718.585059  Gnorm:      0.000262  CPU:  435.905
  ** Hessian has required structure
  Cycle:    165 Energy:     -7718.585059  Gnorm:      0.000257  CPU:  438.299
  ** Hessian has required structure
  Cycle:    166 Energy:     -7718.585059  Gnorm:      0.000252  CPU:  440.764
  ** Hessian has required structure
  Cycle:    167 Energy:     -7718.585060  Gnorm:      0.000246  CPU:  443.159
  ** Hessian has required structure
  Cycle:    168 Energy:     -7718.585060  Gnorm:      0.000241  CPU:  445.554
  ** Hessian has required structure
  Cycle:    169 Energy:     -7718.585060  Gnorm:      0.000236  CPU:  447.950
  ** Hessian has required structure
  Cycle:    170 Energy:     -7718.585060  Gnorm:      0.000232  CPU:  450.344
  ** Hessian has required structure
  Cycle:    171 Energy:     -7718.585060  Gnorm:      0.000225  CPU:  453.398
  ** Hessian has required structure
  Cycle:    172 Energy:     -7718.585061  Gnorm:      0.000219  CPU:  455.793
  ** Hessian has required structure
  Cycle:    173 Energy:     -7718.585061  Gnorm:      0.000214  CPU:  458.403
  ** Hessian has required structure
  Cycle:    174 Energy:     -7718.585061  Gnorm:      0.000209  CPU:  460.798
  ** Hessian has required structure
  Cycle:    175 Energy:     -7718.585061  Gnorm:      0.000205  CPU:  463.363
  ** Hessian has required structure
  Cycle:    176 Energy:     -7718.585061  Gnorm:      0.000200  CPU:  465.759
  ** Hessian has required structure
  Cycle:    177 Energy:     -7718.585061  Gnorm:      0.000196  CPU:  468.156
  ** Hessian has required structure
  Cycle:    178 Energy:     -7718.585062  Gnorm:      0.000192  CPU:  470.551
  ** Hessian has required structure
  Cycle:    179 Energy:     -7718.585062  Gnorm:      0.000188  CPU:  473.017
  ** Hessian has required structure
  Cycle:    180 Energy:     -7718.585062  Gnorm:      0.000184  CPU:  475.415
  ** Hessian has required structure
  Cycle:    181 Energy:     -7718.585062  Gnorm:      0.000179  CPU:  478.470
  ** Hessian has required structure
  Cycle:    182 Energy:     -7718.585062  Gnorm:      0.000174  CPU:  480.866
  ** Hessian has required structure
  Cycle:    183 Energy:     -7718.585062  Gnorm:      0.000170  CPU:  483.448
  ** Hessian has required structure
  Cycle:    184 Energy:     -7718.585062  Gnorm:      0.000167  CPU:  485.844
  ** Hessian has required structure
  Cycle:    185 Energy:     -7718.585062  Gnorm:      0.000163  CPU:  488.240
  ** Hessian has required structure
  Cycle:    186 Energy:     -7718.585063  Gnorm:      0.000160  CPU:  490.634
  ** Hessian has required structure
  Cycle:    187 Energy:     -7718.585063  Gnorm:      0.000156  CPU:  493.031
  ** Hessian has required structure
  Cycle:    188 Energy:     -7718.585063  Gnorm:      0.000153  CPU:  495.426
  ** Hessian has required structure
  Cycle:    189 Energy:     -7718.585063  Gnorm:      0.000150  CPU:  497.821
  ** Hessian has required structure
  Cycle:    190 Energy:     -7718.585063  Gnorm:      0.000147  CPU:  500.214
  ** Hessian has required structure
  Cycle:    191 Energy:     -7718.585063  Gnorm:      0.000143  CPU:  503.303
  ** Hessian has required structure
  Cycle:    192 Energy:     -7718.585063  Gnorm:      0.000139  CPU:  505.698
  ** Hessian has required structure
  Cycle:    193 Energy:     -7718.585063  Gnorm:      0.000136  CPU:  508.267
  ** Hessian has required structure
  Cycle:    194 Energy:     -7718.585063  Gnorm:      0.000133  CPU:  510.662
  ** Hessian has required structure
  Cycle:    195 Energy:     -7718.585063  Gnorm:      0.000130  CPU:  513.058
  ** Hessian has required structure
  Cycle:    196 Energy:     -7718.585063  Gnorm:      0.000127  CPU:  515.453
  ** Hessian has required structure
  Cycle:    197 Energy:     -7718.585063  Gnorm:      0.000125  CPU:  517.848
  ** Hessian has required structure
  Cycle:    198 Energy:     -7718.585063  Gnorm:      0.000122  CPU:  520.243
  ** Hessian has required structure
  Cycle:    199 Energy:     -7718.585063  Gnorm:      0.000120  CPU:  522.639
  ** Hessian has required structure
  Cycle:    200 Energy:     -7718.585063  Gnorm:      0.000117  CPU:  525.034
  ** Hessian has required structure
  Cycle:    201 Energy:     -7718.585064  Gnorm:      0.000114  CPU:  528.088
  ** Hessian has required structure
  Cycle:    202 Energy:     -7718.585064  Gnorm:      0.000111  CPU:  530.483
  ** Hessian has required structure
  Cycle:    203 Energy:     -7718.585064  Gnorm:      0.000108  CPU:  532.877
  ** Hessian has required structure
  Cycle:    204 Energy:     -7718.585064  Gnorm:      0.000106  CPU:  535.271
  ** Hessian has required structure
  Cycle:    205 Energy:     -7718.585064  Gnorm:      0.000104  CPU:  537.665
  ** Hessian has required structure
  Cycle:    206 Energy:     -7718.585064  Gnorm:      0.000101  CPU:  540.062
  ** Hessian has required structure
  Cycle:    207 Energy:     -7718.585064  Gnorm:      0.000099  CPU:  542.458
  ** Hessian has required structure
  Cycle:    208 Energy:     -7718.585064  Gnorm:      0.000097  CPU:  544.853
  ** Hessian has required structure
  Cycle:    209 Energy:     -7718.585064  Gnorm:      0.000095  CPU:  547.248
  ** Hessian has required structure
  Cycle:    210 Energy:     -7718.585064  Gnorm:      0.000093  CPU:  549.812
  ** Hessian has required structure
  Cycle:    211 Energy:     -7718.585064  Gnorm:      0.000090  CPU:  552.869
  ** Hessian has required structure
  Cycle:    212 Energy:     -7718.585064  Gnorm:      0.000088  CPU:  555.264
  ** Hessian has required structure
  Cycle:    213 Energy:     -7718.585064  Gnorm:      0.000086  CPU:  557.657
  ** Hessian has required structure
  Cycle:    214 Energy:     -7718.585064  Gnorm:      0.000084  CPU:  560.053
  ** Hessian has required structure
  Cycle:    215 Energy:     -7718.585064  Gnorm:      0.000082  CPU:  562.448
  ** Hessian has required structure
  Cycle:    216 Energy:     -7718.585064  Gnorm:      0.000081  CPU:  564.843
  ** Hessian has required structure
  Cycle:    217 Energy:     -7718.585064  Gnorm:      0.000079  CPU:  567.238
  ** Hessian has required structure
  Cycle:    218 Energy:     -7718.585064  Gnorm:      0.000077  CPU:  569.631
  ** Hessian has required structure
  Cycle:    219 Energy:     -7718.585064  Gnorm:      0.000076  CPU:  572.024
  ** Hessian has required structure
  Cycle:    220 Energy:     -7718.585064  Gnorm:      0.000074  CPU:  574.419
  ** Hessian has required structure
  Cycle:    221 Energy:     -7718.585064  Gnorm:      0.000072  CPU:  577.531
  ** Hessian has required structure
  Cycle:    222 Energy:     -7718.585064  Gnorm:      0.000070  CPU:  579.926
  ** Hessian has required structure
  Cycle:    223 Energy:     -7718.585064  Gnorm:      0.000069  CPU:  582.321
  ** Hessian has required structure
  Cycle:    224 Energy:     -7718.585064  Gnorm:      0.000067  CPU:  584.715
  ** Hessian has required structure
  Cycle:    225 Energy:     -7718.585064  Gnorm:      0.000066  CPU:  587.111
  ** Hessian has required structure
  Cycle:    226 Energy:     -7718.585064  Gnorm:      0.000064  CPU:  589.506
  ** Hessian has required structure
  Cycle:    227 Energy:     -7718.585064  Gnorm:      0.000063  CPU:  591.900
  ** Hessian has required structure
  Cycle:    228 Energy:     -7718.585064  Gnorm:      0.000062  CPU:  594.296
  ** Hessian has required structure
  Cycle:    229 Energy:     -7718.585064  Gnorm:      0.000060  CPU:  596.691
  ** Hessian has required structure
  Cycle:    230 Energy:     -7718.585064  Gnorm:      0.000059  CPU:  599.086
  ** Hessian has required structure
  Cycle:    231 Energy:     -7718.585064  Gnorm:      0.000057  CPU:  602.203
  ** Hessian has required structure
  Cycle:    232 Energy:     -7718.585064  Gnorm:      0.000056  CPU:  604.598
  ** Hessian has required structure
  Cycle:    233 Energy:     -7718.585064  Gnorm:      0.000055  CPU:  606.991
  ** Hessian has required structure
  Cycle:    234 Energy:     -7718.585064  Gnorm:      0.000053  CPU:  609.385
  ** Hessian has required structure
  Cycle:    235 Energy:     -7718.585064  Gnorm:      0.000052  CPU:  611.780
  ** Hessian has required structure
  Cycle:    236 Energy:     -7718.585064  Gnorm:      0.000051  CPU:  614.174
  ** Hessian has required structure
  Cycle:    237 Energy:     -7718.585064  Gnorm:      0.000050  CPU:  616.568
  ** Hessian has required structure
  Cycle:    238 Energy:     -7718.585064  Gnorm:      0.000049  CPU:  618.965
  ** Hessian has required structure
  Cycle:    239 Energy:     -7718.585064  Gnorm:      0.000048  CPU:  621.361
  ** Hessian has required structure
  Cycle:    240 Energy:     -7718.585064  Gnorm:      0.000047  CPU:  623.755
  ** Hessian has required structure
  Cycle:    241 Energy:     -7718.585064  Gnorm:      0.000046  CPU:  626.859
  ** Hessian has required structure
  Cycle:    242 Energy:     -7718.585064  Gnorm:      0.000045  CPU:  629.252
  ** Hessian has required structure
  Cycle:    243 Energy:     -7718.585064  Gnorm:      0.000044  CPU:  631.647
  ** Hessian has required structure
  Cycle:    244 Energy:     -7718.585064  Gnorm:      0.000043  CPU:  634.043
  ** Hessian has required structure
  Cycle:    245 Energy:     -7718.585064  Gnorm:      0.000042  CPU:  636.440
  ** Hessian has required structure
  Cycle:    246 Energy:     -7718.585064  Gnorm:      0.000041  CPU:  638.834
  ** Hessian has required structure


  **** Too many failed attempts to optimise ****

  Final energy =   -7718.58506451 eV
  Final Gnorm  =       0.00004004

  Components of energy : 

--------------------------------------------------------------------------------
  Interatomic potentials     =        2058.94495164 eV
  Three-body potentials      =           0.50373760 eV
  Monopole - monopole (real) =       -6579.84915239 eV
  Monopole - monopole (recip)=       -3191.73251589 eV
  Monopole - monopole (total)=       -9771.58166828 eV
  Neutralising energy        =          -6.45208546 eV
--------------------------------------------------------------------------------
  Total lattice energy       =       -7718.58506451 eV
--------------------------------------------------------------------------------
  Total lattice energy       =         -744725.4693 kJ/(mole unit cells)
--------------------------------------------------------------------------------

  Final fractional coordinates of atoms :

--------------------------------------------------------------------------------
   No.  Atomic        x           y          z          Radius
        Label       (Frac)      (Frac)     (Frac)       (Angs) 
--------------------------------------------------------------------------------
     1  Si    c     0.699600    0.375700    0.033890    0.000000
     2  Si    c     0.622085    0.326897    0.366270    0.000000
     3  Si    c     0.689555    0.302033    0.698149    0.000000
     4  Si    c     0.304882    0.624780    0.534202    0.000000
     5  Si    c     0.367307    0.682257    0.865642    0.000000
     6  Si    c     0.320460    0.699277    0.201635    0.000000
     7  Si    c     0.380337    0.704936    0.302576    0.000000
     8  Si    c     0.320125    0.621631    0.968140    0.000000
     9  Si    c     0.304241    0.679918    0.634974    0.000000
    10  Si    c     0.645363    0.310110    0.798732    0.000000
    11  Si    c     0.682775    0.383054    0.466990    0.000000
    12  Si    c     0.700290    0.317635    0.134137    0.000000
    13  Si    c     0.531204    0.412807    0.965290    0.000000
    14  Si    c     0.584073    0.115239    0.301540    0.000000
    15  Si    c     0.895697    0.473581    0.632890    0.000000
    16  Si    c     0.476420    0.587219    0.469380    0.000000
    17  Si    c     0.432877    0.901695    0.802304    0.000000
    18  Si    c     0.109789    0.522944    0.136216    0.000000
    19  Si    c     0.419129    0.533248    0.367486    0.000000
    20  Si    c     0.112578    0.578963    0.034653    0.000000
    21  Si    c     0.477739    0.891896    0.700938    0.000000
    22  Si    c     0.584320    0.462413    0.862247    0.000000
    23  Si    c     0.896178    0.420839    0.531217    0.000000
    24  Si    c     0.527788    0.110490    0.199607    0.000000
    25  Ge    c     0.312608    0.414325    0.859260    0.000000
    26  Si    c     0.596965    0.900585    0.187296    0.000000
    27  Si    c     0.103790    0.700885    0.518154    0.000000
    28  Si    c     0.698047    0.604055    0.352794    0.000000
    29  Si    c     0.407738    0.102538    0.685808    0.000000
    30  Si    c     0.900675    0.300876    0.018319    0.000000
    31  Si    c     0.406064    0.307216    0.482302    0.000000
    32  Si    c     0.902697    0.596216    0.150980    0.000000
    33  Si    c     0.715515    0.106989    0.815084    0.000000
    34  Si    c     0.603353    0.698882    0.979864    0.000000
    35  Si    c     0.103848    0.401548    0.648384    0.000000
    36  Si    c     0.304524    0.906970    0.316125    0.000000
    37  Si    c     0.246288    0.333535    0.955047    0.000000
    38  Si    c     0.660868    0.913370    0.287749    0.000000
    39  Si    c     0.095810    0.752006    0.618825    0.000000
    40  Si    c     0.754112    0.663683    0.453490    0.000000
    41  Si    c     0.361105    0.106262    0.786913    0.000000
    42  Si    c     0.908438    0.244221    0.118463    0.000000
    43  Si    c     0.342437    0.255173    0.381601    0.000000
    44  Si    c     0.910618    0.653568    0.050453    0.000000
    45  Si    c     0.758504    0.092032    0.714456    0.000000
    46  Si    c     0.652266    0.743637    0.877705    0.000000
    47  Si    c     0.097164    0.343795    0.547458    0.000000
    48  Si    c     0.250235    0.909356    0.215261    0.000000
    49  Ge    c     0.971198    0.116044    0.972741    0.000000
    50  Si    c     0.878247    0.849990    0.302356    0.000000
    51  Si    c     0.158695    0.032200    0.633070    0.000000
    52  Si    c     0.035553    0.880793    0.467704    0.000000
    53  Ge    c     0.136446    0.163388    0.801220    0.000000
    54  Si    c     0.842359    0.962692    0.137174    0.000000
    55  Si    c     0.125065    0.974306    0.366958    0.000000
    56  Si    c     0.847455    0.869032    0.037065    0.000000
    57  Si    c     0.035768    0.152233    0.697451    0.000000
    58  Ge    c     0.884547    0.021982    0.865853    0.000000
    59  Si    c     0.160330    0.126547    0.532293    0.000000
    60  Si    c     0.969087    0.845201    0.201691    0.000000
    61  O3    c     0.936485    0.998757    0.012259    0.000000
    62  O2    c     0.001425    0.931180    0.334721    0.000000
    63  O2    c     0.075223    0.074966    0.662429    0.000000
    64  O2    c     0.079372    0.005060    0.499265    0.000000
    65  O1    c     0.009270    0.053241    0.832821    0.000000
    66  O2    c     0.924927    0.926469    0.170922    0.000000
    67  O2    c     0.342360    0.583270    0.335400    0.000000
    68  O2    c     0.426254    0.765108    0.668660    0.000000
    69  O2    c     0.238674    0.657470    0.003021    0.000000
    70  O2    c     0.679679    0.431470    0.832479    0.000000
    71  O2    c     0.577995    0.234064    0.166542    0.000000
    72  O2    c     0.769613    0.344423    0.498546    0.000000
    73  O2    c     0.579082    0.340033    0.999726    0.000000
    74  O2    c     0.769900    0.422251    0.664530    0.000000
    75  O2    c     0.660418    0.242664    0.333426    0.000000
    76  O2    c     0.428347    0.663198    0.502207    0.000000
    77  O2    c     0.235206    0.573574    0.169423    0.000000
    78  O2    c     0.347244    0.784577    0.836592    0.000000
    79  O3    c     0.133460    0.219632    0.982852    0.000000
    80  O2    c     0.788862    0.914892    0.307207    0.000000
    81  O2    c     0.095801    0.878346    0.638643    0.000000
    82  O2    c     0.881737    0.790173    0.473370    0.000000
    83  O3    c     0.243569    0.107750    0.809645    0.000000
    84  O2    c     0.908334    0.117785    0.137935    0.000000
    85  O2    c     0.214474    0.128352    0.361923    0.000000
    86  O2    c     0.909423    0.778033    0.030308    0.000000
    87  O2    c     0.880892    0.089476    0.692831    0.000000
    88  O3    c     0.771561    0.861345    0.855240    0.000000
    89  O2    c     0.096941    0.217256    0.527584    0.000000
    90  O2    c     0.122673    0.908285    0.195442    0.000000
    91  O2    c     0.931068    0.858098    0.252301    0.000000
    92  O2    c     0.150825    0.071257    0.581958    0.000000
    93  O1    c     0.930942    0.040381    0.921814    0.000000
    94  O3    c     0.079072    0.133857    0.745897    0.000000
    95  O2    c     0.843757    0.903381    0.089077    0.000000
    96  O2    c     0.073533    0.931819    0.417123    0.000000
    97  O3    c     0.894532    0.204336    0.979247    0.000000
    98  O2    c     0.794633    0.699604    0.314514    0.000000
    99  O2    c     0.309212    0.101830    0.647424    0.000000
   100  O2    c     0.105155    0.799118    0.479959    0.000000
   101  O1    c     0.201181    0.316865    0.816165    0.000000
   102  O2    c     0.692509    0.897983    0.149437    0.000000
   103  O2    c     0.207950    0.906699    0.354271    0.000000
   104  O2    c     0.699735    0.794617    0.018615    0.000000
   105  O2    c     0.104115    0.304735    0.686550    0.000000
   106  O3    c     0.811777    0.111916    0.854396    0.000000
   107  O2    c     0.311277    0.209459    0.520411    0.000000
   108  O2    c     0.900558    0.693427    0.189106    0.000000
   109  O2    c     0.322294    0.645494    0.252208    0.000000
   110  O2    c     0.362104    0.681202    0.584908    0.000000
   111  O2    c     0.319364    0.678927    0.918316    0.000000
   112  O2    c     0.696803    0.365070    0.748156    0.000000
   113  O2    c     0.641915    0.317991    0.083737    0.000000
   114  O2    c     0.680725    0.326458    0.416385    0.000000
   115  O2    c     0.376633    0.330501    0.969031    0.000000
   116  O2    c     0.671751    0.046940    0.305258    0.000000
   117  O2    c     0.963597    0.629569    0.636482    0.000000
   118  O2    c     0.632860    0.674223    0.472142    0.000000
   119  O2    c     0.349922    0.973026    0.803600    0.000000
   120  O2    c     0.040745    0.366729    0.137935    0.000000
   121  O2    c     0.331420    0.377136    0.363683    0.000000
   122  O2    c     0.042509    0.664848    0.031708    0.000000
   123  O2    c     0.633336    0.959915    0.696718    0.000000
   124  O2    c     0.660349    0.618574    0.863149    0.000000
   125  O2    c     0.964819    0.333520    0.528242    0.000000
   126  O2    c     0.371328    0.040840    0.196282    0.000000
   127  O2    c     0.767253    0.301874    0.011150    0.000000
   128  O2    c     0.696173    0.469693    0.344267    0.000000
   129  O2    c     0.544207    0.231909    0.676849    0.000000
   130  O2    c     0.237411    0.700154    0.511403    0.000000
   131  O3    c     0.287538    0.544421    0.843253    0.000000
   132  O2    c     0.462699    0.766763    0.179302    0.000000
   133  O2    c     0.305971    0.774248    0.324076    0.000000
   134  O2    c     0.467509    0.693354    0.987309    0.000000
   135  O2    c     0.236918    0.536641    0.656617    0.000000
   136  O2    c     0.722035    0.244309    0.821130    0.000000
   137  O2    c     0.540691    0.308203    0.489403    0.000000
   138  O2    c     0.769631    0.460964    0.156920    0.000000
   139  O2    c     0.781224    0.531211    0.030524    0.000000
   140  O2    c     0.465918    0.253031    0.361358    0.000000
   141  O2    c     0.762215    0.219137    0.694552    0.000000
   142  O2    c     0.223447    0.468946    0.528584    0.000000
   143  O2    c     0.521456    0.737107    0.861140    0.000000
   144  O2    c     0.246846    0.781386    0.196126    0.000000
   145  O2    c     0.536372    0.788475    0.307586    0.000000
   146  O2    c     0.254147    0.467634    0.970953    0.000000
   147  O2    c     0.221846    0.753175    0.639090    0.000000
   148  O2    c     0.491362    0.230320    0.804987    0.000000
   149  O2    c     0.755994    0.538780    0.472469    0.000000
   150  O2    c     0.782190    0.243506    0.137437    0.000000
   151  O3    c     0.209866    0.303367    0.902455    0.000000
   152  O2    c     0.674616    0.907808    0.233482    0.000000
   153  O2    c     0.097847    0.770439    0.564485    0.000000
   154  O2    c     0.770541    0.679735    0.399147    0.000000
   155  O2    c     0.340678    0.108293    0.732311    0.000000
   156  O2    c     0.907590    0.227262    0.063866    0.000000
   157  O2    c     0.328682    0.236920    0.435873    0.000000
   158  O2    c     0.910290    0.671515    0.104731    0.000000
   159  O2    c     0.783870    0.095467    0.769022    0.000000
   160  O2    c     0.667535    0.765457    0.932577    0.000000
   161  O2    c     0.099376    0.327444    0.601747    0.000000
   162  O2    c     0.233435    0.910102    0.269516    0.000000
   163  O2    c     0.586395    0.558178    0.984141    0.000000
   164  O2    c     0.444238    0.032293    0.324726    0.000000
   165  O2    c     0.979515    0.416953    0.656412    0.000000
   166  O2    c     0.421064    0.446463    0.491839    0.000000
   167  O2    c     0.576031    0.982460    0.825134    0.000000
   168  O2    c     0.026140    0.579147    0.159805    0.000000
   169  O2    c     0.558855    0.590757    0.344014    0.000000
   170  O2    c     0.028603    0.439000    0.010327    0.000000
   171  O2    c     0.417389    0.974215    0.678905    0.000000
   172  O3    c     0.446205    0.402609    0.838612    0.000000
   173  O2    c     0.979209    0.561318    0.508210    0.000000
   174  O2    c     0.584163    0.025683    0.177168    0.000000
   175  O2    c     0.582196    0.165759    0.250444    0.000000
   176  O2    c     0.842903    0.420810    0.581727    0.000000
   177  O2    c     0.578730    0.409606    0.914313    0.000000
   178  O2    c     0.430195    0.841585    0.752261    0.000000
   179  O2    c     0.164219    0.577587    0.085828    0.000000
   180  O2    c     0.421149    0.586374    0.418540    0.000000
   181  F     c     0.452046    0.904818    0.250803    0.000000
   182  F     c     0.103401    0.551486    0.582747    0.000000
   183  F     c     0.419978    0.516429    0.906243    0.000000
   184  F     c     0.568297    0.104746    0.750903    0.000000
   185  F     c     0.903190    0.446631    0.083459    0.000000
   186  F     c     0.551519    0.455821    0.416942    0.000000
   187  O3    s     0.929486    0.994243    0.011657    0.000000
   188  O2    s     0.001421    0.926896    0.334689    0.000000
   189  O2    s     0.080407    0.078492    0.662883    0.000000
   190  O2    s     0.083482    0.004661    0.499406    0.000000
   191  O1    s     0.008086    0.058904    0.833292    0.000000
   192  O2    s     0.920693    0.921469    0.170598    0.000000
   193  O2    s     0.354119    0.590702    0.335284    0.000000
   194  O2    s     0.418957    0.769342    0.668494    0.000000
   195  O2    s     0.234370    0.645905    0.002616    0.000000
   196  O2    s     0.666803    0.422439    0.832067    0.000000
   197  O2    s     0.585419    0.230027    0.166577    0.000000
   198  O2    s     0.773620    0.356241    0.498627    0.000000
   199  O2    s     0.586553    0.351323    0.999672    0.000000
   200  O2    s     0.774614    0.415182    0.664735    0.000000
   201  O2    s     0.648586    0.238082    0.333491    0.000000
   202  O2    s     0.420758    0.651471    0.502086    0.000000
   203  O2    s     0.230995    0.581152    0.169300    0.000000
   204  O2    s     0.358100    0.785546    0.836218    0.000000
   205  O3    s     0.131700    0.222676    0.979298    0.000000
   206  O2    s     0.785068    0.907909    0.304716    0.000000
   207  O2    s     0.102416    0.881452    0.636035    0.000000
   208  O2    s     0.884794    0.786673    0.470745    0.000000
   209  O3    s     0.247754    0.112025    0.806564    0.000000
   210  O2    s     0.901400    0.114490    0.135868    0.000000
   211  O2    s     0.218158    0.125086    0.364449    0.000000
   212  O2    s     0.902933    0.774605    0.033116    0.000000
   213  O2    s     0.884265    0.096253    0.695528    0.000000
   214  O3    s     0.767648    0.861370    0.858453    0.000000
   215  O2    s     0.103673    0.220692    0.530102    0.000000
   216  O2    s     0.119546    0.901723    0.198104    0.000000
   217  O2    s     0.929418    0.855718    0.252197    0.000000
   218  O2    s     0.152803    0.073179    0.582051    0.000000
   219  O1    s     0.930701    0.045339    0.921705    0.000000
   220  O3    s     0.078982    0.138395    0.745049    0.000000
   221  O2    s     0.844028    0.906343    0.088707    0.000000
   222  O2    s     0.075117    0.930901    0.417118    0.000000
   223  O3    s     0.901215    0.206619    0.982489    0.000000
   224  O2    s     0.793689    0.705944    0.317134    0.000000
   225  O2    s     0.303403    0.094519    0.649855    0.000000
   226  O2    s     0.097638    0.797805    0.482536    0.000000
   227  O1    s     0.202478    0.309359    0.817570    0.000000
   228  O2    s     0.698784    0.905287    0.152059    0.000000
   229  O2    s     0.209118    0.913935    0.351674    0.000000
   230  O2    s     0.704766    0.792088    0.016347    0.000000
   231  O2    s     0.097094    0.299101    0.683737    0.000000
   232  O3    s     0.808376    0.104305    0.851544    0.000000
   233  O2    s     0.305024    0.210743    0.517742    0.000000
   234  O2    s     0.907932    0.699351    0.186528    0.000000
   235  O2    s     0.328004    0.657040    0.252146    0.000000
   236  O2    s     0.350429    0.675333    0.584813    0.000000
   237  O2    s     0.323934    0.673366    0.918493    0.000000
   238  O2    s     0.690839    0.353128    0.748304    0.000000
   239  O2    s     0.653617    0.323798    0.083746    0.000000
   240  O2    s     0.674899    0.332294    0.416411    0.000000
   241  O2    s     0.380051    0.339684    0.967179    0.000000
   242  O2    s     0.661671    0.040030    0.303049    0.000000
   243  O2    s     0.970388    0.626338    0.634270    0.000000
   244  O2    s     0.629487    0.664238    0.469910    0.000000
   245  O2    s     0.360259    0.979392    0.801648    0.000000
   246  O2    s     0.034172    0.370075    0.135741    0.000000
   247  O2    s     0.341520    0.380423    0.365937    0.000000
   248  O2    s     0.035963    0.654819    0.033977    0.000000
[...]
     58 Ge    c      -0.000519      0.000092     -0.003146      0.000000
     59 Si    c      -0.000381     -0.000657      0.000150      0.000000
     60 Si    c      -0.000226      0.000237     -0.000299      0.000000
     61 O3    c       0.000231      0.000157     -0.002295      0.000000
     62 O2    c      -0.000555      0.000098     -0.005266      0.000000
     63 O2    c      -0.000282      0.000033      0.001768      0.000000
     64 O2    c      -0.000103      0.000259      0.004194      0.000000
     65 O1    c       0.000759     -0.000569     -0.010236      0.000000
     66 O2    c       0.000043      0.000211     -0.000956      0.000000
     67 O2    c      -0.000385     -0.000002      0.000576      0.000000
     68 O2    c       0.000275     -0.000414     -0.003056      0.000000
     69 O2    c      -0.000123      0.000545      0.000519      0.000000
     70 O2    c       0.000387      0.000064      0.000354      0.000000
     71 O2    c      -0.000418      0.000378     -0.000407      0.000000
     72 O2    c       0.000069     -0.000388     -0.002397      0.000000
     73 O2    c       0.000130     -0.000363      0.001142      0.000000
     74 O2    c      -0.000361      0.000478     -0.001392      0.000000
     75 O2    c       0.000423     -0.000205     -0.001409      0.000000
     76 O2    c      -0.000006      0.000406     -0.001822      0.000000
     77 O2    c       0.000384     -0.000272      0.001132      0.000000
     78 O2    c      -0.000593      0.000340     -0.000822      0.000000
     79 O3    c       0.000226     -0.000030      0.001233      0.000000
     80 O2    c       0.000050      0.000143      0.001013      0.000000
     81 O2    c      -0.000270     -0.000171     -0.000705      0.000000
     82 O2    c      -0.000434     -0.000023      0.000511      0.000000
     83 O3    c      -0.000222      0.000007     -0.002145      0.000000
     84 O2    c       0.000259      0.000108      0.000262      0.000000
     85 O2    c       0.000061      0.000446      0.001523      0.000000
     86 O2    c       0.000159      0.000087     -0.000773      0.000000
     87 O2    c      -0.000064     -0.000225     -0.000783      0.000000
     88 O3    c       0.000037     -0.000243     -0.000389      0.000000
     89 O2    c      -0.000186     -0.000016      0.001146      0.000000
     90 O2    c       0.000151      0.000239     -0.000132      0.000000
     91 O2    c       0.000227     -0.000018     -0.002631      0.000000
     92 O2    c      -0.000120      0.000006     -0.000323      0.000000
     93 O1    c       0.000152      0.000144      0.013487      0.000000
     94 O3    c       0.000303     -0.000294      0.002578      0.000000
     95 O2    c       0.000099     -0.000143     -0.000988      0.000000
     96 O2    c       0.000154      0.000058     -0.002860      0.000000
     97 O3    c       0.000075     -0.000241     -0.002445      0.000000
     98 O2    c      -0.000006     -0.000611      0.002108      0.000000
     99 O2    c       0.000200      0.000140      0.003098      0.000000
    100 O2    c       0.000219     -0.000111     -0.000281      0.000000
    101 O1    c      -0.000605      0.000282     -0.006235      0.000000
    102 O2    c      -0.000072     -0.000228     -0.001609      0.000000
    103 O2    c      -0.000031     -0.000148      0.002748      0.000000
    104 O2    c      -0.000351      0.000122     -0.001274      0.000000
    105 O2    c       0.000315     -0.000023      0.001431      0.000000
    106 O3    c      -0.000283      0.000325     -0.001548      0.000000
    107 O2    c       0.000482     -0.000080      0.000543      0.000000
    108 O2    c      -0.000207     -0.000117     -0.000412      0.000000
    109 O2    c       0.000125     -0.000340      0.003852      0.000000
    110 O2    c       0.000225      0.000036     -0.000546      0.000000
    111 O2    c      -0.000239      0.000262      0.000139      0.000000
    112 O2    c      -0.000034      0.000321     -0.000415      0.000000
    113 O2    c      -0.000277     -0.000041      0.002268      0.000000
    114 O2    c       0.000248     -0.000192      0.001403      0.000000
    115 O2    c      -0.000092     -0.000314      0.000093      0.000000
    116 O2    c       0.000178      0.000169      0.000012      0.000000
    117 O2    c      -0.000356      0.000252     -0.000274      0.000000
    118 O2    c      -0.000028      0.000363     -0.001076      0.000000
    119 O2    c      -0.000302     -0.000198     -0.001028      0.000000
    120 O2    c       0.000107     -0.000461     -0.000661      0.000000
    121 O2    c      -0.000328     -0.000072      0.000428      0.000000
    122 O2    c       0.000156      0.000287      0.000505      0.000000
    123 O2    c       0.000437     -0.000123     -0.000039      0.000000
    124 O2    c       0.000394      0.000091      0.001035      0.000000
    125 O2    c      -0.000103     -0.000196     -0.000613      0.000000
    126 O2    c      -0.000265      0.000318     -0.000341      0.000000
    127 O2    c      -0.000079     -0.000197     -0.000612      0.000000
    128 O2    c       0.000195     -0.000147      0.000373      0.000000
    129 O2    c       0.000149      0.000408      0.000248      0.000000
    130 O2    c       0.000129      0.000168     -0.001266      0.000000
    131 O3    c       0.000084      0.000123      0.000561      0.000000
    132 O2    c       0.000121     -0.000235     -0.000771      0.000000
    133 O2    c      -0.000119     -0.000200      0.000652      0.000000
    134 O2    c      -0.000279      0.000187     -0.000291      0.000000
    135 O2    c       0.000255     -0.000128     -0.000231      0.000000
    136 O2    c       0.000139      0.000105     -0.000458      0.000000
    137 O2    c       0.000162     -0.000229     -0.001497      0.000000
    138 O2    c      -0.000448     -0.000170     -0.000609      0.000000
    139 O2    c      -0.000027      0.000504     -0.000296      0.000000
    140 O2    c      -0.000119     -0.000168      0.000237      0.000000
    141 O2    c       0.000218      0.000011     -0.000025      0.000000
    142 O2    c       0.000133     -0.000213      0.000463      0.000000
    143 O2    c       0.000119      0.000189      0.001045      0.000000
    144 O2    c      -0.000166      0.000004     -0.000571      0.000000
    145 O2    c       0.000198     -0.000134      0.000050      0.000000
    146 O2    c      -0.000170     -0.000164     -0.000463      0.000000
    147 O2    c       0.000000      0.000148     -0.001227      0.000000
    148 O2    c      -0.000425     -0.000004     -0.000683      0.000000
    149 O2    c       0.000188      0.000078     -0.000789      0.000000
    150 O2    c      -0.000070     -0.000215     -0.000702      0.000000
    151 O3    c      -0.000266     -0.000108      0.003249      0.000000
    152 O2    c       0.000339     -0.000156     -0.001451      0.000000
    153 O2    c      -0.000220      0.000322      0.000024      0.000000
    154 O2    c       0.000097      0.000074     -0.001067      0.000000
    155 O2    c      -0.000421      0.000219      0.003467      0.000000
    156 O2    c       0.000171     -0.000302      0.001485      0.000000
    157 O2    c      -0.000098     -0.000121     -0.001810      0.000000
    158 O2    c      -0.000142      0.000326     -0.000655      0.000000
    159 O2    c       0.000316     -0.000185     -0.002012      0.000000
    160 O2    c       0.000041      0.000097     -0.001964      0.000000
    161 O2    c       0.000101     -0.000240      0.001078      0.000000
    162 O2    c      -0.000335      0.000218     -0.000504      0.000000
    163 O2    c       0.000101     -0.000286     -0.000148      0.000000
    164 O2    c       0.000032      0.000132     -0.000360      0.000000
    165 O2    c      -0.000168     -0.000076     -0.002191      0.000000
    166 O2    c      -0.000130      0.000219     -0.001286      0.000000
    167 O2    c      -0.000329     -0.000264     -0.000561      0.000000
    168 O2    c       0.000040      0.000122      0.000290      0.000000
    169 O2    c      -0.000111      0.000072     -0.000209      0.000000
    170 O2    c       0.000315      0.000334      0.000389      0.000000
    171 O2    c      -0.000130     -0.000068     -0.000159      0.000000
    172 O3    c       0.000226      0.000115      0.000447      0.000000
    173 O2    c      -0.000098      0.000005     -0.000004      0.000000
    174 O2    c       0.000122      0.000120     -0.000814      0.000000
    175 O2    c       0.000029      0.000286      0.000771      0.000000
    176 O2    c      -0.000275      0.000055      0.002499      0.000000
    177 O2    c       0.000229     -0.000208      0.000943      0.000000
    178 O2    c      -0.000012     -0.000269     -0.001536      0.000000
    179 O2    c       0.000256     -0.000017      0.001335      0.000000
    180 O2    c      -0.000191      0.000265      0.002827      0.000000
    181 F     c      -0.000001      0.000041      0.000106      0.000000
    182 F     c      -0.000038     -0.000009      0.000154      0.000000
    183 F     c      -0.000022     -0.000008      0.000410      0.000000
    184 F     c      -0.000081      0.000007     -0.000035      0.000000
    185 F     c       0.000027     -0.000001      0.000057      0.000000
    186 F     c      -0.000028      0.000005      0.000102      0.000000
    187 O3    s       0.000024      0.000313      0.002993      0.000000
    188 O2    s      -0.000010      0.000029      0.005433      0.000000
    189 O2    s      -0.000123      0.000169     -0.002133      0.000000
    190 O2    s      -0.000078      0.000218     -0.005171      0.000000
    191 O1    s      -0.000082      0.000216      0.011858      0.000000
    192 O2    s      -0.000095      0.000078      0.000888      0.000000
    193 O2    s      -0.000226     -0.000246     -0.000485      0.000000
    194 O2    s       0.000127     -0.000351      0.003453      0.000000
    195 O2    s       0.000104      0.000293     -0.000441      0.000000
    196 O2    s       0.000343     -0.000007     -0.000563      0.000000
    197 O2    s      -0.000313      0.000344      0.000922      0.000000
    198 O2    s      -0.000208     -0.000243      0.003262      0.000000
    199 O2    s       0.000044     -0.000376     -0.000953      0.000000
    200 O2    s      -0.000347      0.000343      0.001652      0.000000
    201 O2    s       0.000384     -0.000025      0.001526      0.000000
    202 O2    s       0.000287      0.000226      0.002482      0.000000
    203 O2    s       0.000316     -0.000288     -0.000830      0.000000
    204 O2    s      -0.000262     -0.000038      0.000960      0.000000
    205 O3    s       0.000130     -0.000210     -0.001548      0.000000
    206 O2    s      -0.000138      0.000364     -0.001665      0.000000
    207 O2    s      -0.000070     -0.000031      0.000931      0.000000
    208 O2    s      -0.000217      0.000427     -0.000921      0.000000
    209 O3    s       0.000177     -0.000266      0.003443      0.000000
    210 O2    s       0.000368     -0.000038     -0.000328      0.000000
    211 O2    s      -0.000495      0.000279     -0.002311      0.000000
    212 O2    s       0.000143     -0.000065      0.001106      0.000000
    213 O2    s       0.000081     -0.000254      0.001013      0.000000
    214 O3    s       0.000370      0.000279      0.000389      0.000000
    215 O2    s      -0.000343      0.000107     -0.001722      0.000000
    216 O2    s       0.000115      0.000132      0.000255      0.000000
    217 O2    s      -0.000097      0.000126      0.001685      0.000000
    218 O2    s       0.000086     -0.000080      0.000810      0.000000
    219 O1    s       0.000566     -0.000229     -0.012053      0.000000
    220 O3    s      -0.000037      0.000036     -0.002307      0.000000
    221 O2    s       0.000149     -0.000155      0.000501      0.000000
    222 O2    s      -0.000605      0.000456      0.002338      0.000000
    223 O3    s      -0.000689      0.000465      0.002210      0.000000
    224 O2    s       0.000434     -0.000300     -0.003091      0.000000
    225 O2    s       0.000330      0.000161     -0.004439      0.000000
    226 O2    s       0.000238      0.000083     -0.000464      0.000000
    227 O1    s      -0.000030      0.000390      0.006639      0.000000
    228 O2    s       0.000021     -0.000269      0.001664      0.000000
    229 O2    s      -0.000076     -0.000286     -0.003144      0.000000
    230 O2    s      -0.000432      0.000227      0.001807      0.000000
    231 O2    s       0.000076      0.000288     -0.000982      0.000000
    232 O3    s      -0.000014      0.000308      0.002579      0.000000
    233 O2    s       0.000308     -0.000396     -0.000608      0.000000
    234 O2    s      -0.000190     -0.000206      0.001134      0.000000
    235 O2    s       0.000083     -0.000148     -0.003396      0.000000
    236 O2    s       0.000260     -0.000130      0.000188      0.000000
    237 O2    s      -0.000327      0.000368     -0.000171      0.000000
    238 O2    s      -0.000005      0.000269      0.000261      0.000000
    239 O2    s      -0.000080     -0.000026     -0.002159      0.000000
    240 O2    s       0.000330     -0.000393     -0.001578      0.000000
    241 O2    s       0.000128     -0.000430     -0.000016      0.000000
    242 O2    s       0.000373     -0.000082     -0.000643      0.000000
    243 O2    s      -0.000402      0.000356      0.000362      0.000000
    244 O2    s       0.000058      0.000303      0.001242      0.000000
    245 O2    s      -0.000221     -0.000154      0.001734      0.000000
    246 O2    s       0.000563     -0.000216      0.000708      0.000000
    247 O2    s      -0.000388      0.000169     -0.000428      0.000000
    248 O2    s       0.000062      0.000213     -0.000657      0.000000
    249 O2    s       0.000145     -0.000572      0.000231      0.000000
    250 O2    s       0.000246     -0.000191     -0.001497      0.000000
    251 O2    s      -0.000110     -0.000301      0.001135      0.000000
    252 O2    s      -0.000210      0.000407      0.000951      0.000000
    253 O2    s      -0.000036     -0.000263      0.000600      0.000000
    254 O2    s       0.000587     -0.000296     -0.000700      0.000000
    255 O2    s      -0.000331      0.000292     -0.000638      0.000000
    256 O2    s       0.000167      0.000173      0.001737      0.000000
    257 O3    s      -0.000599     -0.000111     -0.000400      0.000000
    258 O2    s       0.000326     -0.000467      0.001286      0.000000
    259 O2    s      -0.000330     -0.000022     -0.001001      0.000000
    260 O2    s      -0.000230      0.000642      0.000786      0.000000
    261 O2    s       0.000396     -0.000276      0.000751      0.000000
    262 O2    s       0.000147      0.000186      0.000696      0.000000
    263 O2    s       0.000100     -0.000508      0.002446      0.000000
    264 O2    s      -0.000241      0.000407      0.001051      0.000000
    265 O2    s      -0.000404      0.000091      0.000658      0.000000
    266 O2    s       0.000235     -0.000385     -0.000327      0.000000
    267 O2    s       0.000185      0.000134     -0.000076      0.000000
    268 O2    s       0.000390     -0.000268     -0.000468      0.000000
    269 O2    s      -0.000162      0.000239     -0.001586      0.000000
    270 O2    s      -0.000092     -0.000113      0.001271      0.000000
    271 O2    s       0.000273     -0.000350     -0.000584      0.000000
    272 O2    s      -0.000322      0.000126      0.000960      0.000000
    273 O2    s      -0.000109      0.000321      0.001565      0.000000
    274 O2    s      -0.000113      0.000478      0.001153      0.000000
    275 O2    s       0.000225      0.000000      0.000983      0.000000
    276 O2    s       0.000075     -0.000191      0.001053      0.000000
    277 O3    s      -0.000340     -0.000516     -0.002881      0.000000
    278 O2    s       0.000243     -0.000152      0.001012      0.000000
    279 O2    s      -0.000095      0.000247     -0.000237      0.000000
    280 O2    s       0.000210      0.000254      0.000987      0.000000
    281 O2    s      -0.000257      0.000197     -0.003038      0.000000
    282 O2    s       0.000164     -0.000306     -0.001703      0.000000
    283 O2    s      -0.000302     -0.000241      0.001924      0.000000
    284 O2    s      -0.000207      0.000342      0.000726      0.000000
    285 O2    s       0.000289     -0.000192      0.001874      0.000000
    286 O2    s       0.000210      0.000364      0.001602      0.000000
    287 O2    s       0.000190     -0.000318     -0.000613      0.000000
    288 O2    s      -0.000254      0.000093      0.000725      0.000000
    289 O2    s       0.000467     -0.000123      0.000707      0.000000
    290 O2    s      -0.000363      0.000346      0.000474      0.000000
    291 O2    s      -0.000191      0.000011      0.003312      0.000000
    292 O2    s      -0.000357     -0.000074      0.002206      0.000000
    293 O2    s       0.000315     -0.000344      0.000982      0.000000
    294 O2    s       0.000165      0.000068      0.000015      0.000000
    295 O2    s      -0.000167      0.000430      0.000086      0.000000
    296 O2    s       0.000221     -0.000357     -0.000539      0.000000
    297 O2    s      -0.000050     -0.000250     -0.000116      0.000000
    298 O3    s      -0.000179     -0.000506     -0.000345      0.000000
    299 O2    s      -0.000455      0.000221     -0.000064      0.000000
    300 O2    s       0.000122      0.000127      0.001301      0.000000
    301 O2    s      -0.000027      0.000107     -0.000874      0.000000
    302 O2    s      -0.000322      0.000041     -0.002717      0.000000
    303 O2    s       0.000259     -0.000378     -0.000854      0.000000
    304 O2    s       0.000172     -0.000485      0.000991      0.000000
    305 O2    s       0.000289     -0.000046     -0.000858      0.000000
    306 O2    s      -0.000213      0.000211     -0.002641      0.000000
    307 F     s       0.000033     -0.000021     -0.000237      0.000000
    308 F     s      -0.000028      0.000013     -0.000337      0.000000
    309 F     s       0.000260      0.000174     -0.000415      0.000000
    310 F     s       0.000027     -0.000060     -0.000035      0.000000
    311 F     s      -0.000014      0.000035     -0.000149      0.000000
    312 F     s      -0.000008      0.000033     -0.000237      0.000000
--------------------------------------------------------------------------------
  Maximum abs         0.000798      0.000817      0.013487      0.000000
--------------------------------------------------------------------------------


  Time to end of optimisation =     641.2300 seconds


  Peak dynamic memory used =      19.13 MB 


  Timing analysis for GULP :

--------------------------------------------------------------------------------
  Task / Subroutine                                          Time (Seconds)
--------------------------------------------------------------------------------
  Calculation of reciprocal space energy and derivatives         11.4290
  Calculation of real space energy and derivatives              337.3491
  Calculation of three-body energy and derivatives               38.1558
  Global summation overhead                                       0.0003
--------------------------------------------------------------------------------
  Total CPU time                                                641.2300
--------------------------------------------------------------------------------


  Dump file written as out.res                                                 
  CIF file written as out.cif                                                 


  Job Finished at 15:49.00  7th December   2016                               

