********************************************************************************
*                       GENERAL UTILITY LATTICE PROGRAM                        *
*                                 Julian Gale                                  *
*                      Nanochemistry Research Institute                        *
*                           Department of Chemistry                            *
*                    Curtin University, Western Australia                      *
********************************************************************************
* Version = 4.2.0 * Last modified =  20th January 2014                         *
********************************************************************************
*  optimise     - perform optimisation run                                     *
*  conp         - constant pressure calculation                                *
*  qok          - running with non charge neutral cell is OK                   *
*  rfo          - optimisation step to be determined by RFO method             *
********************************************************************************

  Job Started  at 16:34.08  8th December   2016                               

  Number of CPUs =     1


  Total number of configurations input =   1

********************************************************************************
*  Input for Configuration =   1                                               *
********************************************************************************

  Formula = Ge4Si56O120F6                                               

  Number of irreducible atoms/shells =     312


  Total number atoms/shells =     312

  Dimensionality = 3               :  Bulk   


  Charge on solid   =  -6.000000 =>neutralising background added


  Cartesian lattice vectors (Angstroms) :

       11.968043    0.000000    0.000000
       -5.986045   10.390523    0.000000
       -0.236612    0.148593   29.501975

  Cell parameters (Angstroms/Degrees):

  a =      11.9680    alpha =  89.5206
  b =      11.9915    beta  =  90.4595
  c =      29.5033    gamma = 119.9465

  Initial cell volume =        3668.695097 Angs**3

  Temperature of configuration =  0.000     K 

  Pressure of configuration =         0.000 GPa 

  Fractional coordinates of asymmetric unit :

--------------------------------------------------------------------------------
   No.  Atomic       x           y          z         Charge      Occupancy
        Label      (Frac)      (Frac)     (Frac)        (e)         (Frac)  
--------------------------------------------------------------------------------
      1 Ge    c    0.699600    0.375700    0.033890     4.00000    1.000000    
      2 Si    c    0.620826 *  0.323526 *  0.367913 *   4.00000    1.000000    
      3 Si    c    0.677100 *  0.292769 *  0.696611 *   4.00000    1.000000    
      4 Si    c    0.297965 *  0.620586 *  0.532847 *   4.00000    1.000000    
      5 Si    c    0.383003 *  0.672668 *  0.865232 *   4.00000    1.000000    
      6 Si    c    0.324978 *  0.708647 *  0.201323 *   4.00000    1.000000    
      7 Si    c    0.378441 *  0.702904 *  0.301604 *   4.00000    1.000000    
      8 Si    c    0.326923 *  0.616706 *  0.967130 *   4.00000    1.000000    
      9 Si    c    0.297220 *  0.673616 *  0.633269 *   4.00000    1.000000    
     10 Si    c    0.624568 *  0.294420 *  0.797009 *   4.00000    1.000000    
     11 Si    c    0.675364 *  0.379262 *  0.468144 *   4.00000    1.000000    
     12 Si    c    0.690892 *  0.322956 *  0.135454 *   4.00000    1.000000    
     13 Ge    c    0.531524 *  0.425846 *  0.963765 *   4.00000    1.000000    
     14 Si    c    0.582594 *  0.111938 *  0.304506 *   4.00000    1.000000    
     15 Si    c    0.888490 *  0.468445 *  0.633211 *   4.00000    1.000000    
     16 Si    c    0.469221 *  0.582232 *  0.468057 *   4.00000    1.000000    
     17 Si    c    0.421188 *  0.884452 *  0.799399 *   4.00000    1.000000    
     18 Si    c    0.117560 *  0.535151 *  0.134387 *   4.00000    1.000000    
     19 Si    c    0.416805 *  0.529697 *  0.366459 *   4.00000    1.000000    
     20 Si    c    0.114797 *  0.585215 *  0.030441 *   4.00000    1.000000    
     21 Si    c    0.470308 *  0.882787 *  0.698001 *   4.00000    1.000000    
     22 Si    c    0.595209 *  0.464018 *  0.864293 *   4.00000    1.000000    
     23 Si    c    0.888145 *  0.417485 *  0.531911 *   4.00000    1.000000    
     24 Si    c    0.529550 *  0.115877 *  0.202999 *   4.00000    1.000000    
     25 Si    c    0.308084 *  0.392387 *  0.850516 *   4.00000    1.000000    
     26 Si    c    0.603387 *  0.909178 *  0.187218 *   4.00000    1.000000    
     27 Si    c    0.096600 *  0.697830 *  0.518106 *   4.00000    1.000000    
     28 Si    c    0.697587 *  0.601141 *  0.352948 *   4.00000    1.000000    
     29 Si    c    0.398567 *  0.091569 *  0.683416 *   4.00000    1.000000    
     30 Si    c    0.899715 *  0.299784 *  0.014607 *   4.00000    1.000000    
     31 Si    c    0.397585 *  0.301756 *  0.482541 *   4.00000    1.000000    
     32 Si    c    0.899302 *  0.603404 *  0.148877 *   4.00000    1.000000    
     33 Si    c    0.701395 *  0.093135 *  0.812841 *   4.00000    1.000000    
     34 Si    c    0.610398 *  0.699649 *  0.985372 *   4.00000    1.000000    
     35 Si    c    0.096673 *  0.395765 *  0.647972 *   4.00000    1.000000    
     36 Si    c    0.301755 *  0.902959 *  0.317857 *   4.00000    1.000000    
     37 Si    c    0.252154 *  0.330479 *  0.952309 *   4.00000    1.000000    
     38 Si    c    0.659873 *  0.911473 *  0.287980 *   4.00000    1.000000    
     39 Si    c    0.088809 *  0.746976 *  0.618595 *   4.00000    1.000000    
     40 Si    c    0.748266 *  0.659980 *  0.453426 *   4.00000    1.000000    
     41 Si    c    0.342788 *  0.085092 *  0.783990 *   4.00000    1.000000    
     42 Ge    c    0.909429 *  0.252879 *  0.118451 *   4.00000    1.000000    
     43 Si    c    0.339628 *  0.251186 *  0.381928 *   4.00000    1.000000    
     44 Ge    c    0.907657 *  0.661022 *  0.045806 *   4.00000    1.000000    
     45 Si    c    0.749425 *  0.084250 *  0.712335 *   4.00000    1.000000    
     46 Si    c    0.668789 *  0.743296 *  0.882536 *   4.00000    1.000000    
     47 Si    c    0.089220 *  0.339589 *  0.547399 *   4.00000    1.000000    
     48 Si    c    0.250606 *  0.913942 *  0.217380 *   4.00000    1.000000    
     49 Si    c    0.968346 *  0.123180 *  0.965261 *   4.00000    1.000000    
     50 Si    c    0.877757 *  0.848706 *  0.302337 *   4.00000    1.000000    
     51 Si    c    0.149893 *  0.026010 *  0.633564 *   4.00000    1.000000    
     52 Si    c    0.028014 *  0.878710 *  0.467979 *   4.00000    1.000000    
     53 Si    c    0.124494 *  0.146349 *  0.799849 *   4.00000    1.000000    
     54 Si    c    0.850096 *  0.972468 *  0.136433 *   4.00000    1.000000    
     55 Si    c    0.122097 *  0.971443 *  0.367298 *   4.00000    1.000000    
     56 Si    c    0.853663 *  0.889617 *  0.034392 *   4.00000    1.000000    
     57 Si    c    0.029732 *  0.147511 *  0.698781 *   4.00000    1.000000    
     58 Si    c    0.880785 *  0.024556 *  0.864832 *   4.00000    1.000000    
     59 Si    c    0.149730 *  0.121302 *  0.532792 *   4.00000    1.000000    
     60 Si    c    0.969704 *  0.846656 *  0.201763 *   4.00000    1.000000    
     61 O2    c    0.925578 *  0.012352 *  0.002059 *   0.87073    1.000000    
     62 O2    c    0.001053 *  0.929229 *  0.334202 *   0.87073    1.000000    
     63 O2    c    0.072645 *  0.068015 *  0.666968 *   0.87073    1.000000    
     64 O2    c    0.069727 *  0.999828 *  0.500447 *   0.87073    1.000000    
     65 O2    c    0.004672 *  0.067179 *  0.833230 *   0.87073    1.000000    
     66 O2    c    0.923698 *  0.920403 *  0.167988 *   0.87073    1.000000    
     67 O2    c    0.340028 *  0.578448 *  0.333733 *   0.87073    1.000000    
     68 O2    c    0.420612 *  0.757340 *  0.666042 *   0.87073    1.000000    
     69 O2    c    0.242585 *  0.655488 *  0.998887 *   0.87073    1.000000    
     70 O2    c    0.666119 *  0.421625 *  0.826835 *   0.87073    1.000000    
     71 O2    c    0.577096 *  0.243156 *  0.172335 *   0.87073    1.000000    
     72 O2    c    0.761383 *  0.340410 *  0.500232 *   0.87073    1.000000    
     73 O1    c    0.571495 *  0.335136 *  0.998947 *   1.73396    1.000000    
     74 O2    c    0.761201 *  0.416986 *  0.664531 *   0.87073    1.000000    
     75 O2    c    0.659370 *  0.237392 *  0.336565 *   0.87073    1.000000    
     76 O2    c    0.420518 *  0.658696 *  0.500201 *   0.87073    1.000000    
     77 O2    c    0.243082 *  0.590032 *  0.166888 *   0.87073    1.000000    
     78 O2    c    0.347279 *  0.758824 *  0.832382 *   0.87073    1.000000    
     79 O2    c    0.121033 *  0.209405 *  0.970378 *   0.87073    1.000000    
     80 O2    c    0.786498 *  0.911361 *  0.308024 *   0.87073    1.000000    
     81 O2    c    0.086969 *  0.871906 *  0.638541 *   0.87073    1.000000    
     82 O2    c    0.873999 *  0.786806 *  0.473356 *   0.87073    1.000000    
     83 O2    c    0.215872 *  0.083102 *  0.804179 *   0.87073    1.000000    
     84 O3    c    0.915813 *  0.123696 *  0.142991 *   1.33043    1.000000    
     85 O2    c    0.213565 *  0.125333 *  0.361707 *   0.87073    1.000000    
     86 O3    c    0.922909 *  0.808112 *  0.028042 *   1.33043    1.000000    
     87 O2    c    0.875551 *  0.083854 *  0.692650 *   0.87073    1.000000    
     88 O2    c    0.789450 *  0.870398 *  0.860414 *   0.87073    1.000000    
     89 O2    c    0.087830 *  0.213429 *  0.527183 *   0.87073    1.000000    
     90 O2    c    0.124629 *  0.914974 *  0.197290 *   0.87073    1.000000    
     91 O2    c    0.928257 *  0.860817 *  0.251726 *   0.87073    1.000000    
     92 O2    c    0.135221 *  0.067902 *  0.583411 *   0.87073    1.000000    
     93 O2    c    0.928522 *  0.061513 *  0.915781 *   0.87073    1.000000    
     94 O2    c    0.068687 *  0.135017 *  0.749727 *   0.87073    1.000000    
     95 O2    c    0.862044 *  0.938617 *  0.085283 *   0.87073    1.000000    
     96 O2    c    0.067426 *  0.932837 *  0.417584 *   0.87073    1.000000    
     97 O2    c    0.905754 *  0.212169 *  0.973940 *   0.87073    1.000000    
     98 O2    c    0.796264 *  0.697550 *  0.314761 *   0.87073    1.000000    
     99 O2    c    0.301729 *  0.093937 *  0.645067 *   0.87073    1.000000    
    100 O2    c    0.098308 *  0.797072 *  0.479917 *   0.87073    1.000000    
    101 O2    c    0.209843 *  0.297549 *  0.811873 *   0.87073    1.000000    
    102 O2    c    0.698011 *  0.908339 *  0.148458 *   0.87073    1.000000    
    103 O2    c    0.204166 *  0.901436 *  0.356248 *   0.87073    1.000000    
    104 O2    c    0.701496 *  0.808423 *  0.021856 *   0.87073    1.000000    
    105 O2    c    0.098608 *  0.298762 *  0.686417 *   0.87073    1.000000    
    106 O2    c    0.800431 *  0.094783 *  0.851030 *   0.87073    1.000000    
    107 O2    c    0.301245 *  0.203169 *  0.520881 *   0.87073    1.000000    
    108 O2    c    0.905752 *  0.695789 *  0.190291 *   0.87073    1.000000    
    109 O2    c    0.322142 *  0.646780 *  0.251128 *   0.87073    1.000000    
    110 O2    c    0.355243 *  0.676035 *  0.583185 *   0.87073    1.000000    
    111 O2    c    0.326825 *  0.666849 *  0.915530 *   0.87073    1.000000    
    112 O2    c    0.679872 *  0.349283 *  0.746666 *   0.87073    1.000000    
    113 O3    c    0.625356 *  0.313451 *  0.087518 *   1.33043    1.000000    
    114 O2    c    0.676951 *  0.322876 *  0.418287 *   0.87073    1.000000    
    115 O3    c    0.362696 *  0.310999 *  0.971900 *   1.33043    1.000000    
    116 O2    c    0.669701 *  0.042624 *  0.307048 *   0.87073    1.000000    
    117 O2    c    0.956693 *  0.624209 *  0.636814 *   0.87073    1.000000    
    118 O2    c    0.625468 *  0.669551 *  0.471250 *   0.87073    1.000000    
    119 O2    c    0.334081 *  0.953303 *  0.803039 *   0.87073    1.000000    
    120 O3    c    0.051555 *  0.382713 *  0.137598 *   1.33043    1.000000    
    121 O2    c    0.329571 *  0.373728 *  0.363543 *   0.87073    1.000000    
    122 O3    c    0.053909 *  0.676209 *  0.028082 *   1.33043    1.000000    
    123 O2    c    0.626546 *  0.951071 *  0.695003 *   0.87073    1.000000    
    124 O2    c    0.678062 *  0.622320 *  0.863497 *   0.87073    1.000000    
    125 O2    c    0.957088 *  0.330388 *  0.528893 *   0.87073    1.000000    
    126 O2    c    0.373134 *  0.045725 *  0.199343 *   0.87073    1.000000    
    127 O3    c    0.763857 *  0.288340 *  0.007600 *   1.33043    1.000000    
    128 O2    c    0.696305 *  0.466735 *  0.345463 *   0.87073    1.000000    
    129 O2    c    0.532565 *  0.224564 *  0.675156 *   0.87073    1.000000    
    130 O2    c    0.229986 *  0.696660 *  0.510677 *   0.87073    1.000000    
    131 O2    c    0.312591 *  0.529069 *  0.844305 *   0.87073    1.000000    
    132 O2    c    0.468022 *  0.777211 *  0.179280 *   0.87073    1.000000    
    133 O2    c    0.302399 *  0.768988 *  0.324495 *   0.87073    1.000000    
    134 O2    c    0.471682 *  0.694831 *  0.987090 *   0.87073    1.000000    
    135 O2    c    0.229885 *  0.530199 *  0.655605 *   0.87073    1.000000    
    136 O2    c    0.698568 *  0.225274 *  0.820187 *   0.87073    1.000000    
    137 O2    c    0.532449 *  0.303393 *  0.490598 *   0.87073    1.000000    
    138 O2    c    0.765785 *  0.469368 *  0.155534 *   0.87073    1.000000    
    139 O1    c    0.777373 *  0.543048 *  0.020751 *   1.73396    1.000000    
    140 O2    c    0.464851 *  0.250239 *  0.362585 *   0.87073    1.000000    
    141 O2    c    0.749058 *  0.209013 *  0.691695 *   0.87073    1.000000    
    142 O2    c    0.215704 *  0.464956 *  0.528171 *   0.87073    1.000000    
    143 O2    c    0.537246 *  0.736159 *  0.865210 *   0.87073    1.000000    
    144 O2    c    0.247562 *  0.787481 *  0.197274 *   0.87073    1.000000    
    145 O2    c    0.534510 *  0.784248 *  0.306864 *   0.87073    1.000000    
    146 O2    c    0.259465 *  0.462459 *  0.970486 *   0.87073    1.000000    
    147 O2    c    0.215519 *  0.747917 *  0.638236 *   0.87073    1.000000    
    148 O2    c    0.468288 *  0.212593 *  0.802570 *   0.87073    1.000000    
    149 O2    c    0.749480 *  0.534970 *  0.473420 *   0.87073    1.000000    
    150 O3    c    0.777038 *  0.253569 *  0.139155 *   1.33043    1.000000    
    151 O2    c    0.239501 *  0.322947 *  0.897163 *   0.87073    1.000000    
    152 O2    c    0.677493 *  0.911919 *  0.233739 *   0.87073    1.000000    
    153 O2    c    0.091248 *  0.766928 *  0.564325 *   0.87073    1.000000    
    154 O2    c    0.767720 *  0.676150 *  0.399177 *   0.87073    1.000000    
    155 O2    c    0.324076 *  0.086205 *  0.729723 *   0.87073    1.000000    
    156 O3    c    0.910790 *  0.233074 *  0.060989 *   1.33043    1.000000    
    157 O2    c    0.322869 *  0.231735 *  0.436212 *   0.87073    1.000000    
    158 O3    c    0.902964 *  0.680297 *  0.104364 *   1.33043    1.000000    
    159 O2    c    0.770867 *  0.089188 *  0.766540 *   0.87073    1.000000    
    160 O2    c    0.683583 *  0.758175 *  0.936696 *   0.87073    1.000000    
    161 O2    c    0.091502 *  0.321678 *  0.601705 *   0.87073    1.000000    
    162 O2    c    0.231662 *  0.910134 *  0.271659 *   0.87073    1.000000    
    163 O3    c    0.601654 *  0.569100 *  0.998870 *   1.33043    1.000000    
    164 O2    c    0.441650 *  0.026616 *  0.327395 *   0.87073    1.000000    
    165 O2    c    0.971621 *  0.410183 *  0.656813 *   0.87073    1.000000    
    166 O2    c    0.411438 *  0.440825 *  0.491134 *   0.87073    1.000000    
    167 O2    c    0.563250 *  0.965955 *  0.822095 *   0.87073    1.000000    
    168 O2    c    0.021436 *  0.581546 *  0.153313 *   0.87073    1.000000    
    169 O2    c    0.558169 *  0.587171 *  0.343743 *   0.87073    1.000000    
    170 O2    c    0.022510 *  0.444426 *  0.008989 *   0.87073    1.000000    
    171 O2    c    0.412486 *  0.966477 *  0.674737 *   0.87073    1.000000    
    172 O2    c    0.449421 *  0.411556 *  0.843872 *   0.87073    1.000000    
    173 O2    c    0.971784 *  0.558792 *  0.508822 *   0.87073    1.000000    
    174 O2    c    0.589366 *  0.035032 *  0.179480 *   0.87073    1.000000    
    175 O2    c    0.581599 *  0.165661 *  0.254012 *   0.87073    1.000000    
    176 O2    c    0.835500 *  0.416868 *  0.582512 *   0.87073    1.000000    
    177 O3    c    0.603467 *  0.408426 *  0.911963 *   1.33043    1.000000    
    178 O2    c    0.417704 *  0.829584 *  0.748919 *   0.87073    1.000000    
    179 O2    c    0.159976 *  0.579974 *  0.082300 *   0.87073    1.000000    
    180 O2    c    0.416481 *  0.582423 *  0.417094 *   0.87073    1.000000    
    181 F     c    0.449985 *  0.903563 *  0.252422 *   0.56000    1.000000    
    182 F     c    0.096191 *  0.547068 *  0.583225 *   0.56000    1.000000    
    183 F     c    0.476903 *  0.519245 *  0.926072 *   0.56000    1.000000    
    184 F     c    0.548165 *  0.089598 *  0.748478 *   0.56000    1.000000    
    185 F     c    0.869762 *  0.446928 *  0.075176 *   0.56000    1.000000    
    186 F     c    0.547844 *  0.451614 *  0.417866 *   0.56000    1.000000    
    187 O2    s    0.922370 *  0.011382 *  0.001420 *  -2.87073    1.000000    
    188 O2    s    0.000830 *  0.924957 *  0.334352 *  -2.87073    1.000000    
    189 O2    s    0.076454 *  0.072201 *  0.666803 *  -2.87073    1.000000    
    190 O2    s    0.074009 *  0.999904 *  0.500448 *  -2.87073    1.000000    
    191 O2    s    0.004373 *  0.071259 *  0.832993 *  -2.87073    1.000000    
    192 O2    s    0.920682 *  0.917819 *  0.168312 *  -2.87073    1.000000    
    193 O2    s    0.351884 *  0.586186 *  0.333795 *  -2.87073    1.000000    
    194 O2    s    0.413102 *  0.761732 *  0.665978 *  -2.87073    1.000000    
    195 O2    s    0.238444 *  0.644180 *  0.998729 *  -2.87073    1.000000    
    196 O2    s    0.654640 *  0.412499 *  0.827438 *  -2.87073    1.000000    
    197 O2    s    0.583338 *  0.237540 *  0.171923 *  -2.87073    1.000000    
    198 O2    s    0.765685 *  0.352447 *  0.500198 *  -2.87073    1.000000    
    199 O1    s    0.578674 *  0.344860 *  0.999146 *  -3.73396    1.000000    
    200 O2    s    0.765599 *  0.409377 *  0.664631 *  -2.87073    1.000000    
    201 O2    s    0.647499 *  0.233319 *  0.336487 *  -2.87073    1.000000    
    202 O2    s    0.412911 *  0.646928 *  0.500268 *  -2.87073    1.000000    
    203 O2    s    0.238288 *  0.596471 *  0.167015 *  -2.87073    1.000000    
    204 O2    s    0.358480 *  0.762332 *  0.832547 *  -2.87073    1.000000    
    205 O2    s    0.117963 *  0.212842 *  0.967835 *  -2.87073    1.000000    
    206 O2    s    0.783063 *  0.904732 *  0.305373 *  -2.87073    1.000000    
    207 O2    s    0.093810 *  0.875341 *  0.635989 *  -2.87073    1.000000    
    208 O2    s    0.877351 *  0.783472 *  0.470758 *  -2.87073    1.000000    
    209 O2    s    0.219252 *  0.089984 *  0.801678 *  -2.87073    1.000000    
    210 O3    s    0.908602 *  0.118216 *  0.140439 *  -3.33043    1.000000    
    211 O2    s    0.216893 *  0.122041 *  0.364358 *  -2.87073    1.000000    
    212 O3    s    0.914504 *  0.805830 *  0.029997 *  -3.33043    1.000000    
    213 O2    s    0.878850 *  0.090619 *  0.695305 *  -2.87073    1.000000    
    214 O2    s    0.786649 *  0.873556 *  0.863140 *  -2.87073    1.000000    
    215 O2    s    0.094538 *  0.216691 *  0.529840 *  -2.87073    1.000000    
    216 O2    s    0.121358 *  0.907667 *  0.199831 *  -2.87073    1.000000    
    217 O2    s    0.927177 *  0.857828 *  0.251853 *  -2.87073    1.000000    
    218 O2    s    0.138495 *  0.069156 *  0.583384 *  -2.87073    1.000000    
    219 O2    s    0.927462 *  0.064108 *  0.915422 *  -2.87073    1.000000    
    220 O2    s    0.070600 *  0.137669 *  0.749663 *  -2.87073    1.000000    
    221 O2    s    0.859748 *  0.937038 *  0.085482 *  -2.87073    1.000000    
    222 O2    s    0.069135 *  0.931066 *  0.417614 *  -2.87073    1.000000    
    223 O2    s    0.912046 *  0.211335 *  0.977071 *  -2.87073    1.000000    
    224 O2    s    0.794809 *  0.703744 *  0.317361 *  -2.87073    1.000000    
    225 O2    s    0.295468 *  0.086425 *  0.647787 *  -2.87073    1.000000    
    226 O2    s    0.090664 *  0.795587 *  0.482568 *  -2.87073    1.000000    
    227 O2    s    0.210928 *  0.291358 *  0.814554 *  -2.87073    1.000000    
    228 O2    s    0.703748 *  0.914986 *  0.151245 *  -2.87073    1.000000    
    229 O2    s    0.205418 *  0.908974 *  0.353524 *  -2.87073    1.000000    
    230 O2    s    0.707844 *  0.805703 *  0.019416 *  -2.87073    1.000000    
    231 O2    s    0.091100 *  0.292586 *  0.683808 *  -2.87073    1.000000    
    232 O2    s    0.798797 *  0.087104 *  0.848549 *  -2.87073    1.000000    
    233 O2    s    0.294951 *  0.204505 *  0.518247 *  -2.87073    1.000000    
    234 O2    s    0.911933 *  0.702613 *  0.187394 *  -2.87073    1.000000    
    235 O2    s    0.328095 *  0.658707 *  0.251163 *  -2.87073    1.000000    
    236 O2    s    0.343491 *  0.670130 *  0.583154 *  -2.87073    1.000000    
    237 O2    s    0.332649 *  0.662429 *  0.915460 *  -2.87073    1.000000    
    238 O2    s    0.673823 *  0.337609 *  0.746650 *  -2.87073    1.000000    
    239 O3    s    0.637294 *  0.318763 *  0.088761 *  -3.33043    1.000000    
    240 O2    s    0.670976 *  0.328760 *  0.418210 *  -2.87073    1.000000    
    241 O3    s    0.361228 *  0.320751 *  0.969116 *  -3.33043    1.000000    
    242 O2    s    0.659734 *  0.036076 *  0.304793 *  -2.87073    1.000000    
    243 O2    s    0.963478 *  0.621011 *  0.634538 *  -2.87073    1.000000    
    244 O2    s    0.622241 *  0.659573 *  0.469050 *  -2.87073    1.000000    
    245 O2    s    0.343962 *  0.959762 *  0.800697 *  -2.87073    1.000000    
    246 O3    s    0.046926 *  0.387839 *  0.135733 *  -3.33043    1.000000    
    247 O2    s    0.339570 *  0.376904 *  0.365777 *  -2.87073    1.000000    
    248 O3    s    0.049150 *  0.665704 *  0.029665 *  -3.33043    1.000000    
    249 O2    s    0.623360 *  0.957977 *  0.697135 *  -2.87073    1.000000    
    250 O2    s    0.669105 *  0.619913 *  0.865607 *  -2.87073    1.000000    
    251 O2    s    0.963894 *  0.340339 *  0.531161 *  -2.87073    1.000000    
    252 O2    s    0.376123 *  0.038886 *  0.201646 *  -2.87073    1.000000    
    253 O3    s    0.773849 *  0.295910 *  0.010353 *  -3.33043    1.000000    
    254 O2    s    0.688679 *  0.466096 *  0.348583 *  -2.87073    1.000000    
    255 O2    s    0.533360 *  0.217569 *  0.678273 *  -2.87073    1.000000    
    256 O2    s    0.222952 *  0.688960 *  0.513772 *  -2.87073    1.000000    
    257 O2    s    0.319498 *  0.529948 *  0.847140 *  -2.87073    1.000000    
    258 O2    s    0.467392 *  0.783982 *  0.182446 *  -2.87073    1.000000    
    259 O2    s    0.310091 *  0.776309 *  0.321423 *  -2.87073    1.000000    
    260 O2    s    0.470111 *  0.686975 *  0.984747 *  -2.87073    1.000000    
    261 O2    s    0.222785 *  0.530774 *  0.652479 *  -2.87073    1.000000    
    262 O2    s    0.691301 *  0.218302 *  0.817013 *  -2.87073    1.000000    
    263 O2    s    0.532925 *  0.311013 *  0.487411 *  -2.87073    1.000000    
    264 O2    s    0.772471 *  0.469041 *  0.152791 *  -2.87073    1.000000    
    265 O1    s    0.784049 *  0.542633 *  0.023718 *  -3.73396    1.000000    
    266 O2    s    0.467540 *  0.258055 *  0.365200 *  -2.87073    1.000000    
    267 O2    s    0.741499 *  0.204123 *  0.694406 *  -2.87073    1.000000    
    268 O2    s    0.210477 *  0.467600 *  0.530719 *  -2.87073    1.000000    
    269 O2    s    0.534548 *  0.729943 *  0.867064 *  -2.87073    1.000000    
    270 O2    s    0.256006 *  0.792841 *  0.199827 *  -2.87073    1.000000    
    271 O2    s    0.531846 *  0.789656 *  0.304300 *  -2.87073    1.000000    
    272 O2    s    0.266149 *  0.466001 *  0.968322 *  -2.87073    1.000000    
    273 O2    s    0.210199 *  0.740005 *  0.635630 *  -2.87073    1.000000    
    274 O2    s    0.470706 *  0.207072 *  0.800026 *  -2.87073    1.000000    
    275 O2    s    0.741577 *  0.532374 *  0.470742 *  -2.87073    1.000000    
    276 O3    s    0.780405 *  0.260198 *  0.136989 *  -3.33043    1.000000    
    277 O2    s    0.248241 *  0.331261 *  0.897598 *  -2.87073    1.000000    
    278 O2    s    0.667880 *  0.911593 *  0.234620 *  -2.87073    1.000000    
    279 O2    s    0.091538 *  0.757578 *  0.565262 *  -2.87073    1.000000    
    280 O2    s    0.758306 *  0.666576 *  0.400097 *  -2.87073    1.000000    
    281 O2    s    0.333825 *  0.086626 *  0.730653 *  -2.87073    1.000000    
    282 O3    s    0.909631 *  0.241000 *  0.061419 *  -3.33043    1.000000    
    283 O2    s    0.332455 *  0.241122 *  0.435317 *  -2.87073    1.000000    
    284 O3    s    0.902871 *  0.670801 *  0.104538 *  -3.33043    1.000000    
    285 O2    s    0.761271 *  0.089068 *  0.765638 *  -2.87073    1.000000    
    286 O2    s    0.674994 *  0.750909 *  0.935487 *  -2.87073    1.000000    
    287 O2    s    0.091807 *  0.331334 *  0.600809 *  -2.87073    1.000000    
    288 O2    s    0.241020 *  0.909793 *  0.270774 *  -2.87073    1.000000    
    289 O3    s    0.597857 *  0.574423 *  0.995145 *  -3.33043    1.000000    
    290 O2    s    0.441340 *  0.022062 *  0.323983 *  -2.87073    1.000000    
    291 O2    s    0.976579 *  0.414857 *  0.653413 *  -2.87073    1.000000    
    292 O2    s    0.416136 *  0.440617 *  0.487799 *  -2.87073    1.000000    
    293 O2    s    0.562989 *  0.970987 *  0.818733 *  -2.87073    1.000000    
    294 O2    s    0.018577 *  0.578819 *  0.150799 *  -2.87073    1.000000    
    295 O2    s    0.558429 *  0.582490 *  0.347115 *  -2.87073    1.000000    
    296 O2    s    0.019533 *  0.444532 *  0.011832 *  -2.87073    1.000000    
    297 O2    s    0.417216 *  0.971381 *  0.678114 *  -2.87073    1.000000    
    298 O2    s    0.448033 *  0.414686 *  0.846628 *  -2.87073    1.000000    
    299 O2    s    0.976691 *  0.559045 *  0.512229 *  -2.87073    1.000000    
    300 O2    s    0.584574 *  0.029715 *  0.182725 *  -2.87073    1.000000    
    301 O2    s    0.576250 *  0.154759 *  0.254022 *  -2.87073    1.000000    
    302 O2    s    0.846616 *  0.422374 *  0.582538 *  -2.87073    1.000000    
    303 O3    s    0.598097 *  0.415575 *  0.910079 *  -3.33043    1.000000    
    304 O2    s    0.423447 *  0.840739 *  0.748962 *  -2.87073    1.000000    
    305 O2    s    0.151032 *  0.575864 *  0.082435 *  -2.87073    1.000000    
    306 O2    s    0.421970 *  0.576960 *  0.417148 *  -2.87073    1.000000    
    307 F     s    0.449533 *  0.902863 *  0.252408 *  -1.56000    1.000000    
    308 F     s    0.096567 *  0.547289 *  0.583266 *  -1.56000    1.000000    
    309 F     s    0.480497 *  0.513431 *  0.928428 *  -1.56000    1.000000    
    310 F     s    0.548189 *  0.089718 *  0.748523 *  -1.56000    1.000000    
    311 F     s    0.864760 *  0.445632 *  0.073950 *  -1.56000    1.000000    
    312 F     s    0.548109 *  0.451366 *  0.417886 *  -1.56000    1.000000    
--------------------------------------------------------------------------------



********************************************************************************
*  General input information                                                   *
********************************************************************************

  Species output for all configurations : 

--------------------------------------------------------------------------------
  Species    Type    Atomic    Atomic    Charge       Radii (Angs)     Library
                     Number     Mass       (e)     Cova   Ionic  VDW   Symbol
--------------------------------------------------------------------------------
    Si       Core       14      28.09   4.000000   1.200  0.000  2.100          
    O1       Core        8      16.00   1.733957   0.730  0.000  1.360          
    O1       Shell       8       0.00  -3.733957   0.730  0.000  1.360          
    O2       Core        8      16.00   0.870733   0.730  0.000  1.360          
    O2       Shell       8       0.00  -2.870733   0.730  0.000  1.360          
    O3       Core        8      16.00   1.330431   0.730  0.000  1.360          
    O3       Shell       8       0.00  -3.330431   0.730  0.000  1.360          
    F        Core        9      19.00   0.560000   0.710  0.000  1.300          
    F        Shell       9       0.00  -1.560000   0.710  0.000  1.300          
    Ge       Core       32      72.61   4.000000   1.170  0.000  1.750          
--------------------------------------------------------------------------------


  Lattice summation method               =    Ewald          (3-D)
                                         =    Parry          (2-D)
                                         =    Saunders et al (1-D)
  Accuracy factor for lattice sums       =   12.000


  Time limit = Infinity

  Maximum range for interatomic potentials =        16.000000 Angstroms

  Taper potentials to zero over   1.0000 Angstroms using polynomial

  General interatomic potentials :

--------------------------------------------------------------------------------
Atom  Types   Potential         A         B         C         D     Cutoffs(Ang)
  1     2                                                            Min    Max 
--------------------------------------------------------------------------------
Si   c O1   s Buckingham    0.132E+04 0.318      10.1      0.00     0.000 16.000
Si   c O2   s Buckingham    0.132E+04 0.318      10.1      0.00     0.000 16.000
Si   c O3   s Buckingham    0.132E+04 0.318      10.1      0.00     0.000 16.000
Ge   c O1   s Buckingham    0.150E+04 0.326      16.8      0.00     0.000 16.000
Ge   c O2   s Buckingham    0.150E+04 0.326      16.8      0.00     0.000 16.000
Ge   c O3   s Buckingham    0.150E+04 0.326      16.8      0.00     0.000 16.000
O1   s O1   s Buckingham    0.228E+05 0.149      10.9      0.00     0.000 16.000
O1   s O2   s Buckingham    0.228E+05 0.149      10.9      0.00     0.000 16.000
O1   s O3   s Buckingham    0.228E+05 0.149      10.9      0.00     0.000 16.000
O2   s O2   s Buckingham    0.228E+05 0.149      10.9      0.00     0.000 16.000
O2   s O3   s Buckingham    0.228E+05 0.149      10.9      0.00     0.000 16.000
O3   s O3   s Buckingham    0.228E+05 0.149      10.9      0.00     0.000 16.000
Si   c F    s Buckingham     977.     0.282      0.00      0.00     0.000 16.000
Ge   c F    s Buckingham     681.     0.320      0.00      0.00     0.000 16.000
F    s F    s Buckingham     540.     0.262      0.00      0.00     0.000 16.000
O1   s F    s Buckingham    0.168E+04 0.268      0.00      0.00     0.000 16.000
O2   s F    s Buckingham    0.168E+04 0.268      0.00      0.00     0.000 16.000
O3   s F    s Buckingham    0.168E+04 0.268      0.00      0.00     0.000 16.000
O2   c O2   s Spring (c-s)   76.0      0.00      0.00      0.00     0.000  0.800
O3   c O3   s Spring (c-s)   128.      0.00      0.00      0.00     0.000  0.800
O1   c O1   s Spring (c-s)   180.      0.00      0.00      0.00     0.000  0.800
F    c F    s Spring (c-s)   33.5      0.00      0.00      0.00     0.000  0.800
--------------------------------------------------------------------------------

  General Three-body potentials :

  Harmonic form:

--------------------------------------------------------------------------------
Atom    Atom    Atom           Force Constants            Theta     Cutoffs  
  1       2       3     (eVrad**-2/eVrad**-3/eVrad**-4)   (deg)  1-2  1-3  2-3
--------------------------------------------------------------------------------
Si    c O1    s O1    s  1.261        0.0000    0.0000   109.470 0.00 0.00 0.00
                                                                 1.90 1.90 3.50
Si    c O1    s O2    s  1.261        0.0000    0.0000   109.470 0.00 0.00 0.00
                                                                 1.90 1.90 3.50
Si    c O2    s O2    s  1.261        0.0000    0.0000   109.470 0.00 0.00 0.00
                                                                 1.90 1.90 3.50
--------------------------------------------------------------------------------

********************************************************************************
*  Output for configuration   1                                                *
********************************************************************************


  Components of energy : 

--------------------------------------------------------------------------------
  Interatomic potentials     =        2061.65266613 eV
  Three-body potentials      =           0.43776139 eV
  Monopole - monopole (real) =       -6583.29059020 eV
  Monopole - monopole (recip)=       -3191.87418461 eV
  Monopole - monopole (total)=       -9775.16477481 eV
  Neutralising energy        =          -6.45304567 eV
--------------------------------------------------------------------------------
  Total lattice energy       =       -7719.52739296 eV
--------------------------------------------------------------------------------
  Total lattice energy       =         -744816.3896 kJ/(mole unit cells)
--------------------------------------------------------------------------------


  Number of variables =      939

  Maximum number of calculations  =          1000
  Maximum Hessian update interval =            10
  Maximum step size               =   0.010000000
  Maximum parameter tolerance     =   0.000010000
  Maximum function  tolerance     =   0.000010000
  Maximum gradient  tolerance     =   0.001000000
  Maximum gradient  component     =   0.010000000

  Symmetry not applied to optimisation

  Cell parameters to be optimised using strains

  RFO method to be used

  DFP hessian update to be used

  Dumpfile to be written after every cycle

  Start of bulk optimisation :

  Cycle:      0 Energy:     -7719.527393  Gnorm:      0.007311  CPU:    1.005
  ** Hessian has wrong structure
  ** Imaginary eigenvectors =   1
  Cycle:      1 Energy:     -7719.530743  Gnorm:      0.007268  CPU:    6.439
  ** Hessian has wrong structure
  ** Imaginary eigenvectors =   1
  Cycle:      2 Energy:     -7719.535677  Gnorm:      0.007179  CPU:   12.556
  ** Hessian has required structure
  Cycle:      3 Energy:     -7719.539602  Gnorm:      0.007003  CPU:   16.255
  ** Hessian has required structure
  Cycle:      4 Energy:     -7719.546022  Gnorm:      0.006684  CPU:   19.623
  ** Hessian has required structure
  Cycle:      5 Energy:     -7719.552011  Gnorm:      0.006327  CPU:   22.660
  ** Hessian has required structure
  Cycle:      6 Energy:     -7719.557036  Gnorm:      0.006004  CPU:   25.698
  ** Hessian has required structure
  Cycle:      7 Energy:     -7719.561463  Gnorm:      0.005704  CPU:   28.736
  ** Hessian has required structure
  Cycle:      8 Energy:     -7719.565429  Gnorm:      0.005418  CPU:   31.773
  ** Hessian has required structure
  Cycle:      9 Energy:     -7719.568999  Gnorm:      0.005149  CPU:   34.811
  ** Hessian has required structure
  Cycle:     10 Energy:     -7719.572229  Gnorm:      0.004890  CPU:   37.848
  ** Hessian has required structure
  Cycle:     11 Energy:     -7719.575152  Gnorm:      0.004653  CPU:   40.885
  ** Hessian has required structure
  Cycle:     12 Energy:     -7719.577818  Gnorm:      0.004407  CPU:   43.924
  ** Hessian has required structure
  Cycle:     13 Energy:     -7719.580214  Gnorm:      0.004188  CPU:   47.689
  ** Hessian has required structure
  Cycle:     14 Energy:     -7719.582393  Gnorm:      0.003981  CPU:   50.726
  ** Hessian has required structure
  Cycle:     15 Energy:     -7719.584369  Gnorm:      0.003784  CPU:   53.763
  ** Hessian has required structure
  Cycle:     16 Energy:     -7719.586160  Gnorm:      0.003596  CPU:   56.800
  ** Hessian has required structure
  Cycle:     17 Energy:     -7719.587784  Gnorm:      0.003418  CPU:   59.837
  ** Hessian has required structure
  Cycle:     18 Energy:     -7719.589256  Gnorm:      0.003249  CPU:   62.875
  ** Hessian has required structure
  Cycle:     19 Energy:     -7719.590590  Gnorm:      0.003088  CPU:   65.914
  ** Hessian has required structure
  Cycle:     20 Energy:     -7719.591798  Gnorm:      0.002934  CPU:   68.951
  ** Hessian has required structure
  Cycle:     21 Energy:     -7719.592893  Gnorm:      0.002789  CPU:   71.989
  ** Hessian has required structure
  Cycle:     22 Energy:     -7719.593884  Gnorm:      0.002650  CPU:   75.027
  ** Hessian has required structure
  Cycle:     23 Energy:     -7719.594781  Gnorm:      0.002518  CPU:   78.725
  ** Hessian has required structure
  Cycle:     24 Energy:     -7719.595594  Gnorm:      0.002393  CPU:   81.763
  ** Hessian has required structure
  Cycle:     25 Energy:     -7719.596329  Gnorm:      0.002275  CPU:   84.801
  ** Hessian has required structure
  Cycle:     26 Energy:     -7719.596994  Gnorm:      0.002162  CPU:   87.840
  ** Hessian has required structure
  Cycle:     27 Energy:     -7719.597596  Gnorm:      0.002054  CPU:   90.878
  ** Hessian has required structure
  Cycle:     28 Energy:     -7719.598140  Gnorm:      0.001952  CPU:   93.916
  ** Hessian has required structure
  Cycle:     29 Energy:     -7719.598632  Gnorm:      0.001855  CPU:   96.955
  ** Hessian has required structure
  Cycle:     30 Energy:     -7719.599077  Gnorm:      0.001763  CPU:   99.993
  ** Hessian has required structure
  Cycle:     31 Energy:     -7719.599479  Gnorm:      0.001675  CPU:  103.031
  ** Hessian has required structure
  Cycle:     32 Energy:     -7719.599843  Gnorm:      0.001592  CPU:  106.069
  ** Hessian has required structure
  Cycle:     33 Energy:     -7719.600171  Gnorm:      0.001513  CPU:  109.909
  ** Hessian has required structure
  Cycle:     34 Energy:     -7719.600468  Gnorm:      0.001437  CPU:  113.014
  ** Hessian has required structure
  Cycle:     35 Energy:     -7719.600736  Gnorm:      0.001366  CPU:  116.055
  ** Hessian has required structure
  Cycle:     36 Energy:     -7719.600978  Gnorm:      0.001298  CPU:  119.096
  ** Hessian has required structure
  Cycle:     37 Energy:     -7719.601197  Gnorm:      0.001233  CPU:  122.135
  ** Hessian has required structure
  Cycle:     38 Energy:     -7719.601395  Gnorm:      0.001172  CPU:  125.175
  ** Hessian has required structure
  Cycle:     39 Energy:     -7719.601573  Gnorm:      0.001113  CPU:  128.215
  ** Hessian has required structure
  Cycle:     40 Energy:     -7719.601734  Gnorm:      0.001058  CPU:  131.253
  ** Hessian has required structure
  Cycle:     41 Energy:     -7719.601880  Gnorm:      0.001005  CPU:  134.293
  ** Hessian has required structure
  Cycle:     42 Energy:     -7719.602011  Gnorm:      0.000955  CPU:  137.332
  ** Hessian has required structure
  Cycle:     43 Energy:     -7719.602130  Gnorm:      0.000908  CPU:  141.048
  ** Hessian has required structure
  Cycle:     44 Energy:     -7719.602237  Gnorm:      0.000862  CPU:  144.086
  ** Hessian has required structure
  Cycle:     45 Energy:     -7719.602333  Gnorm:      0.000819  CPU:  147.126
  ** Hessian has required structure
  Cycle:     46 Energy:     -7719.602421  Gnorm:      0.000778  CPU:  150.165
  ** Hessian has required structure
  Cycle:     47 Energy:     -7719.602500  Gnorm:      0.000740  CPU:  153.234
  ** Hessian has required structure
  Cycle:     48 Energy:     -7719.602571  Gnorm:      0.000703  CPU:  156.273
  ** Hessian has required structure
  Cycle:     49 Energy:     -7719.602635  Gnorm:      0.000668  CPU:  159.311
  ** Hessian has required structure
  Cycle:     50 Energy:     -7719.602693  Gnorm:      0.000634  CPU:  162.351
  ** Hessian has required structure
  Cycle:     51 Energy:     -7719.602745  Gnorm:      0.000603  CPU:  165.389
  ** Hessian has required structure
  Cycle:     52 Energy:     -7719.602774  Gnorm:      0.000585  CPU:  167.770
  ** Hessian has required structure
  Cycle:     53 Energy:     -7719.602801  Gnorm:      0.000567  CPU:  170.811
  ** Hessian has required structure
  Cycle:     54 Energy:     -7719.602822  Gnorm:      0.000553  CPU:  173.192
  ** Hessian has required structure
  Cycle:     55 Energy:     -7719.602841  Gnorm:      0.000540  CPU:  175.781
  ** Hessian has required structure
  Cycle:     56 Energy:     -7719.602858  Gnorm:      0.000528  CPU:  178.177
  ** Hessian has required structure
  Cycle:     57 Energy:     -7719.602873  Gnorm:      0.000517  CPU:  180.556
  ** Hessian has required structure
  Cycle:     58 Energy:     -7719.602888  Gnorm:      0.000506  CPU:  182.934
  ** Hessian has required structure
  Cycle:     59 Energy:     -7719.602902  Gnorm:      0.000496  CPU:  185.314
  ** Hessian has required structure
  Cycle:     60 Energy:     -7719.602915  Gnorm:      0.000486  CPU:  187.693
  ** Hessian has required structure
  Cycle:     61 Energy:     -7719.602928  Gnorm:      0.000476  CPU:  190.072
  ** Hessian has required structure
  Cycle:     62 Energy:     -7719.602940  Gnorm:      0.000466  CPU:  192.449
  ** Hessian has required structure
  Cycle:     63 Energy:     -7719.602957  Gnorm:      0.000452  CPU:  195.488
  ** Hessian has required structure
  Cycle:     64 Energy:     -7719.602971  Gnorm:      0.000441  CPU:  197.866
  ** Hessian has required structure
  Cycle:     65 Energy:     -7719.602983  Gnorm:      0.000430  CPU:  200.245
  ** Hessian has required structure
  Cycle:     66 Energy:     -7719.602993  Gnorm:      0.000421  CPU:  202.624
  ** Hessian has required structure
  Cycle:     67 Energy:     -7719.603003  Gnorm:      0.000412  CPU:  205.003
  ** Hessian has required structure
  Cycle:     68 Energy:     -7719.603013  Gnorm:      0.000404  CPU:  207.382
  ** Hessian has required structure
  Cycle:     69 Energy:     -7719.603021  Gnorm:      0.000395  CPU:  209.761
  ** Hessian has required structure
  Cycle:     70 Energy:     -7719.603030  Gnorm:      0.000387  CPU:  212.139
  ** Hessian has required structure
  Cycle:     71 Energy:     -7719.603038  Gnorm:      0.000379  CPU:  214.518
  ** Hessian has required structure
  Cycle:     72 Energy:     -7719.603046  Gnorm:      0.000372  CPU:  216.898
  ** Hessian has required structure
  Cycle:     73 Energy:     -7719.603057  Gnorm:      0.000360  CPU:  219.937
  ** Hessian has required structure
  Cycle:     74 Energy:     -7719.603065  Gnorm:      0.000351  CPU:  222.632
  ** Hessian has required structure
  Cycle:     75 Energy:     -7719.603073  Gnorm:      0.000343  CPU:  225.065
  ** Hessian has required structure
  Cycle:     76 Energy:     -7719.603080  Gnorm:      0.000336  CPU:  227.634
  ** Hessian has required structure
  Cycle:     77 Energy:     -7719.603086  Gnorm:      0.000329  CPU:  230.031
  ** Hessian has required structure
  Cycle:     78 Energy:     -7719.603092  Gnorm:      0.000322  CPU:  232.411
  ** Hessian has required structure
  Cycle:     79 Energy:     -7719.603097  Gnorm:      0.000315  CPU:  234.791
  ** Hessian has required structure
  Cycle:     80 Energy:     -7719.603103  Gnorm:      0.000309  CPU:  237.171
  ** Hessian has required structure
  Cycle:     81 Energy:     -7719.603108  Gnorm:      0.000302  CPU:  239.550
  ** Hessian has required structure
  Cycle:     82 Energy:     -7719.603113  Gnorm:      0.000296  CPU:  241.929
  ** Hessian has required structure
  Cycle:     83 Energy:     -7719.603120  Gnorm:      0.000287  CPU:  245.034
  ** Hessian has required structure
  Cycle:     84 Energy:     -7719.603125  Gnorm:      0.000280  CPU:  247.412
  ** Hessian has required structure
  Cycle:     85 Energy:     -7719.603130  Gnorm:      0.000273  CPU:  249.793
  ** Hessian has required structure
  Cycle:     86 Energy:     -7719.603134  Gnorm:      0.000268  CPU:  252.173
  ** Hessian has required structure
  Cycle:     87 Energy:     -7719.603138  Gnorm:      0.000262  CPU:  254.552
  ** Hessian has required structure
  Cycle:     88 Energy:     -7719.603142  Gnorm:      0.000256  CPU:  256.930
  ** Hessian has required structure
  Cycle:     89 Energy:     -7719.603146  Gnorm:      0.000251  CPU:  259.310
  ** Hessian has required structure
  Cycle:     90 Energy:     -7719.603149  Gnorm:      0.000246  CPU:  261.689
  ** Hessian has required structure
  Cycle:     91 Energy:     -7719.603152  Gnorm:      0.000241  CPU:  264.069
  ** Hessian has required structure
  Cycle:     92 Energy:     -7719.603156  Gnorm:      0.000236  CPU:  266.449
  ** Hessian has required structure
  Cycle:     93 Energy:     -7719.603160  Gnorm:      0.000229  CPU:  269.487
  ** Hessian has required structure
  Cycle:     94 Energy:     -7719.603163  Gnorm:      0.000223  CPU:  271.867
  ** Hessian has required structure
  Cycle:     95 Energy:     -7719.603166  Gnorm:      0.000218  CPU:  274.387
  ** Hessian has required structure
  Cycle:     96 Energy:     -7719.603169  Gnorm:      0.000213  CPU:  276.765
  ** Hessian has required structure
  Cycle:     97 Energy:     -7719.603172  Gnorm:      0.000209  CPU:  279.144
  ** Hessian has required structure
  Cycle:     98 Energy:     -7719.603174  Gnorm:      0.000204  CPU:  281.523
  ** Hessian has required structure
  Cycle:     99 Energy:     -7719.603176  Gnorm:      0.000200  CPU:  283.902
  ** Hessian has required structure
  Cycle:    100 Energy:     -7719.603179  Gnorm:      0.000196  CPU:  286.428
  ** Hessian has required structure
  Cycle:    101 Energy:     -7719.603181  Gnorm:      0.000192  CPU:  288.807
  ** Hessian has required structure
  Cycle:    102 Energy:     -7719.603183  Gnorm:      0.000188  CPU:  291.187
  ** Hessian has required structure
  Cycle:    103 Energy:     -7719.603185  Gnorm:      0.000182  CPU:  294.229
  ** Hessian has required structure
  Cycle:    104 Energy:     -7719.603188  Gnorm:      0.000178  CPU:  296.611
  ** Hessian has required structure
  Cycle:    105 Energy:     -7719.603190  Gnorm:      0.000174  CPU:  298.991
  ** Hessian has required structure
  Cycle:    106 Energy:     -7719.603191  Gnorm:      0.000170  CPU:  301.370
  ** Hessian has required structure
  Cycle:    107 Energy:     -7719.603193  Gnorm:      0.000166  CPU:  303.749
  ** Hessian has required structure
  Cycle:    108 Energy:     -7719.603194  Gnorm:      0.000163  CPU:  306.129
  ** Hessian has required structure
  Cycle:    109 Energy:     -7719.603196  Gnorm:      0.000160  CPU:  308.510
  ** Hessian has required structure
  Cycle:    110 Energy:     -7719.603197  Gnorm:      0.000156  CPU:  310.890
  ** Hessian has required structure
  Cycle:    111 Energy:     -7719.603199  Gnorm:      0.000153  CPU:  313.270
  ** Hessian has required structure
  Cycle:    112 Energy:     -7719.603200  Gnorm:      0.000150  CPU:  315.650
  ** Hessian has required structure
  Cycle:    113 Energy:     -7719.603202  Gnorm:      0.000145  CPU:  318.690
  ** Hessian has required structure
  Cycle:    114 Energy:     -7719.603203  Gnorm:      0.000142  CPU:  321.070
  ** Hessian has required structure
  Cycle:    115 Energy:     -7719.603204  Gnorm:      0.000138  CPU:  323.451
  ** Hessian has required structure
  Cycle:    116 Energy:     -7719.603205  Gnorm:      0.000135  CPU:  325.838
  ** Hessian has required structure
  Cycle:    117 Energy:     -7719.603206  Gnorm:      0.000133  CPU:  328.216
  ** Hessian has required structure
  Cycle:    118 Energy:     -7719.603207  Gnorm:      0.000130  CPU:  330.605
  ** Hessian has required structure
  Cycle:    119 Energy:     -7719.603208  Gnorm:      0.000127  CPU:  333.051
  ** Hessian has required structure
  Cycle:    120 Energy:     -7719.603209  Gnorm:      0.000125  CPU:  335.430
  ** Hessian has required structure
  Cycle:    121 Energy:     -7719.603210  Gnorm:      0.000122  CPU:  337.809
  ** Hessian has required structure
  Cycle:    122 Energy:     -7719.603211  Gnorm:      0.000119  CPU:  340.190
  ** Hessian has required structure
  Cycle:    123 Energy:     -7719.603212  Gnorm:      0.000116  CPU:  343.232
  ** Hessian has required structure
  Cycle:    124 Energy:     -7719.603213  Gnorm:      0.000113  CPU:  345.611
  ** Hessian has required structure
  Cycle:    125 Energy:     -7719.603214  Gnorm:      0.000110  CPU:  347.990
  ** Hessian has required structure
  Cycle:    126 Energy:     -7719.603214  Gnorm:      0.000108  CPU:  350.370
  ** Hessian has required structure
  Cycle:    127 Energy:     -7719.603215  Gnorm:      0.000106  CPU:  352.749
  ** Hessian has required structure
  Cycle:    128 Energy:     -7719.603216  Gnorm:      0.000103  CPU:  355.198
  ** Hessian has required structure
  Cycle:    129 Energy:     -7719.603216  Gnorm:      0.000101  CPU:  357.578
  ** Hessian has required structure
  Cycle:    130 Energy:     -7719.603217  Gnorm:      0.000099  CPU:  359.957
  ** Hessian has required structure
  Cycle:    131 Energy:     -7719.603217  Gnorm:      0.000097  CPU:  362.337
  ** Hessian has required structure
  Cycle:    132 Energy:     -7719.603218  Gnorm:      0.000095  CPU:  364.717
  ** Hessian has required structure
  Cycle:    133 Energy:     -7719.603218  Gnorm:      0.000092  CPU:  367.766
  ** Hessian has required structure
  Cycle:    134 Energy:     -7719.603219  Gnorm:      0.000090  CPU:  370.146
  ** Hessian has required structure
  Cycle:    135 Energy:     -7719.603219  Gnorm:      0.000088  CPU:  372.526
  ** Hessian has required structure
  Cycle:    136 Energy:     -7719.603220  Gnorm:      0.000086  CPU:  374.906
  ** Hessian has required structure
  Cycle:    137 Energy:     -7719.603220  Gnorm:      0.000084  CPU:  377.286
  ** Hessian has required structure
  Cycle:    138 Energy:     -7719.603221  Gnorm:      0.000082  CPU:  379.666
  ** Hessian has required structure
  Cycle:    139 Energy:     -7719.603221  Gnorm:      0.000081  CPU:  382.046
  ** Hessian has required structure
  Cycle:    140 Energy:     -7719.603221  Gnorm:      0.000079  CPU:  384.425
  ** Hessian has required structure
  Cycle:    141 Energy:     -7719.603222  Gnorm:      0.000077  CPU:  386.873
  ** Hessian has required structure
  Cycle:    142 Energy:     -7719.603222  Gnorm:      0.000076  CPU:  389.253
  ** Hessian has required structure
  Cycle:    143 Energy:     -7719.603223  Gnorm:      0.000074  CPU:  392.360
  ** Hessian has required structure
  Cycle:    144 Energy:     -7719.603223  Gnorm:      0.000072  CPU:  394.739
  ** Hessian has required structure
  Cycle:    145 Energy:     -7719.603223  Gnorm:      0.000070  CPU:  397.118
  ** Hessian has required structure
  Cycle:    146 Energy:     -7719.603224  Gnorm:      0.000069  CPU:  399.497
  ** Hessian has required structure
  Cycle:    147 Energy:     -7719.603224  Gnorm:      0.000067  CPU:  401.876
  ** Hessian has required structure
  Cycle:    148 Energy:     -7719.603224  Gnorm:      0.000066  CPU:  404.255
  ** Hessian has required structure
  Cycle:    149 Energy:     -7719.603224  Gnorm:      0.000064  CPU:  406.635
  ** Hessian has required structure
  Cycle:    150 Energy:     -7719.603224  Gnorm:      0.000063  CPU:  409.015
  ** Hessian has required structure
  Cycle:    151 Energy:     -7719.603225  Gnorm:      0.000062  CPU:  411.395
  ** Hessian has required structure
  Cycle:    152 Energy:     -7719.603225  Gnorm:      0.000060  CPU:  413.776
  ** Hessian has required structure
  Cycle:    153 Energy:     -7719.603225  Gnorm:      0.000059  CPU:  416.885
  ** Hessian has required structure
  Cycle:    154 Energy:     -7719.603225  Gnorm:      0.000057  CPU:  419.265
  ** Hessian has required structure
  Cycle:    155 Energy:     -7719.603226  Gnorm:      0.000056  CPU:  421.644
  ** Hessian has required structure
  Cycle:    156 Energy:     -7719.603226  Gnorm:      0.000055  CPU:  424.024
  ** Hessian has required structure
  Cycle:    157 Energy:     -7719.603226  Gnorm:      0.000053  CPU:  426.404
  ** Hessian has required structure
  Cycle:    158 Energy:     -7719.603226  Gnorm:      0.000052  CPU:  428.784
  ** Hessian has required structure
  Cycle:    159 Energy:     -7719.603226  Gnorm:      0.000051  CPU:  431.164
  ** Hessian has required structure
  Cycle:    160 Energy:     -7719.603226  Gnorm:      0.000050  CPU:  433.543
  ** Hessian has required structure
  Cycle:    161 Energy:     -7719.603227  Gnorm:      0.000049  CPU:  435.923
  ** Hessian has required structure
  Cycle:    162 Energy:     -7719.603227  Gnorm:      0.000048  CPU:  438.302
  ** Hessian has required structure
  Cycle:    163 Energy:     -7719.603227  Gnorm:      0.000047  CPU:  441.344
  ** Hessian has required structure
  Cycle:    164 Energy:     -7719.603227  Gnorm:      0.000046  CPU:  443.724
  ** Hessian has required structure
  Cycle:    165 Energy:     -7719.603227  Gnorm:      0.000045  CPU:  446.104
  ** Hessian has required structure
  Cycle:    166 Energy:     -7719.603227  Gnorm:      0.000044  CPU:  448.485
  ** Hessian has required structure
  Cycle:    167 Energy:     -7719.603227  Gnorm:      0.000043  CPU:  450.866
  ** Hessian has required structure
  Cycle:    168 Energy:     -7719.603227  Gnorm:      0.000042  CPU:  453.248
  ** Hessian has required structure
  Cycle:    169 Energy:     -7719.603228  Gnorm:      0.000041  CPU:  455.628
  ** Hessian has required structure


  **** Optimisation achieved ****


  Final energy =   -7719.60322763 eV
  Final Gnorm  =       0.00004004

  Components of energy : 

--------------------------------------------------------------------------------
  Interatomic potentials     =        2062.37085407 eV
  Three-body potentials      =           0.43863188 eV
  Monopole - monopole (real) =       -6584.58048431 eV
  Monopole - monopole (recip)=       -3191.38018001 eV
  Monopole - monopole (total)=       -9775.96066432 eV
  Neutralising energy        =          -6.45204926 eV
--------------------------------------------------------------------------------
  Total lattice energy       =       -7719.60322763 eV
--------------------------------------------------------------------------------
  Total lattice energy       =         -744823.7065 kJ/(mole unit cells)
--------------------------------------------------------------------------------

  Final fractional coordinates of atoms :

--------------------------------------------------------------------------------
   No.  Atomic        x           y          z          Radius
        Label       (Frac)      (Frac)     (Frac)       (Angs) 
--------------------------------------------------------------------------------
     1  Ge    c     0.699600    0.375700    0.033890    0.000000
     2  Si    c     0.604707    0.304236    0.366949    0.000000
     3  Si    c     0.664342    0.269925    0.695711    0.000000
     4  Si    c     0.280948    0.597432    0.531117    0.000000
     5  Si    c     0.373012    0.650780    0.863091    0.000000
     6  Si    c     0.311143    0.695683    0.199477    0.000000
     7  Si    c     0.363075    0.684937    0.299843    0.000000
     8  Si    c     0.315739    0.599448    0.965120    0.000000
     9  Si    c     0.283713    0.650898    0.631644    0.000000
    10  Si    c     0.612182    0.271306    0.796325    0.000000
    11  Si    c     0.659059    0.358850    0.467313    0.000000
    12  Si    c     0.676332    0.311049    0.134133    0.000000
    13  Ge    c     0.521746    0.410261    0.963649    0.000000
    14  Si    c     0.567631    0.093826    0.303729    0.000000
    15  Si    c     0.875436    0.446395    0.632544    0.000000
    16  Si    c     0.452020    0.560400    0.466115    0.000000
    17  Si    c     0.409830    0.861562    0.797190    0.000000
    18  Si    c     0.104789    0.523151    0.131882    0.000000
    19  Si    c     0.399850    0.509271    0.364394    0.000000
    20  Si    c     0.105069    0.575016    0.027870    0.000000
    21  Si    c     0.458585    0.860462    0.695822    0.000000
    22  Si    c     0.585555    0.442486    0.863958    0.000000
    23  Si    c     0.872001    0.395389    0.531112    0.000000
    24  Si    c     0.516369    0.102996    0.202188    0.000000
    25  Si    c     0.298373    0.370801    0.849461    0.000000
    26  Si    c     0.589539    0.896404    0.186023    0.000000
    27  Si    c     0.079860    0.675343    0.516891    0.000000
    28  Si    c     0.680991    0.581035    0.351381    0.000000
    29  Si    c     0.386320    0.068811    0.681753    0.000000
    30  Si    c     0.888108    0.289753    0.011098    0.000000
    31  Si    c     0.380601    0.280616    0.481115    0.000000
    32  Si    c     0.886468    0.592526    0.146116    0.000000
    33  Si    c     0.689328    0.069714    0.811235    0.000000
    34  Si    c     0.598752    0.683301    0.984576    0.000000
    35  Si    c     0.083709    0.373439    0.646865    0.000000
    36  Si    c     0.286942    0.885050    0.316657    0.000000
    37  Si    c     0.242125    0.313325    0.951668    0.000000
    38  Si    c     0.644694    0.893846    0.286769    0.000000
    39  Si    c     0.075075    0.724523    0.617591    0.000000
    40  Si    c     0.731383    0.638960    0.451994    0.000000
    41  Si    c     0.330715    0.061546    0.782428    0.000000
    42  Ge    c     0.895678    0.240821    0.115589    0.000000
    43  Si    c     0.323106    0.231248    0.380328    0.000000
    44  Ge    c     0.903203    0.659988    0.042601    0.000000
    45  Si    c     0.737316    0.061757    0.710694    0.000000
    46  Si    c     0.658875    0.721901    0.881618    0.000000
    47  Si    c     0.072946    0.316959    0.546144    0.000000
    48  Si    c     0.237217    0.900690    0.216191    0.000000
    49  Si    c     0.956805    0.111899    0.963468    0.000000
    50  Si    c     0.861488    0.829162    0.301170    0.000000
    51  Si    c     0.136918    0.003559    0.632411    0.000000
    52  Si    c     0.011368    0.856939    0.466821    0.000000
    53  Si    c     0.113598    0.124076    0.798922    0.000000
    54  Si    c     0.836919    0.961039    0.135402    0.000000
    55  Si    c     0.106186    0.951380    0.366204    0.000000
    56  Si    c     0.840859    0.880524    0.033160    0.000000
    57  Si    c     0.017962    0.125597    0.697784    0.000000
    58  Si    c     0.870105    0.003441    0.863978    0.000000
    59  Si    c     0.133431    0.098933    0.531719    0.000000
    60  Si    c     0.956280    0.833997    0.200401    0.000000
    61  O2    c     0.906274    0.006339    0.002413    0.000000
    62  O2    c     0.984388    0.908397    0.333349    0.000000
    63  O2    c     0.061368    0.045959    0.666386    0.000000
    64  O2    c     0.053208    0.977243    0.499582    0.000000
    65  O2    c     0.995001    0.046130    0.832916    0.000000
    66  O2    c     0.911245    0.911335    0.167841    0.000000
    67  O2    c     0.324172    0.559333    0.331466    0.000000
    68  O2    c     0.408489    0.735226    0.663826    0.000000
    69  O2    c     0.232072    0.641070    0.996019    0.000000
    70  O2    c     0.654631    0.397824    0.826488    0.000000
    71  O2    c     0.565361    0.231390    0.171987    0.000000
    72  O2    c     0.744477    0.319439    0.499609    0.000000
    73  O1    c     0.567203    0.327792    0.999742    0.000000
    74  O2    c     0.748638    0.394965    0.664058    0.000000
    75  O2    c     0.644183    0.218302    0.336060    0.000000
    76  O2    c     0.402862    0.636308    0.498139    0.000000
    77  O2    c     0.229685    0.578004    0.164738    0.000000
    78  O2    c     0.336413    0.735438    0.829839    0.000000
    79  O2    c     0.109694    0.192724    0.969306    0.000000
    80  O2    c     0.770584    0.892139    0.306876    0.000000
    81  O2    c     0.073978    0.849643    0.637503    0.000000
    82  O2    c     0.857169    0.765709    0.471870    0.000000
    83  O2    c     0.203632    0.059235    0.802603    0.000000
    84  O3    c     0.902969    0.112421    0.140419    0.000000
    85  O2    c     0.196978    0.105111    0.360328    0.000000
    86  O3    c     0.918339    0.806792    0.025725    0.000000
    87  O2    c     0.863902    0.062090    0.691130    0.000000
    88  O2    c     0.780591    0.849263    0.860005    0.000000
    89  O2    c     0.070685    0.190313    0.526166    0.000000
    90  O2    c     0.111354    0.902783    0.196334    0.000000
    91  O2    c     0.912672    0.842231    0.250643    0.000000
    92  O2    c     0.120404    0.045499    0.582372    0.000000
    93  O2    c     0.916565    0.043573    0.915027    0.000000
    94  O2    c     0.056024    0.113477    0.749012    0.000000
    95  O2    c     0.847584    0.922971    0.084754    0.000000
    96  O2    c     0.052171    0.912428    0.416597    0.000000
    97  O2    c     0.899549    0.206510    0.969962    0.000000
    98  O2    c     0.779566    0.677936    0.313256    0.000000
    99  O2    c     0.289164    0.071099    0.643365    0.000000
   100  O2    c     0.080712    0.774394    0.478765    0.000000
   101  O2    c     0.200421    0.274728    0.811024    0.000000
   102  O2    c     0.684986    0.897490    0.147284    0.000000
   103  O2    c     0.188840    0.882127    0.355091    0.000000
   104  O2    c     0.689604    0.793884    0.020570    0.000000
   105  O2    c     0.086887    0.276587    0.685184    0.000000
   106  O2    c     0.788727    0.071812    0.849398    0.000000
   107  O2    c     0.284599    0.181568    0.519416    0.000000
   108  O2    c     0.892957    0.684684    0.187422    0.000000
   109  O2    c     0.307911    0.631747    0.248986    0.000000
   110  O2    c     0.339882    0.652612    0.581322    0.000000
   111  O2    c     0.314434    0.644932    0.912918    0.000000
   112  O2    c     0.666748    0.325597    0.745849    0.000000
   113  O3    c     0.613384    0.307064    0.086545    0.000000
   114  O2    c     0.660842    0.303373    0.417364    0.000000
   115  O3    c     0.352317    0.293794    0.971484    0.000000
   116  O2    c     0.654884    0.024661    0.306095    0.000000
   117  O2    c     0.943547    0.601918    0.636166    0.000000
   118  O2    c     0.608219    0.648127    0.469556    0.000000
   119  O2    c     0.322207    0.929739    0.801229    0.000000
   120  O3    c     0.036452    0.371046    0.135626    0.000000
   121  O2    c     0.312731    0.353397    0.361545    0.000000
   122  O3    c     0.048726    0.670394    0.026841    0.000000
   123  O2    c     0.614952    0.928932    0.692915    0.000000
   124  O2    c     0.667960    0.600965    0.862554    0.000000
   125  O2    c     0.940421    0.307886    0.527894    0.000000
   126  O2    c     0.359842    0.032614    0.198286    0.000000
   127  O3    c     0.753769    0.280248    0.005119    0.000000
   128  O2    c     0.680020    0.446920    0.344145    0.000000
   129  O2    c     0.520128    0.202043    0.673885    0.000000
   130  O2    c     0.212852    0.673746    0.509158    0.000000
   131  O2    c     0.304359    0.507651    0.842074    0.000000
   132  O2    c     0.454170    0.765181    0.177409    0.000000
   133  O2    c     0.286846    0.750649    0.322732    0.000000
   134  O2    c     0.460739    0.680453    0.984673    0.000000
   135  O2    c     0.217047    0.507827    0.654181    0.000000
   136  O2    c     0.685906    0.201156    0.818960    0.000000
   137  O2    c     0.515752    0.282829    0.489384    0.000000
   138  O2    c     0.755434    0.457748    0.154151    0.000000
   139  O1    c     0.774855    0.541347    0.017074    0.000000
   140  O2    c     0.448666    0.230598    0.361208    0.000000
   141  O2    c     0.736639    0.186664    0.690418    0.000000
   142  O2    c     0.198700    0.441958    0.526410    0.000000
   143  O2    c     0.527483    0.714987    0.863960    0.000000
   144  O2    c     0.233630    0.774485    0.195784    0.000000
   145  O2    c     0.519035    0.766421    0.305316    0.000000
   146  O2    c     0.249725    0.445632    0.969709    0.000000
   147  O2    c     0.202098    0.725140    0.636887    0.000000
   148  O2    c     0.455876    0.188665    0.801350    0.000000
   149  O2    c     0.732663    0.514319    0.472332    0.000000
   150  O3    c     0.762972    0.241281    0.135868    0.000000
   151  O2    c     0.229423    0.305069    0.896474    0.000000
   152  O2    c     0.662911    0.896402    0.232492    0.000000
   153  O2    c     0.075729    0.744122    0.563297    0.000000
   154  O2    c     0.750925    0.655382    0.397731    0.000000
   155  O2    c     0.311869    0.062939    0.728127    0.000000
   156  O3    c     0.900795    0.224726    0.058066    0.000000
   157  O2    c     0.306192    0.211505    0.434636    0.000000
   158  O3    c     0.888364    0.668189    0.101383    0.000000
   159  O2    c     0.758774    0.066042    0.764926    0.000000
   160  O2    c     0.673705    0.737466    0.935799    0.000000
   161  O2    c     0.077186    0.299532    0.600454    0.000000
   162  O2    c     0.218002    0.895147    0.270504    0.000000
   163  O3    c     0.587173    0.553197    0.999395    0.000000
   164  O2    c     0.426909    0.007772    0.326677    0.000000
   165  O2    c     0.958938    0.388109    0.655995    0.000000
   166  O2    c     0.394231    0.419403    0.489483    0.000000
   167  O2    c     0.551593    0.942178    0.820280    0.000000
   168  O2    c     0.010063    0.572764    0.149281    0.000000
   169  O2    c     0.541415    0.566709    0.341901    0.000000
   170  O2    c     0.008726    0.436356    0.006368    0.000000
   171  O2    c     0.400736    0.944366    0.672663    0.000000
   172  O2    c     0.439367    0.388745    0.843538    0.000000
   173  O2    c     0.954982    0.536411    0.507867    0.000000
   174  O2    c     0.576527    0.022827    0.178627    0.000000
   175  O2    c     0.566995    0.149917    0.253522    0.000000
   176  O2    c     0.820923    0.394872    0.581928    0.000000
   177  O3    c     0.593967    0.389822    0.911997    0.000000
   178  O2    c     0.406099    0.806815    0.746700    0.000000
   179  O2    c     0.148206    0.565943    0.079704    0.000000
   180  O2    c     0.399093    0.561022    0.415118    0.000000
   181  F     c     0.435967    0.888447    0.251038    0.000000
   182  F     c     0.081229    0.524338    0.582005    0.000000
   183  F     c     0.467567    0.500991    0.925286    0.000000
   184  F     c     0.535484    0.065297    0.746818    0.000000
   185  F     c     0.853211    0.435265    0.072292    0.000000
   186  F     c     0.530939    0.431283    0.416251    0.000000
   187  O2    s     0.904575    0.004116    0.001393    0.000000
   188  O2    s     0.984297    0.904350    0.333434    0.000000
   189  O2    s     0.064936    0.050131    0.666108    0.000000
   190  O2    s     0.057503    0.977436    0.499523    0.000000
   191  O2    s     0.994435    0.050054    0.832557    0.000000
   192  O2    s     0.908057    0.908089    0.167926    0.000000
   193  O2    s     0.335898    0.567030    0.331598    0.000000
   194  O2    s     0.400887    0.739526    0.663827    0.000000
   195  O2    s     0.227773    0.629864    0.996030    0.000000
   196  O2    s     0.643294    0.388973    0.827026    0.000000
   197  O2    s     0.571145    0.225649    0.171432    0.000000
   198  O2    s     0.748906    0.331405    0.499539    0.000000
   199  O1    s     0.573812    0.337782    0.999580    0.000000
   200  O2    s     0.752980    0.387270    0.664100    0.000000
   201  O2    s     0.632209    0.214282    0.335906    0.000000
   202  O2    s     0.395346    0.624473    0.498252    0.000000
   203  O2    s     0.224879    0.584333    0.164858    0.000000
   204  O2    s     0.347725    0.739189    0.830083    0.000000
   205  O2    s     0.106630    0.196595    0.966746    0.000000
   206  O2    s     0.767177    0.885643    0.304216    0.000000
   207  O2    s     0.080735    0.853031    0.634942    0.000000
   208  O2    s     0.860545    0.762325    0.469317    0.000000
   209  O2    s     0.207145    0.066329    0.800168    0.000000
   210  O3    s     0.895619    0.106783    0.138004    0.000000
   211  O2    s     0.200383    0.101879    0.362981    0.000000
   212  O3    s     0.909317    0.803254    0.027741    0.000000
   213  O2    s     0.867149    0.068771    0.693825    0.000000
   214  O2    s     0.777575    0.852503    0.862620    0.000000
   215  O2    s     0.077566    0.193687    0.528788    0.000000
   216  O2    s     0.108038    0.895319    0.198800    0.000000
   217  O2    s     0.911771    0.839821    0.250734    0.000000
   218  O2    s     0.123722    0.046762    0.582326    0.000000
   219  O2    s     0.915760    0.046596    0.914596    0.000000
   220  O2    s     0.058243    0.116010    0.748894    0.000000
   221  O2    s     0.845612    0.922577    0.084774    0.000000
   222  O2    s     0.053647    0.910545    0.416594    0.000000
   223  O2    s     0.904662    0.204649    0.973355    0.000000
   224  O2    s     0.778165    0.684068    0.315883    0.000000
   225  O2    s     0.282898    0.063661    0.646133    0.000000
   226  O2    s     0.073250    0.773016    0.481404    0.000000
   227  O2    s     0.201298    0.268686    0.813679    0.000000
   228  O2    s     0.690681    0.903910    0.150093    0.000000
   229  O2    s     0.190083    0.889722    0.352362    0.000000
   230  O2    s     0.696162    0.791700    0.018216    0.000000
   231  O2    s     0.079265    0.270440    0.682621    0.000000
   232  O2    s     0.787175    0.064222    0.846993    0.000000
   233  O2    s     0.278306    0.182877    0.516820    0.000000
   234  O2    s     0.899140    0.691450    0.184669    0.000000
   235  O2    s     0.313795    0.643576    0.249114    0.000000
   236  O2    s     0.328114    0.646796    0.581343    0.000000
   237  O2    s     0.320646    0.640955    0.912983    0.000000
   238  O2    s     0.660805    0.314073    0.745846    0.000000
   239  O3    s     0.625656    0.311891    0.088344    0.000000
   240  O2    s     0.654840    0.309217    0.417311    0.000000
   241  O3    s     0.350575    0.303457    0.968680    0.000000
   242  O2    s     0.644868    0.018128    0.303831    0.000000
   243  O2    s     0.950288    0.598746    0.633850    0.000000
   244  O2    s     0.605072    0.638157    0.467354    0.000000
   245  O2    s     0.332113    0.936304    0.798866    0.000000
   246  O3    s     0.032323    0.376311    0.133660    0.000000
   247  O2    s     0.322704    0.356631    0.363796    0.000000
   248  O3    s     0.043451    0.660026    0.028132    0.000000
   249  O2    s     0.611701    0.935764    0.695077    0.000000
   250  O2    s     0.659184    0.598694    0.864706    0.000000
   251  O2    s     0.947290    0.317846    0.530148    0.000000
   252  O2    s     0.362845    0.025825    0.200586    0.000000
   253  O3    s     0.765245    0.287653    0.007801    0.000000
   254  O2    s     0.672392    0.446348    0.347273    0.000000
   255  O2    s     0.520885    0.194981    0.676997    0.000000
   256  O2    s     0.205822    0.666068    0.512265    0.000000
   257  O2    s     0.310927    0.508456    0.845045    0.000000
   258  O2    s     0.453554    0.771782    0.180648    0.000000
   259  O2    s     0.294635    0.758018    0.319723    0.000000
   260  O2    s     0.459002    0.672093    0.982534    0.000000
   261  O2    s     0.209879    0.508375    0.651075    0.000000
   262  O2    s     0.678704    0.194367    0.815796    0.000000
   263  O2    s     0.516265    0.290420    0.486213    0.000000
   264  O2    s     0.761706    0.457855    0.151308    0.000000
   265  O1    s     0.781685    0.541467    0.020273    0.000000
   266  O2    s     0.451272    0.238392    0.363833    0.000000
   267  O2    s     0.729091    0.181697    0.693128    0.000000
   268  O2    s     0.193526    0.444582    0.529013    0.000000
   269  O2    s     0.524767    0.708696    0.865750    0.000000
   270  O2    s     0.242137    0.779811    0.198334    0.000000
   271  O2    s     0.516352    0.771789    0.302769    0.000000
   272  O2    s     0.256178    0.449176    0.967457    0.000000
   273  O2    s     0.196741    0.717286    0.634291    0.000000
   274  O2    s     0.458406    0.183326    0.798818    0.000000
   275  O2    s     0.724798    0.511666    0.469648    0.000000
   276  O3    s     0.766522    0.247811    0.133922    0.000000
   277  O2    s     0.238212    0.313077    0.896857    0.000000
   278  O2    s     0.653303    0.896137    0.233396    0.000000
   279  O2    s     0.076088    0.734835    0.564203    0.000000
   280  O2    s     0.741521    0.645848    0.398641    0.000000
   281  O2    s     0.321619    0.063387    0.729054    0.000000
   282  O3    s     0.899197    0.232022    0.058549    0.000000
   283  O2    s     0.315783    0.220848    0.433760    0.000000
   284  O3    s     0.889214    0.659697    0.101576    0.000000
   285  O2    s     0.749161    0.065971    0.764021    0.000000
   286  O2    s     0.665012    0.730587    0.934566    0.000000
   287  O2    s     0.077423    0.309132    0.599581    0.000000
   288  O2    s     0.227271    0.894683    0.269597    0.000000
   289  O3    s     0.584167    0.559173    0.995552    0.000000
   290  O2    s     0.426528    0.003361    0.323204    0.000000
   291  O2    s     0.963852    0.392747    0.652587    0.000000
   292  O2    s     0.398946    0.419124    0.486147    0.000000
   293  O2    s     0.551382    0.947397    0.816900    0.000000
   294  O2    s     0.006930    0.569457    0.147054    0.000000
   295  O2    s     0.541641    0.562071    0.345280    0.000000
   296  O2    s     0.006810    0.436570    0.009158    0.000000
   297  O2    s     0.405409    0.949180    0.676070    0.000000
   298  O2    s     0.437961    0.392117    0.846205    0.000000
   299  O2    s     0.959961    0.536682    0.511261    0.000000
   300  O2    s     0.571570    0.017407    0.181855    0.000000
   301  O2    s     0.561733    0.139059    0.253431    0.000000
   302  O2    s     0.832042    0.400354    0.581906    0.000000
   303  O3    s     0.588674    0.396924    0.909847    0.000000
   304  O2    s     0.411876    0.818043    0.746739    0.000000
   305  O2    s     0.139380    0.562456    0.079827    0.000000
   306  O2    s     0.404644    0.555603    0.415150    0.000000
   307  F     s     0.435558    0.887790    0.251003    0.000000
   308  F     s     0.081589    0.524535    0.582032    0.000000
   309  F     s     0.471309    0.495030    0.927824    0.000000
   310  F     s     0.535439    0.065266    0.746856    0.000000
   311  F     s     0.845173    0.432741    0.070317    0.000000
   312  F     s     0.531188    0.431064    0.416259    0.000000
--------------------------------------------------------------------------------

  Final Cartesian lattice vectors (Angstroms) :

       11.963794   -0.003546   -0.011792
       -5.986998   10.408042    0.012018
       -0.265641    0.166263   29.481813


  Final cell parameters and derivatives :

--------------------------------------------------------------------------------
       a           11.963800 Angstrom     dE/de1(xx)     0.001006 eV/strain
       b           12.007149 Angstrom     dE/de2(yy)     0.001022 eV/strain
       c           29.483479 Angstrom     dE/de3(zz)     0.000792 eV/strain
       alpha       89.405175 Degrees      dE/de4(yz)    -0.000197 eV/strain
       beta        90.572802 Degrees      dE/de5(xz)     0.000268 eV/strain
       gamma      119.925733 Degrees      dE/de6(xy)    -0.000078 eV/strain
--------------------------------------------------------------------------------

  Primitive cell volume =          3670.395050 Angs**3

  Density of cell =      1.763304 g/cm**3

  Non-primitive cell volume =          3670.395050 Angs**3


  Final internal derivatives :

--------------------------------------------------------------------------------
   No.  Atomic          a             b             c           Radius
        Label          (eV)          (eV)          (eV)        (eV/Angs)
--------------------------------------------------------------------------------
      1 Ge    c       0.000000      0.000000      0.000000      0.000000
      2 Si    c       0.000194     -0.000080      0.000346      0.000000
      3 Si    c      -0.000075      0.000400      0.000469      0.000000
      4 Si    c       0.000027      0.000248     -0.000586      0.000000
      5 Si    c      -0.000306      0.000356      0.000107      0.000000
      6 Si    c      -0.000191     -0.000092      0.000824      0.000000
      7 Si    c      -0.000279      0.000196     -0.000902      0.000000
      8 Si    c       0.000264      0.000257     -0.000169      0.000000
      9 Si    c       0.000198     -0.000021     -0.001500      0.000000
     10 Si    c       0.000125      0.000136     -0.001578      0.000000
     11 Si    c      -0.000114      0.000045     -0.001221      0.000000
     12 Si    c       0.000549     -0.000054      0.002642      0.000000
     13 Ge    c      -0.000707     -0.000029     -0.001812      0.000000
     14 Si    c       0.000078     -0.000072     -0.001053      0.000000
     15 Si    c      -0.000188      0.000088     -0.001508      0.000000
     16 Si    c       0.000319     -0.000087     -0.000627      0.000000
     17 Si    c      -0.000168      0.000272     -0.001116      0.000000
     18 Si    c      -0.000135      0.000114      0.003597      0.000000
     19 Si    c       0.000064     -0.000178      0.000456      0.000000
     20 Si    c       0.000386      0.000225     -0.000878      0.000000
     21 Si    c       0.000027      0.000029      0.000112      0.000000
     22 Si    c      -0.000271      0.000192     -0.001467      0.000000
     23 Si    c      -0.000058     -0.000214     -0.000409      0.000000
     24 Si    c       0.000459     -0.000405      0.000102      0.000000
     25 Si    c      -0.000222      0.000063      0.000123      0.000000
     26 Si    c       0.000324     -0.000241      0.001207      0.000000
     27 Si    c      -0.000043      0.000089      0.000166      0.000000
     28 Si    c       0.000283      0.000044      0.000138      0.000000
     29 Si    c      -0.000100      0.000359      0.000339      0.000000
     30 Si    c       0.000741     -0.000656      0.000656      0.000000
     31 Si    c       0.000009      0.000024     -0.000408      0.000000
     32 Si    c       0.000146      0.000223      0.001615      0.000000
     33 Si    c      -0.000025      0.000297     -0.000591      0.000000
     34 Si    c      -0.000486      0.000259      0.001894      0.000000
     35 Si    c       0.000045     -0.000058     -0.000545      0.000000
     36 Si    c      -0.000247      0.000122     -0.000171      0.000000
     37 Si    c       0.000182     -0.000308     -0.001872      0.000000
     38 Si    c       0.000004      0.000172     -0.000621      0.000000
     39 Si    c      -0.000080      0.000312     -0.000649      0.000000
     40 Si    c       0.000070      0.000009      0.000878      0.000000
     41 Si    c      -0.000077      0.000272     -0.000268      0.000000
     42 Ge    c      -0.000196     -0.000034      0.004289      0.000000
     43 Si    c      -0.000045      0.000047      0.000638      0.000000
[...]
     58 Si    c      -0.000324      0.000487     -0.000664      0.000000
     59 Si    c      -0.000008      0.000095     -0.000425      0.000000
     60 Si    c       0.000168      0.000041     -0.000087      0.000000
     61 O2    c       0.000200     -0.000542      0.001048      0.000000
     62 O2    c       0.000096      0.000087     -0.001007      0.000000
     63 O2    c      -0.000155      0.000367     -0.000957      0.000000
     64 O2    c       0.000041     -0.000093     -0.001990      0.000000
     65 O2    c      -0.000462      0.000112     -0.000143      0.000000
     66 O2    c       0.000021     -0.000088      0.000041      0.000000
     67 O2    c      -0.000305      0.000241      0.001404      0.000000
     68 O2    c       0.000196      0.000258      0.001637      0.000000
     69 O2    c       0.000068      0.000256      0.001099      0.000000
     70 O2    c      -0.000306      0.000513      0.000629      0.000000
     71 O2    c       0.000061     -0.000236      0.001163      0.000000
     72 O2    c       0.000355     -0.000223      0.003377      0.000000
     73 O1    c      -0.000074     -0.000849      0.003533      0.000000
     74 O2    c      -0.000332      0.000333      0.002944      0.000000
     75 O2    c       0.000118      0.000076      0.002193      0.000000
     76 O2    c      -0.000374      0.000514      0.001209      0.000000
     77 O2    c       0.000008     -0.000183      0.002173      0.000000
     78 O2    c      -0.000172      0.000066      0.001148      0.000000
     79 O2    c       0.000191      0.000023     -0.000266      0.000000
     80 O2    c       0.000082      0.000089      0.000379      0.000000
     81 O2    c      -0.000068      0.000304     -0.000690      0.000000
     82 O2    c       0.000025      0.000055      0.001173      0.000000
     83 O2    c      -0.000065      0.000233     -0.001872      0.000000
     84 O3    c      -0.000223      0.000122      0.004564      0.000000
     85 O2    c      -0.000013      0.000137      0.000374      0.000000
     86 O3    c       0.001299     -0.001245      0.002964      0.000000
     87 O2    c      -0.000093      0.000167     -0.000916      0.000000
     88 O2    c      -0.000244      0.000195     -0.000198      0.000000
     89 O2    c       0.000031      0.000204      0.000511      0.000000
     90 O2    c       0.000083     -0.000134     -0.001318      0.000000
     91 O2    c       0.000215      0.000393     -0.000126      0.000000
     92 O2    c       0.000143      0.000385     -0.001670      0.000000
     93 O2    c       0.000025      0.000292      0.000060      0.000000
     94 O2    c       0.000200      0.000284      0.000437      0.000000
     95 O2    c       0.000193     -0.000054      0.000011      0.000000
     96 O2    c       0.000197      0.000183     -0.002922      0.000000
     97 O2    c      -0.000025      0.000121      0.000176      0.000000
     98 O2    c       0.000033      0.000025      0.000027      0.000000
     99 O2    c      -0.000250      0.000347     -0.001814      0.000000
    100 O2    c      -0.000186      0.000276     -0.002852      0.000000
    101 O2    c      -0.000318      0.000377      0.001097      0.000000
    102 O2    c       0.000251     -0.000525      0.001288      0.000000
    103 O2    c       0.000024     -0.000029     -0.002868      0.000000
    104 O2    c      -0.000412     -0.000297      0.000661      0.000000
    105 O2    c       0.000137     -0.000156      0.001325      0.000000
    106 O2    c      -0.000104      0.000191     -0.000056      0.000000
    107 O2    c       0.000215      0.000094     -0.002010      0.000000
    108 O2    c       0.000303     -0.000366      0.000024      0.000000
    109 O2    c       0.000010     -0.000101      0.001812      0.000000
    110 O2    c      -0.000014      0.000282      0.001452      0.000000
    111 O2    c      -0.000140      0.000318      0.001195      0.000000
    112 O2    c      -0.000111      0.000327      0.002174      0.000000
    113 O3    c      -0.000228     -0.000147      0.001211      0.000000
    114 O2    c      -0.000096      0.000233      0.003123      0.000000
    115 O3    c       0.000412     -0.000172     -0.004562      0.000000
    116 O2    c      -0.000052      0.000062      0.000439      0.000000
    117 O2    c      -0.000221      0.000109     -0.000443      0.000000
    118 O2    c       0.000042      0.000166      0.000326      0.000000
    119 O2    c       0.000107      0.000003     -0.000902      0.000000
    120 O3    c      -0.000013      0.000463      0.007318      0.000000
    121 O2    c      -0.000180      0.000378     -0.000334      0.000000
    122 O3    c      -0.000096      0.000661     -0.003887      0.000000
    123 O2    c      -0.000220      0.000086      0.000044      0.000000
    124 O2    c      -0.000203      0.000198      0.000062      0.000000
    125 O2    c      -0.000161      0.000303     -0.000072      0.000000
    126 O2    c       0.000285     -0.000133     -0.000685      0.000000
    127 O3    c       0.001041     -0.000872     -0.003329      0.000000
    128 O2    c      -0.000059      0.000202      0.000449      0.000000
    129 O2    c      -0.000301      0.000317     -0.000017      0.000000
    130 O2    c      -0.000191      0.000100     -0.000438      0.000000
    131 O2    c      -0.000419      0.000241      0.000785      0.000000
    132 O2    c       0.000114     -0.000234      0.000130      0.000000
    133 O2    c      -0.000030      0.000181      0.000566      0.000000
    134 O2    c       0.000079     -0.000126      0.000163      0.000000
    135 O2    c       0.000017     -0.000049      0.000297      0.000000
    136 O2    c      -0.000117      0.000140      0.000345      0.000000
    137 O2    c       0.000106      0.000033      0.000527      0.000000
    138 O2    c       0.000057     -0.000105      0.000385      0.000000
    139 O1    c      -0.000291      0.000918      0.008231      0.000000
    140 O2    c       0.000059      0.000041     -0.000604      0.000000
    141 O2    c      -0.000044      0.000213      0.000277      0.000000
    142 O2    c       0.000083      0.000213     -0.000191      0.000000
    143 O2    c      -0.000290      0.000189     -0.000121      0.000000
    144 O2    c       0.000196     -0.000225      0.000203      0.000000
    145 O2    c       0.000009     -0.000094     -0.000238      0.000000
    146 O2    c      -0.000114      0.000129      0.000182      0.000000
    147 O2    c       0.000155      0.000152     -0.000482      0.000000
    148 O2    c      -0.000136      0.000301     -0.001187      0.000000
    149 O2    c       0.000009     -0.000047      0.000540      0.000000
    150 O3    c       0.000395     -0.000188      0.004988      0.000000
    151 O2    c      -0.000133      0.000031      0.001594      0.000000
    152 O2    c      -0.000058      0.000065      0.001560      0.000000
    153 O2    c       0.000162      0.000041     -0.002521      0.000000
    154 O2    c       0.000093      0.000118     -0.000266      0.000000
    155 O2    c      -0.000019      0.000098     -0.002065      0.000000
    156 O3    c      -0.000649      0.000664     -0.007384      0.000000
    157 O2    c       0.000093      0.000012     -0.000932      0.000000
    158 O3    c      -0.000473      0.001099      0.004054      0.000000
    159 O2    c      -0.000279      0.000410      0.000145      0.000000
    160 O2    c       0.000050      0.000256     -0.001055      0.000000
    161 O2    c      -0.000279      0.000284      0.003012      0.000000
    162 O2    c       0.000058     -0.000201     -0.002988      0.000000
    163 O3    c      -0.000351      0.000654      0.005929      0.000000
    164 O2    c      -0.000066      0.000122     -0.000882      0.000000
    165 O2    c       0.000317     -0.000176      0.000564      0.000000
    166 O2    c       0.000288     -0.000196      0.000389      0.000000
    167 O2    c      -0.000146      0.000275     -0.000465      0.000000
    168 O2    c       0.000103     -0.000344      0.000846      0.000000
    169 O2    c       0.000086      0.000227     -0.000239      0.000000
    170 O2    c       0.000514      0.000030     -0.000797      0.000000
    171 O2    c      -0.000343      0.000465      0.000027      0.000000
    172 O2    c      -0.000148      0.000398     -0.000618      0.000000
    173 O2    c       0.000020      0.000075     -0.000274      0.000000
    174 O2    c       0.000084     -0.000243      0.001306      0.000000
    175 O2    c       0.000318     -0.000142      0.001751      0.000000
    176 O2    c      -0.000369      0.000339      0.003454      0.000000
    177 O3    c      -0.000299     -0.000091      0.003449      0.000000
    178 O2    c      -0.000134      0.000095      0.001066      0.000000
    179 O2    c       0.000473      0.000262      0.001288      0.000000
    180 O2    c       0.000413     -0.000209      0.001634      0.000000
    181 F     c       0.000114     -0.000064     -0.000406      0.000000
    182 F     c      -0.000199      0.000079     -0.001102      0.000000
    183 F     c      -0.000235     -0.000019      0.000495      0.000000
    184 F     c      -0.000115      0.000294      0.000730      0.000000
    185 F     c      -0.000156      0.001006     -0.001164      0.000000
    186 F     c       0.000054      0.000067      0.000791      0.000000
    187 O2    s       0.000055     -0.000397     -0.000505      0.000000
    188 O2    s      -0.000170      0.000040      0.001259      0.000000
    189 O2    s       0.000190     -0.000034      0.001419      0.000000
    190 O2    s       0.000139     -0.000048      0.002315      0.000000
    191 O2    s       0.000058      0.000254      0.000031      0.000000
    192 O2    s       0.000367     -0.000164     -0.000515      0.000000
    193 O2    s       0.000515     -0.000533     -0.001358      0.000000
    194 O2    s      -0.000403      0.000385     -0.001082      0.000000
    195 O2    s       0.000276      0.000228     -0.000457      0.000000
    196 O2    s      -0.000199      0.000474      0.000159      0.000000
    197 O2    s      -0.000118     -0.000002     -0.001571      0.000000
    198 O2    s       0.000046      0.000088     -0.003364      0.000000
    199 O1    s       0.000531      0.000636     -0.003749      0.000000
    200 O2    s      -0.000017     -0.000004     -0.003347      0.000000
    201 O2    s      -0.000065      0.000421     -0.002411      0.000000
    202 O2    s       0.000446     -0.000158     -0.000806      0.000000
    203 O2    s       0.000417     -0.000328     -0.003105      0.000000
    204 O2    s      -0.000240      0.000385     -0.000980      0.000000
    205 O2    s       0.000148      0.000051      0.000504      0.000000
    206 O2    s      -0.000102      0.000122     -0.000430      0.000000
    207 O2    s       0.000030     -0.000158      0.001084      0.000000
    208 O2    s       0.000039      0.000129     -0.001740      0.000000
    209 O2    s       0.000031      0.000198      0.002548      0.000000
    210 O3    s       0.000225     -0.000141     -0.006649      0.000000
    211 O2    s       0.000297     -0.000045     -0.000658      0.000000
    212 O3    s      -0.000198      0.000211     -0.004231      0.000000
    213 O2    s      -0.000223      0.000193      0.001695      0.000000
    214 O2    s      -0.000254      0.000091      0.000490      0.000000
    215 O2    s      -0.000082      0.000224     -0.000037      0.000000
    216 O2    s       0.000378      0.000118      0.001761      0.000000
    217 O2    s       0.000265      0.000368      0.000413      0.000000
    218 O2    s       0.000022      0.000341      0.001233      0.000000
    219 O2    s      -0.000151      0.000169     -0.000524      0.000000
    220 O2    s      -0.000186      0.000382     -0.000334      0.000000
    221 O2    s      -0.000127      0.000976      0.000202      0.000000
    222 O2    s       0.000148      0.000043      0.002024      0.000000
    223 O2    s      -0.000398      0.000240     -0.000775      0.000000
    224 O2    s       0.000115      0.000061     -0.000053      0.000000
    225 O2    s       0.000046      0.000145      0.002278      0.000000
    226 O2    s       0.000060      0.000126      0.002951      0.000000
    227 O2    s      -0.000164      0.000210     -0.001424      0.000000
    228 O2    s      -0.000325      0.000044     -0.002039      0.000000
    229 O2    s       0.000223     -0.000214      0.003614      0.000000
    230 O2    s       0.000186      0.000209     -0.000925      0.000000
    231 O2    s      -0.000361      0.000519     -0.001052      0.000000
    232 O2    s      -0.000375      0.000493      0.000307      0.000000
    233 O2    s       0.000066      0.000163      0.002733      0.000000
    234 O2    s      -0.000008     -0.000213     -0.000563      0.000000
    235 O2    s       0.000189     -0.000271     -0.001113      0.000000
    236 O2    s      -0.000104      0.000353     -0.000436      0.000000
    237 O2    s       0.000143      0.000286     -0.001021      0.000000
    238 O2    s      -0.000044      0.000310     -0.001681      0.000000
    239 O3    s       0.000986      0.000372     -0.002702      0.000000
    240 O2    s       0.000303     -0.000028     -0.002300      0.000000
    241 O3    s      -0.000510      0.000354      0.006069      0.000000
    242 O2    s       0.000211     -0.000213     -0.000453      0.000000
    243 O2    s       0.000071      0.000326      0.000894      0.000000
    244 O2    s       0.000052      0.000151     -0.000390      0.000000
    245 O2    s      -0.000578      0.000497      0.001541      0.000000
    246 O3    s       0.000741     -0.000783     -0.009907      0.000000
    247 O2    s       0.000431     -0.000180      0.000309      0.000000
    248 O3    s       0.000455     -0.000453      0.005178      0.000000
    249 O2    s      -0.000096      0.000264      0.000023      0.000000
    250 O2    s      -0.000201      0.000306      0.000381      0.000000
    251 O2    s       0.000215     -0.000324      0.000474      0.000000
    252 O2    s      -0.000019      0.000079      0.000491      0.000000
    253 O3    s      -0.000698      0.001757      0.004845      0.000000
    254 O2    s       0.000263     -0.000012     -0.000693      0.000000
    255 O2    s       0.000204      0.000019      0.000111      0.000000
    256 O2    s       0.000479     -0.000038      0.000702      0.000000
    257 O2    s      -0.000294      0.000298     -0.000965      0.000000
    258 O2    s       0.000102     -0.000310     -0.000609      0.000000
    259 O2    s       0.000268     -0.000368     -0.000432      0.000000
    260 O2    s       0.000130      0.000132     -0.000274      0.000000
    261 O2    s      -0.000365      0.000620     -0.000308      0.000000
    262 O2    s      -0.000225      0.000649     -0.000044      0.000000
    263 O2    s      -0.000033     -0.000054     -0.000237      0.000000
    264 O2    s      -0.000192      0.000142     -0.000018      0.000000
    265 O1    s       0.000644     -0.001171     -0.009490      0.000000
    266 O2    s       0.000101      0.000009      0.000615      0.000000
    267 O2    s      -0.000015      0.000117     -0.000187      0.000000
    268 O2    s       0.000139     -0.000042      0.000374      0.000000
    269 O2    s       0.000020      0.000217      0.000536      0.000000
    270 O2    s      -0.000004     -0.000059     -0.000405      0.000000
    271 O2    s       0.000116     -0.000094      0.000766      0.000000
    272 O2    s       0.000045     -0.000033      0.000454      0.000000
    273 O2    s      -0.000397      0.000389      0.000811      0.000000
    274 O2    s      -0.000344      0.000354      0.001873      0.000000
    275 O2    s       0.000202      0.000172     -0.000758      0.000000
    276 O3    s      -0.000286     -0.000085     -0.006781      0.000000
    277 O2    s      -0.000234      0.000044     -0.001067      0.000000
    278 O2    s       0.000325     -0.000414     -0.000992      0.000000
    279 O2    s      -0.000067      0.000252      0.002384      0.000000
    280 O2    s       0.000140      0.000188     -0.000019      0.000000
    281 O2    s      -0.000281      0.000315      0.001352      0.000000
    282 O3    s       0.000753     -0.000706      0.006060      0.000000
    283 O2    s       0.000021     -0.000030      0.000542      0.000000
    284 O3    s       0.001670     -0.000663     -0.003265      0.000000
    285 O2    s       0.000140      0.000095     -0.000274      0.000000
    286 O2    s       0.000062      0.000075      0.000815      0.000000
    287 O2    s       0.000017     -0.000045     -0.002020      0.000000
    288 O2    s      -0.000118      0.000083      0.002123      0.000000
    289 O3    s       0.000872     -0.000861     -0.008290      0.000000
    290 O2    s       0.000111      0.000054      0.001576      0.000000
    291 O2    s      -0.000641      0.000548     -0.000408      0.000000
    292 O2    s      -0.000329      0.000482     -0.000021      0.000000
    293 O2    s      -0.000277      0.000150      0.001314      0.000000
    294 O2    s       0.000327      0.000213     -0.001323      0.000000
    295 O2    s      -0.000029      0.000069      0.000153      0.000000
    296 O2    s       0.000388     -0.000071      0.000991      0.000000
    297 O2    s       0.000119     -0.000317      0.000105      0.000000
    298 O2    s      -0.000170      0.000074      0.000861      0.000000
    299 O2    s      -0.000188      0.000039      0.000098      0.000000
    300 O2    s       0.000044      0.000328     -0.002085      0.000000
    301 O2    s       0.000063      0.000233     -0.000936      0.000000
    302 O2    s       0.000099     -0.000289     -0.002206      0.000000
    303 O3    s      -0.000278      0.000202     -0.002360      0.000000
    304 O2    s      -0.000417      0.000274     -0.000431      0.000000
    305 O2    s       0.000069      0.000109     -0.001187      0.000000
    306 O2    s      -0.000345      0.000666     -0.001301      0.000000
    307 F     s       0.000069     -0.000102      0.000474      0.000000
    308 F     s      -0.000108      0.000090      0.001340      0.000000
    309 F     s       0.000291      0.000182      0.000112      0.000000
    310 F     s      -0.000115      0.000223     -0.000865      0.000000
    311 F     s       0.001185     -0.000335     -0.000272      0.000000
    312 F     s       0.000059      0.000102     -0.000920      0.000000
--------------------------------------------------------------------------------
  Maximum abs         0.001670      0.001757      0.009907      0.000000
--------------------------------------------------------------------------------


  Time to end of optimisation =     458.0111 seconds


  Peak dynamic memory used =      19.13 MB 


  Timing analysis for GULP :

--------------------------------------------------------------------------------
  Task / Subroutine                                          Time (Seconds)
--------------------------------------------------------------------------------
  Calculation of reciprocal space energy and derivatives          8.5906
  Calculation of real space energy and derivatives              249.3030
  Calculation of three-body energy and derivatives               27.7284
  Global summation overhead                                       0.0002
--------------------------------------------------------------------------------
  Total CPU time                                                458.0111
--------------------------------------------------------------------------------


  Dump file written as out.res                                                 
  CIF file written as out.cif                                                 


  Job Finished at 16:41.46  8th December   2016                               

