********************************************************************************
*                       GENERAL UTILITY LATTICE PROGRAM                        *
*                                 Julian Gale                                  *
*                      Nanochemistry Research Institute                        *
*                           Department of Chemistry                            *
*                    Curtin University, Western Australia                      *
********************************************************************************
* Version = 4.2.0 * Last modified =  20th January 2014                         *
********************************************************************************
*  optimise     - perform optimisation run                                     *
*  conp         - constant pressure calculation                                *
*  qok          - running with non charge neutral cell is OK                   *
********************************************************************************

  Job Started  at 16:38.23 25th October    2016                               

  Number of CPUs =     1


  Total number of configurations input =   1

********************************************************************************
*  Input for Configuration =   1                                               *
********************************************************************************

  Formula = Ge3Si57O120F6                                               

  Number of irreducible atoms/shells =     312


  Total number atoms/shells =     312

  Dimensionality = 3               :  Bulk   


  Charge on solid   =  -6.000000 =>neutralising background added


  Cartesian lattice vectors (Angstroms) :

       11.911960    0.000000    0.000000
       -6.086952   10.422543    0.000000
       -0.004498   -0.127511   29.476458

  Cell parameters (Angstroms/Degrees):

  a =      11.9120    alpha =  90.2096
  b =      12.0698    beta  =  90.0087
  c =      29.4767    gamma = 120.2857

  Initial cell volume =        3659.588250 Angs**3

  Temperature of configuration =  0.000     K 

  Pressure of configuration =         0.000 GPa 

  Fractional coordinates of asymmetric unit :

--------------------------------------------------------------------------------
   No.  Atomic       x           y          z         Charge      Occupancy
        Label      (Frac)      (Frac)     (Frac)        (e)         (Frac)  
--------------------------------------------------------------------------------
      1 Ge    c    0.699600    0.375700    0.033890     4.00000    1.000000    
      2 Si    c    0.613227 *  0.319496 *  0.363227 *   4.00000    1.000000    
      3 Si    c    0.680488 *  0.298293 *  0.697093 *   4.00000    1.000000    
      4 Ge    c    0.274092 *  0.609200 *  0.531780 *   4.00000    1.000000    
      5 Si    c    0.373583 *  0.675528 *  0.861406 *   4.00000    1.000000    
      6 Si    c    0.310032 *  0.698682 *  0.195747 *   4.00000    1.000000    
      7 Si    c    0.363678 *  0.692309 *  0.296320 *   4.00000    1.000000    
      8 Si    c    0.318834 *  0.625249 *  0.961701 *   4.00000    1.000000    
      9 Si    c    0.311703 *  0.682518 *  0.629733 *   4.00000    1.000000    
     10 Si    c    0.625272 *  0.301479 *  0.797507 *   4.00000    1.000000    
     11 Si    c    0.667116 *  0.378244 *  0.463224 *   4.00000    1.000000    
     12 Si    c    0.678705 *  0.312206 *  0.131909 *   4.00000    1.000000    
     13 Si    c    0.537538 *  0.425677 *  0.964662 *   4.00000    1.000000    
     14 Si    c    0.573283 *  0.104283 *  0.301249 *   4.00000    1.000000    
     15 Si    c    0.888829 *  0.470181 *  0.630318 *   4.00000    1.000000    
     16 Si    c    0.451387 *  0.577135 *  0.462991 *   4.00000    1.000000    
     17 Si    c    0.416796 *  0.889678 *  0.798864 *   4.00000    1.000000    
     18 Si    c    0.100677 *  0.527418 *  0.128177 *   4.00000    1.000000    
     19 Si    c    0.403507 *  0.520427 *  0.360320 *   4.00000    1.000000    
     20 Si    c    0.100305 *  0.580002 *  0.025105 *   4.00000    1.000000    
     21 Si    c    0.472770 *  0.891457 *  0.697479 *   4.00000    1.000000    
     22 Si    c    0.583699 *  0.473088 *  0.861950 *   4.00000    1.000000    
     23 Si    c    0.881571 *  0.414414 *  0.527051 *   4.00000    1.000000    
     24 Si    c    0.519415 *  0.105864 *  0.199995 *   4.00000    1.000000    
     25 Si    c    0.299420 *  0.400511 *  0.847646 *   4.00000    1.000000    
     26 Si    c    0.590983 *  0.900679 *  0.182903 *   4.00000    1.000000    
     27 Si    c    0.092518 *  0.700607 *  0.510100 *   4.00000    1.000000    
     28 Si    c    0.686725 *  0.592635 *  0.346771 *   4.00000    1.000000    
     29 Si    c    0.400313 *  0.096895 *  0.681687 *   4.00000    1.000000    
     30 Si    c    0.886776 *  0.293193 *  0.009012 *   4.00000    1.000000    
     31 Si    c    0.386303 *  0.298622 *  0.476409 *   4.00000    1.000000    
     32 Si    c    0.884671 *  0.597160 *  0.142141 *   4.00000    1.000000    
     33 Si    c    0.700375 *  0.100454 *  0.812775 *   4.00000    1.000000    
     34 Si    c    0.599737 *  0.704605 *  0.975274 *   4.00000    1.000000    
     35 Si    c    0.104627 *  0.399420 *  0.642040 *   4.00000    1.000000    
     36 Si    c    0.289459 *  0.893581 *  0.313211 *   4.00000    1.000000    
     37 Si    c    0.256151 *  0.350016 *  0.948220 *   4.00000    1.000000    
     38 Si    c    0.647727 *  0.903037 *  0.283456 *   4.00000    1.000000    
     39 Si    c    0.092901 *  0.750034 *  0.613351 *   4.00000    1.000000    
     40 Si    c    0.733248 *  0.653916 *  0.447097 *   4.00000    1.000000    
     41 Si    c    0.342201 *  0.091121 *  0.782317 *   4.00000    1.000000    
     42 Si    c    0.896705 *  0.245653 *  0.111847 *   4.00000    1.000000    
     43 Si    c    0.329675 *  0.244626 *  0.375668 *   4.00000    1.000000    
     44 Si    c    0.894822 *  0.658399 *  0.039777 *   4.00000    1.000000    
     45 Si    c    0.753475 *  0.092983 *  0.712261 *   4.00000    1.000000    
     46 Si    c    0.656465 *  0.749963 *  0.874343 *   4.00000    1.000000    
     47 Si    c    0.081800 *  0.328454 *  0.539875 *   4.00000    1.000000    
     48 Si    c    0.238292 *  0.904727 *  0.212779 *   4.00000    1.000000    
     49 Ge    c    0.975486 *  0.122737 *  0.961326 *   4.00000    1.000000    
     50 Si    c    0.865101 *  0.839655 *  0.296283 *   4.00000    1.000000    
     51 Si    c    0.151885 *  0.026787 *  0.629377 *   4.00000    1.000000    
     52 Si    c    0.012067 *  0.873205 *  0.461546 *   4.00000    1.000000    
     53 Si    c    0.124354 *  0.153398 *  0.795023 *   4.00000    1.000000    
     54 Si    c    0.839092 *  0.969616 *  0.130467 *   4.00000    1.000000    
     55 Si    c    0.110277 *  0.965076 *  0.361467 *   4.00000    1.000000    
     56 Si    c    0.845845 *  0.881681 *  0.029150 *   4.00000    1.000000    
     57 Si    c    0.033910 *  0.152600 *  0.693700 *   4.00000    1.000000    
     58 Si    c    0.878502 *  0.025437 *  0.859213 *   4.00000    1.000000    
     59 Si    c    0.139409 *  0.111741 *  0.528278 *   4.00000    1.000000    
     60 Si    c    0.958180 *  0.845702 *  0.194792 *   4.00000    1.000000    
     61 O3    c    0.936007 *  0.005541 *  0.000771 *   1.33043    1.000000    
     62 O2    c    0.990977 *  0.921512 *  0.327203 *   0.87073    1.000000    
     63 O2    c    0.068788 *  0.068172 *  0.660663 *   0.87073    1.000000    
     64 O2    c    0.058991 *  0.989906 *  0.496332 *   0.87073    1.000000    
     65 O2    c    0.995273 *  0.068766 *  0.823755 *   0.87073    1.000000    
     66 O2    c    0.922775 *  0.932041 *  0.163156 *   0.87073    1.000000    
     67 O2    c    0.326077 *  0.568039 *  0.327465 *   0.87073    1.000000    
     68 O2    c    0.424001 *  0.764039 *  0.666748 *   0.87073    1.000000    
     69 O2    c    0.229085 *  0.658729 *  0.994199 *   0.87073    1.000000    
     70 O2    c    0.661180 *  0.424033 *  0.829714 *   0.87073    1.000000    
     71 O2    c    0.570517 *  0.234448 *  0.170174 *   0.87073    1.000000    
     72 O2    c    0.751456 *  0.340504 *  0.496609 *   0.87073    1.000000    
     73 O3    c    0.569931 *  0.342586 *  0.997035 *   1.33043    1.000000    
     74 O2    c    0.765838 *  0.420468 *  0.663906 *   0.87073    1.000000    
     75 O2    c    0.651678 *  0.230245 *  0.333015 *   0.87073    1.000000    
     76 O3    c    0.406259 *  0.651865 *  0.494424 *   1.33043    1.000000    
     77 O2    c    0.225351 *  0.578405 *  0.161326 *   0.87073    1.000000    
     78 O2    c    0.336467 *  0.762923 *  0.829763 *   0.87073    1.000000    
     79 O3    c    0.137861 *  0.224220 *  0.970184 *   1.33043    1.000000    
     80 O2    c    0.773611 *  0.901461 *  0.303442 *   0.87073    1.000000    
     81 O2    c    0.092168 *  0.873661 *  0.634741 *   0.87073    1.000000    
     82 O2    c    0.857286 *  0.783969 *  0.467022 *   0.87073    1.000000    
     83 O2    c    0.215876 *  0.091779 *  0.802353 *   0.87073    1.000000    
     84 O2    c    0.900943 *  0.123823 *  0.132917 *   0.87073    1.000000    
     85 O2    c    0.203442 *  0.117825 *  0.355215 *   0.87073    1.000000    
     86 O2    c    0.911601 *  0.794078 *  0.023841 *   0.87073    1.000000    
     87 O2    c    0.878578 *  0.091103 *  0.691505 *   0.87073    1.000000    
     88 O2    c    0.781891 *  0.873043 *  0.852249 *   0.87073    1.000000    
     89 O2    c    0.063403 *  0.190456 *  0.525055 *   0.87073    1.000000    
     90 O2    c    0.113507 *  0.907218 *  0.192001 *   0.87073    1.000000    
     91 O2    c    0.911864 *  0.852026 *  0.244880 *   0.87073    1.000000    
     92 O2    c    0.138810 *  0.062045 *  0.578475 *   0.87073    1.000000    
     93 O3    c    0.939820 *  0.053850 *  0.908528 *   1.33043    1.000000    
     94 O2    c    0.083365 *  0.145460 *  0.743082 *   0.87073    1.000000    
     95 O2    c    0.846764 *  0.923576 *  0.080746 *   0.87073    1.000000    
     96 O2    c    0.053025 *  0.931007 *  0.411680 *   0.87073    1.000000    
     97 O3    c    0.895469 *  0.205600 *  0.969884 *   1.33043    1.000000    
     98 O2    c    0.785265 *  0.689033 *  0.308278 *   0.87073    1.000000    
     99 O2    c    0.303937 *  0.098440 *  0.642903 *   0.87073    1.000000    
    100 O2    c    0.078774 *  0.789207 *  0.472233 *   0.87073    1.000000    
    101 O2    c    0.201880 *  0.302770 *  0.809080 *   0.87073    1.000000    
    102 O2    c    0.687891 *  0.900685 *  0.144263 *   0.87073    1.000000    
    103 O2    c    0.191660 *  0.893355 *  0.351731 *   0.87073    1.000000    
    104 O2    c    0.695724 *  0.805632 *  0.013288 *   0.87073    1.000000    
    105 O2    c    0.103579 *  0.302320 *  0.680075 *   0.87073    1.000000    
    106 O2    c    0.797975 *  0.099392 *  0.851279 *   0.87073    1.000000    
    107 O2    c    0.289809 *  0.200616 *  0.514765 *   0.87073    1.000000    
    108 O2    c    0.888188 *  0.696300 *  0.180168 *   0.87073    1.000000    
    109 O2    c    0.308163 *  0.638275 *  0.245320 *   0.87073    1.000000    
    110 O3    c    0.372837 *  0.687193 *  0.581610 *   1.33043    1.000000    
    111 O2    c    0.314291 *  0.677841 *  0.911188 *   0.87073    1.000000    
    112 O2    c    0.682007 *  0.357693 *  0.747012 *   0.87073    1.000000    
    113 O3    c    0.608923 *  0.301842 *  0.084671 *   1.33043    1.000000    
    114 O2    c    0.672811 *  0.322361 *  0.413346 *   0.87073    1.000000    
    115 O2    c    0.379856 *  0.342193 *  0.964375 *   0.87073    1.000000    
    116 O2    c    0.659776 *  0.034506 *  0.302874 *   0.87073    1.000000    
    117 O2    c    0.961879 *  0.625349 *  0.631721 *   0.87073    1.000000    
    118 O2    c    0.610117 *  0.663183 *  0.463808 *   0.87073    1.000000    
    119 O2    c    0.330393 *  0.959472 *  0.800847 *   0.87073    1.000000    
    120 O2    c    0.028132 *  0.372231 *  0.129375 *   0.87073    1.000000    
    121 O2    c    0.318799 *  0.364649 *  0.356416 *   0.87073    1.000000    
    122 O2    c    0.029303 *  0.663950 *  0.024095 *   0.87073    1.000000    
    123 O2    c    0.630057 *  0.961612 *  0.693597 *   0.87073    1.000000    
    124 O2    c    0.666987 *  0.628214 *  0.856749 *   0.87073    1.000000    
    125 O2    c    0.948221 *  0.326027 *  0.525035 *   0.87073    1.000000    
    126 O2    c    0.362299 *  0.036702 *  0.195186 *   0.87073    1.000000    
    127 O3    c    0.750494 *  0.282750 *  0.001784 *   1.33043    1.000000    
    128 O2    c    0.687420 *  0.459594 *  0.338833 *   0.87073    1.000000    
    129 O2    c    0.536878 *  0.229373 *  0.673928 *   0.87073    1.000000    
    130 O3    c    0.225146 *  0.706059 *  0.500796 *   1.33043    1.000000    
    131 O2    c    0.299528 *  0.533326 *  0.838194 *   0.87073    1.000000    
    132 O2    c    0.454589 *  0.768764 *  0.173619 *   0.87073    1.000000    
    133 O2    c    0.287525 *  0.759071 *  0.318949 *   0.87073    1.000000    
    134 O2    c    0.464416 *  0.704348 *  0.983063 *   0.87073    1.000000    
    135 O2    c    0.237555 *  0.534523 *  0.648942 *   0.87073    1.000000    
    136 O2    c    0.701350 *  0.234309 *  0.819806 *   0.87073    1.000000    
    137 O2    c    0.521961 *  0.300362 *  0.484596 *   0.87073    1.000000    
    138 O2    c    0.753687 *  0.461117 *  0.150380 *   0.87073    1.000000    
    139 O3    c    0.769090 *  0.544307 *  0.018442 *   1.33043    1.000000    
    140 O2    c    0.455877 *  0.242130 *  0.357067 *   0.87073    1.000000    
    141 O2    c    0.758484 *  0.220486 *  0.692648 *   0.87073    1.000000    
    142 O3    c    0.205678 *  0.440951 *  0.516898 *   1.33043    1.000000    
    143 O2    c    0.530583 *  0.751776 *  0.855143 *   0.87073    1.000000    
    144 O2    c    0.233402 *  0.777833 *  0.192218 *   0.87073    1.000000    
    145 O2    c    0.520463 *  0.776305 *  0.301715 *   0.87073    1.000000    
    146 O2    c    0.247989 *  0.471185 *  0.967885 *   0.87073    1.000000    
    147 O2    c    0.218251 *  0.746014 *  0.630984 *   0.87073    1.000000    
    148 O2    c    0.468403 *  0.217345 *  0.801795 *   0.87073    1.000000    
    149 O2    c    0.739560 *  0.533443 *  0.468317 *   0.87073    1.000000    
    150 O2    c    0.771793 *  0.248365 *  0.131036 *   0.87073    1.000000    
    151 O2    c    0.225740 *  0.328834 *  0.893963 *   0.87073    1.000000    
    152 O2    c    0.665405 *  0.902860 *  0.229076 *   0.87073    1.000000    
    153 O2    c    0.088879 *  0.762792 *  0.559104 *   0.87073    1.000000    
    154 O2    c    0.758296 *  0.668628 *  0.392889 *   0.87073    1.000000    
    155 O2    c    0.325313 *  0.092788 *  0.727920 *   0.87073    1.000000    
    156 O2    c    0.896757 *  0.230865 *  0.057366 *   0.87073    1.000000    
    157 O2    c    0.311340 *  0.227513 *  0.429969 *   0.87073    1.000000    
    158 O2    c    0.886040 *  0.663712 *  0.095045 *   0.87073    1.000000    
    159 O2    c    0.771849 *  0.095117 *  0.766618 *   0.87073    1.000000    
    160 O2    c    0.675083 *  0.773505 *  0.928659 *   0.87073    1.000000    
    161 O2    c    0.096885 *  0.328521 *  0.594946 *   0.87073    1.000000    
    162 O2    c    0.219210 *  0.901141 *  0.267094 *   0.87073    1.000000    
    163 O2    c    0.587689 *  0.568620 *  0.985251 *   0.87073    1.000000    
    164 O2    c    0.430699 *  0.016264 *  0.323453 *   0.87073    1.000000    
    165 O2    c    0.982264 *  0.420013 *  0.649121 *   0.87073    1.000000    
    166 O2    c    0.401461 *  0.436377 *  0.485156 *   0.87073    1.000000    
    167 O2    c    0.558958 *  0.977012 *  0.821831 *   0.87073    1.000000    
    168 O2    c    0.008660 *  0.578392 *  0.147888 *   0.87073    1.000000    
    169 O2    c    0.546613 *  0.578951 *  0.337701 *   0.87073    1.000000    
    170 O2    c    0.009633 *  0.438859 *  0.003659 *   0.87073    1.000000    
    171 O2    c    0.412605 *  0.971119 *  0.673308 *   0.87073    1.000000    
    172 O2    c    0.439016 *  0.411448 *  0.840159 *   0.87073    1.000000    
    173 O2    c    0.970882 *  0.554279 *  0.505065 *   0.87073    1.000000    
    174 O2    c    0.580158 *  0.027324 *  0.175235 *   0.87073    1.000000    
    175 O2    c    0.571796 *  0.156951 *  0.250813 *   0.87073    1.000000    
    176 O2    c    0.840015 *  0.421123 *  0.579099 *   0.87073    1.000000    
    177 O2    c    0.591368 *  0.429811 *  0.913155 *   0.87073    1.000000    
    178 O2    c    0.419572 *  0.839220 *  0.748015 *   0.87073    1.000000    
    179 O2    c    0.146365 *  0.575142 *  0.076748 *   0.87073    1.000000    
    180 O2    c    0.399728 *  0.570049 *  0.410962 *   0.87073    1.000000    
    181 F     c    0.438749 *  0.896835 *  0.246642 *   0.56000    1.000000    
    182 F     c    0.130512 *  0.556368 *  0.568957 *   0.56000    1.000000    
    183 F     c    0.446207 *  0.555968 *  0.910338 *   0.56000    1.000000    
    184 F     c    0.553157 *  0.100497 *  0.746056 *   0.56000    1.000000    
    185 F     c    0.849859 *  0.433151 *  0.069393 *   0.56000    1.000000    
    186 F     c    0.540876 *  0.443531 *  0.410350 *   0.56000    1.000000    
    187 O3    s    0.929516 *  0.002170 *  0.000429 *  -3.33043    1.000000    
    188 O2    s    0.990167 *  0.917152 *  0.327565 *  -2.87073    1.000000    
    189 O2    s    0.074124 *  0.072878 *  0.660841 *  -2.87073    1.000000    
    190 O2    s    0.062890 *  0.990578 *  0.496034 *  -2.87073    1.000000    
    191 O2    s    0.996971 *  0.073569 *  0.824419 *  -2.87073    1.000000    
    192 O2    s    0.917518 *  0.926709 *  0.163051 *  -2.87073    1.000000    
    193 O2    s    0.337721 *  0.576116 *  0.327523 *  -2.87073    1.000000    
    194 O2    s    0.417332 *  0.768860 *  0.666079 *  -2.87073    1.000000    
    195 O2    s    0.224735 *  0.647185 *  0.994141 *  -2.87073    1.000000    
    196 O2    s    0.649641 *  0.416249 *  0.829608 *  -2.87073    1.000000    
    197 O2    s    0.576599 *  0.229138 *  0.169248 *  -2.87073    1.000000    
    198 O2    s    0.756746 *  0.352182 *  0.496460 *  -2.87073    1.000000    
    199 O3    s    0.575894 *  0.353966 *  0.996246 *  -3.33043    1.000000    
    200 O2    s    0.770359 *  0.413546 *  0.663670 *  -2.87073    1.000000    
    201 O2    s    0.639624 *  0.226072 *  0.332744 *  -2.87073    1.000000    
    202 O3    s    0.401955 *  0.640610 *  0.493600 *  -3.33043    1.000000    
    203 O2    s    0.220655 *  0.585010 *  0.161278 *  -2.87073    1.000000    
    204 O2    s    0.348551 *  0.767328 *  0.829730 *  -2.87073    1.000000    
    205 O3    s    0.135738 *  0.228066 *  0.967253 *  -3.33043    1.000000    
    206 O2    s    0.770165 *  0.895054 *  0.300619 *  -2.87073    1.000000    
    207 O2    s    0.098478 *  0.876841 *  0.631989 *  -2.87073    1.000000    
    208 O2    s    0.861450 *  0.780391 *  0.464416 *  -2.87073    1.000000    
    209 O2    s    0.219333 *  0.098248 *  0.799512 *  -2.87073    1.000000    
    210 O2    s    0.894081 *  0.120397 *  0.130504 *  -2.87073    1.000000    
    211 O2    s    0.206504 *  0.114590 *  0.357961 *  -2.87073    1.000000    
    212 O2    s    0.902791 *  0.789265 *  0.026060 *  -2.87073    1.000000    
    213 O2    s    0.882336 *  0.097946 *  0.693877 *  -2.87073    1.000000    
    214 O2    s    0.779113 *  0.876411 *  0.855237 *  -2.87073    1.000000    
    215 O2    s    0.073342 *  0.196210 *  0.526905 *  -2.87073    1.000000    
    216 O2    s    0.109760 *  0.900331 *  0.194434 *  -2.87073    1.000000    
    217 O2    s    0.911895 *  0.849900 *  0.244946 *  -2.87073    1.000000    
    218 O2    s    0.140361 *  0.063563 *  0.578693 *  -2.87073    1.000000    
    219 O3    s    0.936378 *  0.056770 *  0.907839 *  -3.33043    1.000000    
    220 O2    s    0.082279 *  0.147175 *  0.743273 *  -2.87073    1.000000    
    221 O2    s    0.845769 *  0.924303 *  0.080810 *  -2.87073    1.000000    
    222 O2    s    0.054865 *  0.928341 *  0.411625 *  -2.87073    1.000000    
    223 O3    s    0.901364 *  0.207281 *  0.973015 *  -3.33043    1.000000    
    224 O2    s    0.783834 *  0.695379 *  0.310885 *  -2.87073    1.000000    
    225 O2    s    0.297613 *  0.090690 *  0.645413 *  -2.87073    1.000000    
    226 O2    s    0.072876 *  0.788979 *  0.475084 *  -2.87073    1.000000    
    227 O2    s    0.203503 *  0.296690 *  0.811509 *  -2.87073    1.000000    
    228 O2    s    0.694091 *  0.908080 *  0.146785 *  -2.87073    1.000000    
    229 O2    s    0.193084 *  0.900858 *  0.348828 *  -2.87073    1.000000    
    230 O2    s    0.701841 *  0.803378 *  0.011058 *  -2.87073    1.000000    
    231 O2    s    0.096319 *  0.296587 *  0.677553 *  -2.87073    1.000000    
    232 O2    s    0.796431 *  0.091976 *  0.848247 *  -2.87073    1.000000    
    233 O2    s    0.283406 *  0.201048 *  0.512292 *  -2.87073    1.000000    
    234 O2    s    0.895201 *  0.701790 *  0.177766 *  -2.87073    1.000000    
    235 O2    s    0.313885 *  0.649836 *  0.245352 *  -2.87073    1.000000    
    236 O3    s    0.360124 *  0.681703 *  0.583468 *  -3.33043    1.000000    
    237 O2    s    0.320723 *  0.672230 *  0.911308 *  -2.87073    1.000000    
    238 O2    s    0.676168 *  0.345981 *  0.746971 *  -2.87073    1.000000    
    239 O3    s    0.622026 *  0.307808 *  0.086058 *  -3.33043    1.000000    
    240 O2    s    0.666162 *  0.327826 *  0.413330 *  -2.87073    1.000000    
    241 O2    s    0.382170 *  0.351811 *  0.962525 *  -2.87073    1.000000    
    242 O2    s    0.649650 *  0.027912 *  0.300672 *  -2.87073    1.000000    
    243 O2    s    0.967809 *  0.622071 *  0.629673 *  -2.87073    1.000000    
    244 O2    s    0.607917 *  0.653550 *  0.461853 *  -2.87073    1.000000    
    245 O2    s    0.340503 *  0.966148 *  0.798689 *  -2.87073    1.000000    
    246 O2    s    0.022118 *  0.375310 *  0.127438 *  -2.87073    1.000000    
    247 O2    s    0.328566 *  0.368039 *  0.358819 *  -2.87073    1.000000    
    248 O2    s    0.023464 *  0.654475 *  0.025770 *  -2.87073    1.000000    
    249 O2    s    0.626847 *  0.968279 *  0.695981 *  -2.87073    1.000000    
    250 O2    s    0.657286 *  0.625009 *  0.859136 *  -2.87073    1.000000    
    251 O2    s    0.954561 *  0.335473 *  0.526733 *  -2.87073    1.000000    
    252 O2    s    0.365403 *  0.029866 *  0.197549 *  -2.87073    1.000000    
    253 O3    s    0.761453 *  0.290162 *  0.004815 *  -3.33043    1.000000    
    254 O2    s    0.679802 *  0.459096 *  0.342156 *  -2.87073    1.000000    
    255 O2    s    0.537426 *  0.222652 *  0.677152 *  -2.87073    1.000000    
    256 O3    s    0.214023 *  0.699057 *  0.503919 *  -3.33043    1.000000    
    257 O2    s    0.307064 *  0.534170 *  0.841558 *  -2.87073    1.000000    
    258 O2    s    0.453819 *  0.775229 *  0.176899 *  -2.87073    1.000000    
    259 O2    s    0.295478 *  0.766304 *  0.316001 *  -2.87073    1.000000    
    260 O2    s    0.463278 *  0.696238 *  0.980024 *  -2.87073    1.000000    
    261 O2    s    0.230468 *  0.534308 *  0.646325 *  -2.87073    1.000000    
    262 O2    s    0.693532 *  0.227187 *  0.816772 *  -2.87073    1.000000    
    263 O2    s    0.522910 *  0.308234 *  0.481499 *  -2.87073    1.000000    
    264 O2    s    0.760321 *  0.461101 *  0.147672 *  -2.87073    1.000000    
    265 O3    s    0.778784 *  0.546480 *  0.021691 *  -3.33043    1.000000    
    266 O2    s    0.458516 *  0.250444 *  0.359665 *  -2.87073    1.000000    
    267 O2    s    0.749796 *  0.214987 *  0.695171 *  -2.87073    1.000000    
    268 O3    s    0.196389 *  0.439422 *  0.520305 *  -3.33043    1.000000    
    269 O2    s    0.527882 *  0.743579 *  0.857836 *  -2.87073    1.000000    
    270 O2    s    0.241965 *  0.783092 *  0.194751 *  -2.87073    1.000000    
    271 O2    s    0.517814 *  0.781367 *  0.299181 *  -2.87073    1.000000    
    272 O2    s    0.256344 *  0.474640 *  0.965184 *  -2.87073    1.000000    
    273 O2    s    0.213580 *  0.740066 *  0.628905 *  -2.87073    1.000000    
    274 O2    s    0.471222 *  0.212363 *  0.799234 *  -2.87073    1.000000    
    275 O2    s    0.731342 *  0.530039 *  0.465588 *  -2.87073    1.000000    
    276 O2    s    0.776299 *  0.254526 *  0.129000 *  -2.87073    1.000000    
    277 O2    s    0.236309 *  0.338373 *  0.894612 *  -2.87073    1.000000    
    278 O2    s    0.655658 *  0.902643 *  0.229946 *  -2.87073    1.000000    
    279 O2    s    0.089668 *  0.755267 *  0.560081 *  -2.87073    1.000000    
    280 O2    s    0.748189 *  0.659087 *  0.393712 *  -2.87073    1.000000    
    281 O2    s    0.335024 *  0.093041 *  0.728769 *  -2.87073    1.000000    
    282 O2    s    0.895824 *  0.238347 *  0.058473 *  -2.87073    1.000000    
    283 O2    s    0.321084 *  0.236724 *  0.429051 *  -2.87073    1.000000    
    284 O2    s    0.886702 *  0.655771 *  0.094755 *  -2.87073    1.000000    
    285 O2    s    0.762511 *  0.095436 *  0.765620 *  -2.87073    1.000000    
    286 O2    s    0.665451 *  0.764057 *  0.927780 *  -2.87073    1.000000    
    287 O2    s    0.096270 *  0.336306 *  0.594568 *  -2.87073    1.000000    
    288 O2    s    0.228500 *  0.900739 *  0.266087 *  -2.87073    1.000000    
    289 O2    s    0.583677 *  0.569150 *  0.982025 *  -2.87073    1.000000    
    290 O2    s    0.430434 *  0.012078 *  0.320012 *  -2.87073    1.000000    
    291 O2    s    0.985481 *  0.423304 *  0.646332 *  -2.87073    1.000000    
    292 O2    s    0.405087 *  0.435235 *  0.481911 *  -2.87073    1.000000    
    293 O2    s    0.559301 *  0.981349 *  0.818453 *  -2.87073    1.000000    
    294 O2    s    0.005157 *  0.574813 *  0.145153 *  -2.87073    1.000000    
    295 O2    s    0.546760 *  0.574171 *  0.341018 *  -2.87073    1.000000    
    296 O2    s    0.006784 *  0.439274 *  0.006501 *  -2.87073    1.000000    
    297 O2    s    0.417637 *  0.976492 *  0.676688 *  -2.87073    1.000000    
    298 O2    s    0.439132 *  0.416831 *  0.843225 *  -2.87073    1.000000    
    299 O2    s    0.973810 *  0.554082 *  0.507953 *  -2.87073    1.000000    
    300 O2    s    0.574875 *  0.021731 *  0.178616 *  -2.87073    1.000000    
    301 O2    s    0.566337 *  0.145933 *  0.250697 *  -2.87073    1.000000    
    302 O2    s    0.849429 *  0.425617 *  0.579182 *  -2.87073    1.000000    
    303 O2    s    0.585303 *  0.434037 *  0.912810 *  -2.87073    1.000000    
    304 O2    s    0.424943 *  0.850094 *  0.747997 *  -2.87073    1.000000    
    305 O2    s    0.136890 *  0.570599 *  0.076929 *  -2.87073    1.000000    
    306 O2    s    0.405229 *  0.565424 *  0.410719 *  -2.87073    1.000000    
    307 F     s    0.438465 *  0.896479 *  0.246469 *  -1.56000    1.000000    
    308 F     s    0.141179 *  0.560144 *  0.566272 *  -1.56000    1.000000    
    309 F     s    0.445428 *  0.556552 *  0.910170 *  -1.56000    1.000000    
    310 F     s    0.553587 *  0.101053 *  0.745897 *  -1.56000    1.000000    
    311 F     s    0.839326 *  0.429125 *  0.067029 *  -1.56000    1.000000    
    312 F     s    0.541647 *  0.442972 *  0.410173 *  -1.56000    1.000000    
--------------------------------------------------------------------------------



********************************************************************************
*  General input information                                                   *
********************************************************************************

  Species output for all configurations : 

--------------------------------------------------------------------------------
  Species    Type    Atomic    Atomic    Charge       Radii (Angs)     Library
                     Number     Mass       (e)     Cova   Ionic  VDW   Symbol
--------------------------------------------------------------------------------
    Si       Core       14      28.09   4.000000   1.200  0.000  2.100          
    O1       Core        8      16.00   1.733957   0.730  0.000  1.360          
    O1       Shell       8       0.00  -3.733957   0.730  0.000  1.360          
    O2       Core        8      16.00   0.870733   0.730  0.000  1.360          
    O2       Shell       8       0.00  -2.870733   0.730  0.000  1.360          
    O3       Core        8      16.00   1.330431   0.730  0.000  1.360          
    O3       Shell       8       0.00  -3.330431   0.730  0.000  1.360          
    F        Core        9      19.00   0.560000   0.710  0.000  1.300          
    F        Shell       9       0.00  -1.560000   0.710  0.000  1.300          
    Ge       Core       32      72.61   4.000000   1.170  0.000  1.750          
--------------------------------------------------------------------------------


  Lattice summation method               =    Ewald          (3-D)
                                         =    Parry          (2-D)
                                         =    Saunders et al (1-D)
  Accuracy factor for lattice sums       =   12.000


  Time limit = Infinity

  Maximum range for interatomic potentials =        16.000000 Angstroms

  Taper potentials to zero over   1.0000 Angstroms using polynomial

  General interatomic potentials :

--------------------------------------------------------------------------------
Atom  Types   Potential         A         B         C         D     Cutoffs(Ang)
  1     2                                                            Min    Max 
--------------------------------------------------------------------------------
Si   c O1   s Buckingham    0.132E+04 0.318      10.1      0.00     0.000 16.000
Si   c O2   s Buckingham    0.132E+04 0.318      10.1      0.00     0.000 16.000
Si   c O3   s Buckingham    0.132E+04 0.318      10.1      0.00     0.000 16.000
Ge   c O1   s Buckingham    0.150E+04 0.326      16.8      0.00     0.000 16.000
Ge   c O2   s Buckingham    0.150E+04 0.326      16.8      0.00     0.000 16.000
Ge   c O3   s Buckingham    0.150E+04 0.326      16.8      0.00     0.000 16.000
O1   s O1   s Buckingham    0.228E+05 0.149      10.9      0.00     0.000 16.000
O1   s O2   s Buckingham    0.228E+05 0.149      10.9      0.00     0.000 16.000
O1   s O3   s Buckingham    0.228E+05 0.149      10.9      0.00     0.000 16.000
O2   s O2   s Buckingham    0.228E+05 0.149      10.9      0.00     0.000 16.000
O2   s O3   s Buckingham    0.228E+05 0.149      10.9      0.00     0.000 16.000
O3   s O3   s Buckingham    0.228E+05 0.149      10.9      0.00     0.000 16.000
Si   c F    s Buckingham     977.     0.282      0.00      0.00     0.000 16.000
Ge   c F    s Buckingham     681.     0.320      0.00      0.00     0.000 16.000
F    s F    s Buckingham     540.     0.262      0.00      0.00     0.000 16.000
O1   s F    s Buckingham    0.168E+04 0.268      0.00      0.00     0.000 16.000
O2   s F    s Buckingham    0.168E+04 0.268      0.00      0.00     0.000 16.000
O3   s F    s Buckingham    0.168E+04 0.268      0.00      0.00     0.000 16.000
O2   c O2   s Spring (c-s)   76.0      0.00      0.00      0.00     0.000  0.800
O3   c O3   s Spring (c-s)   128.      0.00      0.00      0.00     0.000  0.800
O1   c O1   s Spring (c-s)   180.      0.00      0.00      0.00     0.000  0.800
F    c F    s Spring (c-s)   33.5      0.00      0.00      0.00     0.000  0.800
--------------------------------------------------------------------------------

  General Three-body potentials :

  Harmonic form:

--------------------------------------------------------------------------------
Atom    Atom    Atom           Force Constants            Theta     Cutoffs  
  1       2       3     (eVrad**-2/eVrad**-3/eVrad**-4)   (deg)  1-2  1-3  2-3
--------------------------------------------------------------------------------
Si    c O1    s O1    s  1.261        0.0000    0.0000   109.470 0.00 0.00 0.00
                                                                 1.90 1.90 3.50
Si    c O1    s O2    s  1.261        0.0000    0.0000   109.470 0.00 0.00 0.00
                                                                 1.90 1.90 3.50
Si    c O2    s O2    s  1.261        0.0000    0.0000   109.470 0.00 0.00 0.00
                                                                 1.90 1.90 3.50
--------------------------------------------------------------------------------

********************************************************************************
*  Output for configuration   1                                                *
********************************************************************************


  Components of energy : 

--------------------------------------------------------------------------------
  Interatomic potentials     =        2063.53688708 eV
  Three-body potentials      =           0.47315602 eV
  Monopole - monopole (real) =       -6613.84038843 eV
  Monopole - monopole (recip)=       -3170.54914687 eV
  Monopole - monopole (total)=       -9784.38953530 eV
  Neutralising energy        =          -6.45839401 eV
--------------------------------------------------------------------------------
  Total lattice energy       =       -7726.83788621 eV
--------------------------------------------------------------------------------
  Total lattice energy       =         -745521.7405 kJ/(mole unit cells)
--------------------------------------------------------------------------------


  Number of variables =      939

  Maximum number of calculations  =          5000
  Maximum Hessian update interval =            10
  Maximum step size               =   0.100000000
  Maximum parameter tolerance     =   0.000010000
  Maximum function  tolerance     =   0.000010000
  Maximum gradient  tolerance     =   0.001000000
  Maximum gradient  component     =   0.010000000

  Symmetry not applied to optimisation

  Cell parameters to be optimised using strains

  Newton-Raphson optimiser to be used

  BFGS hessian update to be used

  Dumpfile to be written after every cycle

  Start of bulk optimisation :

  Cycle:      0 Energy:     -7726.837886  Gnorm:      0.000464  CPU:    2.040
  ** Hessian calculated **
  Cycle:      1 Energy:     -7726.851790  Gnorm:      0.000420  CPU:    6.600
  Cycle:      2 Energy:     -7726.868300  Gnorm:      0.000508  CPU:   10.782
  Cycle:      3 Energy:     -7726.886221  Gnorm:      0.000929  CPU:   14.963
  Cycle:      4 Energy:     -7726.896346  Gnorm:      0.001168  CPU:   19.147
  Cycle:      5 Energy:     -7726.898856  Gnorm:      0.000839  CPU:   23.328
  Cycle:      6 Energy:     -7726.899492  Gnorm:      0.000499  CPU:   27.513
  Cycle:      7 Energy:     -7726.899653  Gnorm:      0.000274  CPU:   31.700
  Cycle:      8 Energy:     -7726.899681  Gnorm:      0.000197  CPU:   34.536
  Cycle:      9 Energy:     -7726.899695  Gnorm:      0.000139  CPU:   37.368
  Cycle:     10 Energy:     -7726.899702  Gnorm:      0.000098  CPU:   40.202
  ** Hessian calculated **
  Cycle:     11 Energy:     -7726.899702  Gnorm:      0.000053  CPU:   44.727
  Cycle:     12 Energy:     -7726.899702  Gnorm:      0.000040  CPU:   47.558
  Cycle:     13 Energy:     -7726.899702  Gnorm:      0.000031  CPU:   50.389


  **** Optimisation achieved ****


  Final energy =   -7726.89970189 eV
  Final Gnorm  =       0.00002531

  Components of energy : 

--------------------------------------------------------------------------------
  Interatomic potentials     =        2063.76726107 eV
  Three-body potentials      =           0.46680888 eV
  Monopole - monopole (real) =       -6615.18833680 eV
  Monopole - monopole (recip)=       -3169.48919847 eV
  Monopole - monopole (total)=       -9784.67753528 eV
  Neutralising energy        =          -6.45623656 eV
--------------------------------------------------------------------------------
  Total lattice energy       =       -7726.89970189 eV
--------------------------------------------------------------------------------
  Total lattice energy       =         -745527.7048 kJ/(mole unit cells)
--------------------------------------------------------------------------------

  Final fractional coordinates of atoms :

--------------------------------------------------------------------------------
   No.  Atomic        x           y          z          Radius
        Label       (Frac)      (Frac)     (Frac)       (Angs) 
--------------------------------------------------------------------------------
     1  Ge    c     0.699600    0.375700    0.033890    0.000000
     2  Si    c     0.590577    0.303037    0.363494    0.000000
     3  Si    c     0.660591    0.281166    0.696922    0.000000
     4  Ge    c     0.253367    0.593131    0.532621    0.000000
     5  Si    c     0.359843    0.663225    0.862478    0.000000
     6  Si    c     0.292756    0.685709    0.197211    0.000000
     7  Si    c     0.343930    0.678248    0.297822    0.000000
     8  Si    c     0.309417    0.613121    0.963090    0.000000
     9  Si    c     0.291378    0.666727    0.630582    0.000000
    10  Si    c     0.608337    0.287649    0.797365    0.000000
    11  Si    c     0.645240    0.360198    0.463532    0.000000
    12  Si    c     0.664125    0.301068    0.131452    0.000000
    13  Si    c     0.529200    0.414844    0.964398    0.000000
    14  Si    c     0.552565    0.089779    0.301117    0.000000
    15  Si    c     0.868527    0.453469    0.630240    0.000000
    16  Si    c     0.429550    0.558737    0.464243    0.000000
    17  Si    c     0.400019    0.876359    0.799893    0.000000
    18  Si    c     0.085856    0.514378    0.129930    0.000000
    19  Si    c     0.381272    0.503931    0.361564    0.000000
    20  Si    c     0.093777    0.573016    0.027082    0.000000
    21  Si    c     0.453402    0.875223    0.698358    0.000000
    22  Si    c     0.570585    0.461869    0.861387    0.000000
    23  Si    c     0.860936    0.397694    0.527064    0.000000
    24  Si    c     0.501326    0.092970    0.199511    0.000000
    25  Si    c     0.286310    0.388890    0.847956    0.000000
    26  Si    c     0.572768    0.887070    0.183567    0.000000
    27  Si    c     0.071929    0.684129    0.510502    0.000000
    28  Si    c     0.664171    0.576463    0.347352    0.000000
    29  Si    c     0.380602    0.080362    0.682060    0.000000
    30  Si    c     0.881153    0.287154    0.009277    0.000000
    31  Si    c     0.364644    0.280167    0.477050    0.000000
    32  Si    c     0.870781    0.585210    0.143305    0.000000
    33  Si    c     0.683452    0.086788    0.813351    0.000000
    34  Si    c     0.590822    0.693201    0.975368    0.000000
    35  Si    c     0.084494    0.383195    0.642245    0.000000
    36  Si    c     0.269150    0.879382    0.313812    0.000000
    37  Si    c     0.247578    0.338608    0.948767    0.000000
    38  Si    c     0.627445    0.888644    0.284288    0.000000
    39  Si    c     0.072328    0.733503    0.613799    0.000000
    40  Si    c     0.711320    0.636158    0.447779    0.000000
    41  Si    c     0.325321    0.077480    0.782871    0.000000
    42  Si    c     0.882254    0.233802    0.112253    0.000000
    43  Si    c     0.307414    0.228074    0.376316    0.000000
    44  Si    c     0.891835    0.655956    0.041218    0.000000
    45  Si    c     0.734159    0.076570    0.712709    0.000000
    46  Si    c     0.643078    0.738105    0.874154    0.000000
    47  Si    c     0.061481    0.312162    0.540092    0.000000
    48  Si    c     0.220379    0.891328    0.213141    0.000000
    49  Ge    c     0.966146    0.113933    0.961610    0.000000
    50  Si    c     0.843791    0.823990    0.297027    0.000000
    51  Si    c     0.131361    0.009953    0.630187    0.000000
    52  Si    c     0.989932    0.856083    0.462342    0.000000
    53  Si    c     0.109302    0.142162    0.795750    0.000000
    54  Si    c     0.821560    0.956591    0.131389    0.000000
    55  Si    c     0.088614    0.949035    0.362263    0.000000
    56  Si    c     0.835541    0.873542    0.030109    0.000000
    57  Si    c     0.014876    0.136969    0.694550    0.000000
    58  Si    c     0.863159    0.014056    0.860052    0.000000
    59  Si    c     0.117433    0.094089    0.528945    0.000000
    60  Si    c     0.940079    0.831822    0.195810    0.000000
    61  O3    c     0.923767    0.999655    0.002605    0.000000
    62  O2    c     0.968837    0.904278    0.328277    0.000000
    63  O2    c     0.049853    0.051645    0.662119    0.000000
    64  O2    c     0.035493    0.971651    0.497481    0.000000
    65  O2    c     0.981570    0.059817    0.825290    0.000000
    66  O2    c     0.904134    0.918008    0.164231    0.000000
    67  O2    c     0.304936    0.553616    0.329052    0.000000
    68  O2    c     0.403157    0.747445    0.667810    0.000000
    69  O2    c     0.223329    0.649175    0.996422    0.000000
    70  O2    c     0.646238    0.411689    0.828813    0.000000
    71  O2    c     0.553535    0.220949    0.169004    0.000000
    72  O2    c     0.730965    0.323376    0.496649    0.000000
    73  O3    c     0.568244    0.337293    0.996638    0.000000
    74  O2    c     0.745212    0.403240    0.663603    0.000000
    75  O2    c     0.629950    0.215411    0.332888    0.000000
    76  O3    c     0.386049    0.634511    0.495752    0.000000
    77  O2    c     0.208852    0.563910    0.163553    0.000000
    78  O2    c     0.320938    0.750325    0.831333    0.000000
    79  O3    c     0.129152    0.211036    0.970028    0.000000
    80  O2    c     0.753286    0.886826    0.304157    0.000000
    81  O2    c     0.071187    0.856713    0.635247    0.000000
    82  O2    c     0.835324    0.765896    0.467644    0.000000
    83  O2    c     0.199689    0.079269    0.802944    0.000000
    84  O2    c     0.883972    0.110766    0.133519    0.000000
    85  O2    c     0.180973    0.101798    0.355884    0.000000
    86  O2    c     0.908237    0.791789    0.025720    0.000000
    87  O2    c     0.859515    0.074496    0.692345    0.000000
    88  O2    c     0.767884    0.862069    0.852099    0.000000
    89  O2    c     0.043006    0.174240    0.525337    0.000000
    90  O2    c     0.095352    0.893966    0.192679    0.000000
    91  O2    c     0.892606    0.837177    0.245828    0.000000
    92  O2    c     0.116670    0.045670    0.579449    0.000000
    93  O3    c     0.922725    0.040673    0.909702    0.000000
    94  O2    c     0.065727    0.132857    0.744054    0.000000
    95  O2    c     0.829286    0.910562    0.081743    0.000000
    96  O2    c     0.031515    0.914903    0.412555    0.000000
    97  O3    c     0.891887    0.202416    0.969746    0.000000
    98  O2    c     0.762343    0.673205    0.308780    0.000000
    99  O2    c     0.283510    0.080775    0.643317    0.000000
   100  O2    c     0.057560    0.772779    0.472745    0.000000
   101  O2    c     0.188317    0.291622    0.809471    0.000000
   102  O2    c     0.670385    0.887847    0.145083    0.000000
   103  O2    c     0.170941    0.878509    0.352284    0.000000
   104  O2    c     0.687209    0.793887    0.013095    0.000000
   105  O2    c     0.083606    0.286075    0.680302    0.000000
   106  O2    c     0.781765    0.087029    0.851883    0.000000
   107  O2    c     0.267823    0.181121    0.515224    0.000000
   108  O2    c     0.871439    0.682504    0.181415    0.000000
   109  O2    c     0.289722    0.624741    0.246806    0.000000
   110  O3    c     0.352150    0.671743    0.582375    0.000000
   111  O2    c     0.302332    0.665022    0.912638    0.000000
   112  O2    c     0.663435    0.341986    0.746566    0.000000
   113  O3    c     0.601707    0.297313    0.083582    0.000000
   114  O2    c     0.650139    0.304726    0.413545    0.000000
   115  O2    c     0.371393    0.330650    0.964756    0.000000
   116  O2    c     0.639271    0.020304    0.303181    0.000000
   117  O2    c     0.941254    0.608480    0.631888    0.000000
   118  O2    c     0.588144    0.644602    0.464807    0.000000
   119  O2    c     0.313457    0.945977    0.801767    0.000000
   120  O2    c     0.012886    0.359265    0.130633    0.000000
   121  O2    c     0.296293    0.348347    0.357324    0.000000
   122  O2    c     0.026047    0.660290    0.026109    0.000000
   123  O2    c     0.610625    0.945078    0.694312    0.000000
   124  O2    c     0.653722    0.617003    0.856005    0.000000
   125  O2    c     0.927801    0.309536    0.525308    0.000000
   126  O2    c     0.344127    0.023150    0.195056    0.000000
   127  O3    c     0.747137    0.280408    0.001697    0.000000
   128  O2    c     0.664583    0.443501    0.339287    0.000000
   129  O2    c     0.517061    0.212381    0.673828    0.000000
   130  O3    c     0.204611    0.689826    0.501255    0.000000
   131  O2    c     0.285560    0.521525    0.839120    0.000000
   132  O2    c     0.436684    0.755162    0.174565    0.000000
   133  O2    c     0.267560    0.745177    0.320010    0.000000
   134  O2    c     0.455511    0.692260    0.983675    0.000000
   135  O2    c     0.217013    0.518238    0.649438    0.000000
   136  O2    c     0.684485    0.220694    0.819815    0.000000
   137  O2    c     0.500318    0.281850    0.485122    0.000000
   138  O2    c     0.739306    0.449281    0.150689    0.000000
   139  O3    c     0.767649    0.542921    0.018596    0.000000
   140  O2    c     0.433325    0.225672    0.357386    0.000000
   141  O2    c     0.738707    0.203443    0.692544    0.000000
   142  O3    c     0.184932    0.425180    0.517195    0.000000
   143  O2    c     0.516568    0.739720    0.855586    0.000000
   144  O2    c     0.215547    0.764338    0.192848    0.000000
   145  O2    c     0.500583    0.762428    0.303142    0.000000
   146  O2    c     0.238922    0.458864    0.969138    0.000000
   147  O2    c     0.197555    0.729737    0.631694    0.000000
   148  O2    c     0.451652    0.203693    0.802067    0.000000
   149  O2    c     0.717546    0.515218    0.468646    0.000000
   150  O2    c     0.756674    0.236527    0.130560    0.000000
   151  O2    c     0.214844    0.317155    0.894622    0.000000
   152  O2    c     0.645877    0.888417    0.229946    0.000000
   153  O2    c     0.068683    0.746322    0.559512    0.000000
   154  O2    c     0.735619    0.651462    0.393522    0.000000
   155  O2    c     0.307083    0.077884    0.728479    0.000000
   156  O2    c     0.886678    0.222083    0.057732    0.000000
   157  O2    c     0.289374    0.209796    0.430635    0.000000
   158  O2    c     0.876874    0.655436    0.096357    0.000000
   159  O2    c     0.753370    0.079918    0.767063    0.000000
   160  O2    c     0.663779    0.761601    0.928376    0.000000
   161  O2    c     0.077341    0.312698    0.595185    0.000000
   162  O2    c     0.200220    0.887326    0.267434    0.000000
   163  O2    c     0.579277    0.557549    0.985036    0.000000
   164  O2    c     0.410261    0.002170    0.323558    0.000000
   165  O2    c     0.961838    0.403240    0.649142    0.000000
   166  O2    c     0.379636    0.417629    0.486248    0.000000
   167  O2    c     0.542095    0.963879    0.822719    0.000000
   168  O2    c     0.993688    0.565167    0.149567    0.000000
   169  O2    c     0.524000    0.562658    0.338670    0.000000
   170  O2    c     0.003403    0.433374    0.004974    0.000000
   171  O2    c     0.392881    0.954528    0.674106    0.000000
   172  O2    c     0.425848    0.400573    0.839834    0.000000
   173  O2    c     0.950546    0.537904    0.505287    0.000000
   174  O2    c     0.561857    0.013554    0.175519    0.000000
   175  O2    c     0.552087    0.142937    0.250536    0.000000
   176  O2    c     0.819532    0.404646    0.579083    0.000000
   177  O2    c     0.580036    0.418676    0.912420    0.000000
   178  O2    c     0.401602    0.824442    0.749201    0.000000
   179  O2    c     0.135700    0.564927    0.078965    0.000000
   180  O2    c     0.377321    0.552190    0.412344    0.000000
   181  F     c     0.419238    0.882110    0.247169    0.000000
   182  F     c     0.109960    0.540088    0.569557    0.000000
   183  F     c     0.434535    0.543391    0.910614    0.000000
   184  F     c     0.534559    0.085249    0.746385    0.000000
   185  F     c     0.844496    0.428246    0.070369    0.000000
   186  F     c     0.517729    0.425339    0.411084    0.000000
   187  O3    s     0.917644    0.995629    0.002061    0.000000
   188  O2    s     0.968203    0.900232    0.328576    0.000000
   189  O2    s     0.055006    0.056409    0.662159    0.000000
   190  O2    s     0.039701    0.972514    0.497086    0.000000
   191  O2    s     0.982914    0.064116    0.825799    0.000000
   192  O2    s     0.899046    0.912814    0.164099    0.000000
   193  O2    s     0.316639    0.561532    0.329070    0.000000
   194  O2    s     0.396741    0.752385    0.667107    0.000000
   195  O2    s     0.218442    0.637595    0.996273    0.000000
   196  O2    s     0.634666    0.403851    0.828816    0.000000
   197  O2    s     0.559639    0.215936    0.168255    0.000000
   198  O2    s     0.736074    0.334976    0.496520    0.000000
   199  O3    s     0.573179    0.348625    0.995709    0.000000
   200  O2    s     0.749880    0.396353    0.663396    0.000000
   201  O2    s     0.617892    0.211104    0.332654    0.000000
   202  O3    s     0.381469    0.623230    0.494901    0.000000
   203  O2    s     0.204179    0.570824    0.163360    0.000000
   204  O2    s     0.333068    0.754689    0.831193    0.000000
   205  O3    s     0.126867    0.215298    0.967220    0.000000
   206  O2    s     0.749758    0.880351    0.301353    0.000000
   207  O2    s     0.077586    0.859962    0.632524    0.000000
   208  O2    s     0.839473    0.762456    0.465062    0.000000
   209  O2    s     0.203184    0.085757    0.800114    0.000000
   210  O2    s     0.877309    0.107451    0.131117    0.000000
   211  O2    s     0.184121    0.098490    0.358635    0.000000
   212  O2    s     0.898848    0.786169    0.027797    0.000000
   213  O2    s     0.863238    0.081445    0.694673    0.000000
   214  O2    s     0.765058    0.865333    0.855184    0.000000
   215  O2    s     0.052793    0.179839    0.527221    0.000000
   216  O2    s     0.091645    0.887016    0.195109    0.000000
   217  O2    s     0.892539    0.835082    0.245886    0.000000
   218  O2    s     0.118431    0.046989    0.579615    0.000000
   219  O3    s     0.920209    0.044199    0.908953    0.000000
   220  O2    s     0.064790    0.134374    0.744215    0.000000
   221  O2    s     0.829103    0.911836    0.081781    0.000000
   222  O2    s     0.033264    0.912130    0.412492    0.000000
   223  O3    s     0.897083    0.203450    0.972992    0.000000
   224  O2    s     0.761108    0.679515    0.311425    0.000000
   225  O2    s     0.277262    0.073238    0.645862    0.000000
   226  O2    s     0.051639    0.772455    0.475625    0.000000
   227  O2    s     0.189820    0.285497    0.811918    0.000000
   228  O2    s     0.676512    0.895149    0.147601    0.000000
   229  O2    s     0.172314    0.885969    0.349415    0.000000
   230  O2    s     0.693202    0.792047    0.010995    0.000000
   231  O2    s     0.076388    0.280363    0.677835    0.000000
   232  O2    s     0.780268    0.079579    0.848885    0.000000
   233  O2    s     0.261450    0.181845    0.512798    0.000000
   234  O2    s     0.878607    0.688168    0.178978    0.000000
   235  O2    s     0.295500    0.636408    0.246856    0.000000
   236  O3    s     0.339503    0.666217    0.584277    0.000000
   237  O2    s     0.308844    0.659525    0.912702    0.000000
   238  O2    s     0.657576    0.330235    0.746597    0.000000
   239  O3    s     0.614462    0.302733    0.085379    0.000000
   240  O2    s     0.643587    0.310271    0.413562    0.000000
   241  O2    s     0.373606    0.340246    0.962874    0.000000
   242  O2    s     0.629163    0.013659    0.300987    0.000000
   243  O2    s     0.947252    0.605274    0.629839    0.000000
   244  O2    s     0.586018    0.635082    0.462838    0.000000
   245  O2    s     0.323569    0.952636    0.799585    0.000000
   246  O2    s     0.007017    0.362482    0.128659    0.000000
   247  O2    s     0.306111    0.351709    0.359729    0.000000
   248  O2    s     0.019807    0.650720    0.027725    0.000000
   249  O2    s     0.607437    0.951745    0.696671    0.000000
   250  O2    s     0.644061    0.613766    0.858461    0.000000
   251  O2    s     0.934105    0.318976    0.526971    0.000000
   252  O2    s     0.347322    0.016500    0.197414    0.000000
   253  O3    s     0.758305    0.287593    0.004777    0.000000
   254  O2    s     0.657012    0.442992    0.342609    0.000000
   255  O2    s     0.517570    0.205662    0.677091    0.000000
   256  O3    s     0.193479    0.682837    0.504387    0.000000
   257  O2    s     0.293204    0.522314    0.842437    0.000000
   258  O2    s     0.436046    0.761774    0.177867    0.000000
   259  O2    s     0.275517    0.752371    0.317059    0.000000
   260  O2    s     0.454285    0.684172    0.980650    0.000000
   261  O2    s     0.210008    0.518088    0.646828    0.000000
   262  O2    s     0.676647    0.213516    0.816824    0.000000
   263  O2    s     0.501250    0.289756    0.482025    0.000000
   264  O2    s     0.746086    0.449501    0.148025    0.000000
   265  O3    s     0.776986    0.544517    0.022004    0.000000
   266  O2    s     0.435981    0.233974    0.360012    0.000000
   267  O2    s     0.730077    0.197974    0.695114    0.000000
   268  O3    s     0.175611    0.423431    0.520622    0.000000
   269  O2    s     0.513989    0.731535    0.858271    0.000000
   270  O2    s     0.224115    0.769717    0.195428    0.000000
   271  O2    s     0.497901    0.767402    0.300558    0.000000
   272  O2    s     0.247236    0.462408    0.966395    0.000000
   273  O2    s     0.192954    0.723809    0.629604    0.000000
   274  O2    s     0.454439    0.198703    0.799500    0.000000
   275  O2    s     0.709359    0.511902    0.465949    0.000000
   276  O2    s     0.761369    0.242716    0.128627    0.000000
   277  O2    s     0.225396    0.326723    0.895195    0.000000
   278  O2    s     0.636172    0.888296    0.230782    0.000000
   279  O2    s     0.069395    0.738806    0.560504    0.000000
   280  O2    s     0.725602    0.641964    0.394345    0.000000
   281  O2    s     0.316779    0.078099    0.729303    0.000000
   282  O2    s     0.885728    0.229480    0.058838    0.000000
   283  O2    s     0.299126    0.219057    0.429710    0.000000
   284  O2    s     0.877656    0.647745    0.095981    0.000000
   285  O2    s     0.744082    0.080267    0.766096    0.000000
   286  O2    s     0.654109    0.752146    0.927558    0.000000
   287  O2    s     0.076591    0.320394    0.594811    0.000000
   288  O2    s     0.209523    0.886932    0.266482    0.000000
   289  O2    s     0.575244    0.558273    0.981834    0.000000
   290  O2    s     0.409944    0.997901    0.320143    0.000000
   291  O2    s     0.965118    0.406594    0.646362    0.000000
   292  O2    s     0.383285    0.416588    0.482975    0.000000
   293  O2    s     0.542483    0.968172    0.819324    0.000000
   294  O2    s     0.990257    0.561757    0.146783    0.000000
   295  O2    s     0.524227    0.557882    0.341974    0.000000
   296  O2    s     0.000668    0.433709    0.007806    0.000000
   297  O2    s     0.397954    0.959938    0.677452    0.000000
   298  O2    s     0.425934    0.405837    0.842943    0.000000
   299  O2    s     0.953396    0.537637    0.508170    0.000000
   300  O2    s     0.556585    0.008128    0.178875    0.000000
   301  O2    s     0.546721    0.132055    0.250394    0.000000
   302  O2    s     0.828975    0.409101    0.579156    0.000000
   303  O2    s     0.574056    0.422953    0.912097    0.000000
   304  O2    s     0.406954    0.835298    0.749117    0.000000
   305  O2    s     0.126168    0.560435    0.079016    0.000000
   306  O2    s     0.382911    0.547645    0.412067    0.000000
   307  F     s     0.418902    0.881618    0.246984    0.000000
   308  F     s     0.120811    0.543968    0.566838    0.000000
   309  F     s     0.433707    0.543877    0.910446    0.000000
   310  F     s     0.534967    0.085814    0.746211    0.000000
   311  F     s     0.833696    0.424439    0.067730    0.000000
   312  F     s     0.518412    0.424705    0.410909    0.000000
--------------------------------------------------------------------------------

  Final Cartesian lattice vectors (Angstroms) :

       11.919789    0.004408   -0.001208
       -6.087096   10.427008    0.017624
       -0.007538   -0.079498   29.467522


  Final cell parameters and derivatives :

--------------------------------------------------------------------------------
       a           11.919790 Angstrom     dE/de1(xx)     0.000691 eV/strain
       b           12.073754 Angstrom     dE/de2(yy)     0.000628 eV/strain
       c           29.467630 Angstrom     dE/de3(zz)     0.001148 eV/strain
       alpha       90.042470 Degrees      dE/de4(yz)    -0.000217 eV/strain
       beta        90.020521 Degrees      dE/de5(xz)    -0.000113 eV/strain
       gamma      120.254384 Degrees      dE/de6(xy)     0.000270 eV/strain
--------------------------------------------------------------------------------

  Primitive cell volume =          3663.258199 Angs**3

  Density of cell =      1.746558 g/cm**3

  Non-primitive cell volume =          3663.258199 Angs**3


  Final internal derivatives :

--------------------------------------------------------------------------------
   No.  Atomic          a             b             c           Radius
        Label          (eV)          (eV)          (eV)        (eV/Angs)
--------------------------------------------------------------------------------
      1 Ge    c       0.000000      0.000000      0.000000      0.000000
      2 Si    c       0.000042      0.000369      0.000345      0.000000
      3 Si    c       0.000025      0.000202     -0.000582      0.000000
      4 Ge    c       0.000071     -0.000046      0.000232      0.000000
      5 Si    c       0.000367     -0.000279      0.000020      0.000000
      6 Si    c       0.000561     -0.000082      0.000628      0.000000
      7 Si    c       0.000439      0.000248     -0.000220      0.000000
      8 Si    c       0.000613     -0.000397     -0.000154      0.000000
      9 Si    c       0.000128     -0.000007     -0.000212      0.000000
     10 Si    c      -0.000306     -0.000149     -0.000796      0.000000
     11 Si    c       0.000012      0.000199     -0.000111      0.000000
     12 Si    c       0.000053      0.000551      0.003963      0.000000
     13 Si    c      -0.000854      0.001225     -0.002428      0.000000
     14 Si    c      -0.000018      0.000132     -0.000109      0.000000
     15 Si    c      -0.000045     -0.000075     -0.000209      0.000000
     16 Si    c       0.000386      0.000116     -0.000157      0.000000
     17 Si    c       0.000133     -0.000055     -0.000158      0.000000
     18 Si    c       0.001018     -0.000140      0.000780      0.000000
     19 Si    c       0.000411      0.000194      0.000168      0.000000
     20 Si    c       0.000316     -0.000606     -0.000394      0.000000
     21 Si    c       0.000129     -0.000013      0.000237      0.000000
     22 Si    c      -0.000528      0.000545     -0.000482      0.000000
     23 Si    c       0.000089      0.000159      0.000134      0.000000
     24 Si    c      -0.000231     -0.000147      0.001253      0.000000
     25 Si    c       0.000367     -0.000204      0.000495      0.000000
     26 Si    c       0.000284     -0.000145      0.000195      0.000000
     27 Si    c       0.000134      0.000079      0.000170      0.000000
     28 Si    c       0.000266      0.000409      0.000093      0.000000
     29 Si    c      -0.000007      0.000100      0.000217      0.000000
     30 Si    c       0.000252      0.000418      0.000589      0.000000
     31 Si    c       0.000097      0.000075     -0.000113      0.000000
     32 Si    c      -0.000192      0.000951      0.000382      0.000000
     33 Si    c      -0.000214     -0.000150     -0.000522      0.000000
     34 Si    c      -0.000138     -0.000199     -0.000967      0.000000
     35 Si    c       0.000068     -0.000087     -0.000450      0.000000
     36 Si    c       0.000249      0.000329     -0.000232      0.000000
     37 Si    c       0.000113     -0.000082     -0.000166      0.000000
     38 Si    c       0.000126      0.000085     -0.000452      0.000000
     39 Si    c       0.000023     -0.000122     -0.000436      0.000000
     40 Si    c       0.000223      0.000193     -0.000339      0.000000
     41 Si    c      -0.000100      0.000137     -0.000081      0.000000
     42 Si    c       0.000969     -0.000549      0.000526      0.000000
     43 Si    c       0.000258      0.000156      0.000318      0.000000
     44 Si    c      -0.000594     -0.000762     -0.002355      0.000000
     45 Si    c      -0.000011     -0.000122     -0.000012      0.000000
     46 Si    c       0.000261     -0.000173      0.000271      0.000000
     47 Si    c       0.000184      0.000188      0.000211      0.000000
     48 Si    c       0.000092      0.000265      0.000501      0.000000
     49 Ge    c       0.000065      0.000819      0.000426      0.000000
     50 Si    c       0.000283      0.000173     -0.000291      0.000000
     51 Si    c       0.000129      0.000059     -0.000032      0.000000
     52 Si    c       0.000194      0.000118     -0.000482      0.000000
     53 Si    c       0.000381     -0.000122      0.000441      0.000000
     54 Si    c       0.000017      0.000119      0.002427      0.000000
     55 Si    c       0.000205      0.000190      0.000260      0.000000
     56 Si    c      -0.000259     -0.001008      0.001198      0.000000
     57 Si    c       0.000016     -0.000000     -0.000263      0.000000
     58 Si    c       0.000134     -0.000008     -0.001613      0.000000
     59 Si    c       0.000239      0.000205      0.000081      0.000000
     60 Si    c       0.000131      0.000304      0.000060      0.000000
     61 O3    c       0.002167     -0.000989      0.001174      0.000000
     62 O2    c       0.000377      0.000177      0.000040      0.000000
     63 O2    c      -0.000051     -0.000049     -0.000173      0.000000
     64 O2    c       0.000213      0.000031     -0.000056      0.000000
     65 O2    c      -0.000023     -0.000478     -0.001006      0.000000
     66 O2    c       0.000134      0.000104      0.000101      0.000000
     67 O2    c       0.000418      0.000347     -0.000301      0.000000
     68 O2    c      -0.000159      0.000013     -0.000217      0.000000
     69 O2    c       0.000223      0.000106     -0.000266      0.000000
     70 O2    c       0.000042      0.000039     -0.000082      0.000000
     71 O2    c      -0.000585     -0.000146      0.001870      0.000000
     72 O2    c       0.000233      0.000292      0.000058      0.000000
     73 O3    c      -0.001761     -0.000171      0.000973      0.000000
     74 O2    c       0.000258     -0.000177     -0.000142      0.000000
     75 O2    c      -0.000011      0.000211     -0.000100      0.000000
     76 O3    c       0.000181     -0.000079     -0.000221      0.000000
     77 O2    c       0.000552     -0.000162     -0.000043      0.000000
     78 O2    c      -0.000002      0.000184     -0.000618      0.000000
     79 O3    c       0.002527     -0.000158      0.001201      0.000000
     80 O2    c       0.000173      0.000183     -0.000464      0.000000
     81 O2    c       0.000135     -0.000119     -0.000384      0.000000
     82 O2    c       0.000381      0.000033     -0.000355      0.000000
     83 O2    c       0.000223     -0.000023     -0.000331      0.000000
     84 O2    c       0.000154     -0.000167      0.000365      0.000000
     85 O2    c       0.000303      0.000106      0.000397      0.000000
     86 O2    c       0.002119     -0.001227     -0.002239      0.000000
     87 O2    c      -0.000084      0.000007      0.000083      0.000000
     88 O2    c       0.000082     -0.000431     -0.000001      0.000000
     89 O2    c       0.000201      0.000233      0.000312      0.000000
     90 O2    c       0.000145      0.000068      0.000680      0.000000
     91 O2    c       0.000255      0.000103     -0.000459      0.000000
     92 O2    c       0.000081      0.000049     -0.000037      0.000000
     93 O3    c       0.000851     -0.001871     -0.008712      0.000000
     94 O2    c       0.000130     -0.000167     -0.000117      0.000000
     95 O2    c       0.000049      0.001098      0.006657      0.000000
     96 O2    c       0.000263      0.000015     -0.000103      0.000000
     97 O3    c      -0.003609      0.002644     -0.001325      0.000000
     98 O2    c       0.000067      0.000207      0.000685      0.000000
     99 O2    c       0.000057     -0.000144      0.000296      0.000000
    100 O2    c       0.000171     -0.000039      0.000536      0.000000
    101 O2    c       0.000264      0.000009      0.000344      0.000000
    102 O2    c       0.000245      0.000162      0.000563      0.000000
    103 O2    c       0.000387      0.000291     -0.000558      0.000000
    104 O2    c      -0.002826      0.000280     -0.000314      0.000000
    105 O2    c      -0.000100      0.000102     -0.000647      0.000000
    106 O2    c      -0.000363      0.000285     -0.000450      0.000000
    107 O2    c       0.000203      0.000275     -0.000527      0.000000
    108 O2    c       0.000088      0.000432      0.000912      0.000000
    109 O2    c       0.000276      0.000305     -0.000066      0.000000
    110 O3    c      -0.000239     -0.000080      0.000857      0.000000
    111 O2    c       0.000390     -0.000387     -0.000695      0.000000
    112 O2    c      -0.000023     -0.000101     -0.000294      0.000000
    113 O3    c      -0.001329     -0.000716      0.000761      0.000000
    114 O2    c      -0.000016      0.000335     -0.000051      0.000000
    115 O2    c      -0.001065      0.000456     -0.000412      0.000000
    116 O2    c       0.000139      0.000252     -0.000180      0.000000
    117 O2    c       0.000204     -0.000089     -0.000379      0.000000
    118 O2    c       0.000312     -0.000040     -0.000251      0.000000
    119 O2    c       0.000096      0.000079     -0.000299      0.000000
    120 O2    c       0.000841     -0.000084      0.000653      0.000000
    121 O2    c       0.000424      0.000176      0.000303      0.000000
    122 O2    c       0.000599      0.000796     -0.001044      0.000000
    123 O2    c      -0.000088      0.000039      0.000225      0.000000
    124 O2    c      -0.000238     -0.000033      0.000560      0.000000
    125 O2    c       0.000274      0.000222      0.000249      0.000000
    126 O2    c       0.000221      0.000010      0.000598      0.000000
    127 O3    c      -0.000293     -0.000418     -0.000861      0.000000
    128 O2    c       0.000012      0.000317      0.000472      0.000000
    129 O2    c       0.000030     -0.000122      0.000390      0.000000
    130 O3    c      -0.000173     -0.000003      0.000718      0.000000
    131 O2    c       0.000269     -0.000065      0.000245      0.000000
    132 O2    c       0.000320      0.000113      0.000692      0.000000
    133 O2    c       0.000370      0.000354     -0.000386      0.000000
    134 O2    c       0.000519     -0.000440      0.000008      0.000000
    135 O2    c      -0.000067      0.000001     -0.000429      0.000000
    136 O2    c       0.000055     -0.000085     -0.000234      0.000000
    137 O2    c       0.000290      0.000312     -0.000509      0.000000
    138 O2    c      -0.000291      0.000752      0.000866      0.000000
    139 O3    c      -0.001546     -0.001073     -0.001068      0.000000
    140 O2    c       0.000356      0.000308      0.000314      0.000000
    141 O2    c      -0.000089     -0.000104      0.000226      0.000000
    142 O3    c      -0.000121     -0.000041      0.000909      0.000000
    143 O2    c       0.000083     -0.000357      0.000163      0.000000
    144 O2    c       0.000360      0.000282      0.000539      0.000000
    145 O2    c       0.000222      0.000264     -0.000356      0.000000
    146 O2    c       0.000340      0.000082     -0.000207      0.000000
    147 O2    c      -0.000020     -0.000109     -0.000410      0.000000
    148 O2    c      -0.000025     -0.000036     -0.000307      0.000000
    149 O2    c       0.000045      0.000168     -0.000310      0.000000
    150 O2    c       0.000307     -0.000541      0.000708      0.000000
    151 O2    c       0.000437     -0.000096      0.000015      0.000000
    152 O2    c       0.000062      0.000180      0.000059      0.000000
    153 O2    c       0.000168     -0.000186      0.000326      0.000000
    154 O2    c       0.000010      0.000015      0.000252      0.000000
    155 O2    c       0.000092     -0.000017      0.000335      0.000000
    156 O2    c       0.000464     -0.000581     -0.000205      0.000000
    157 O2    c       0.000350      0.000302     -0.000264      0.000000
    158 O2    c      -0.000152      0.000978      0.001934      0.000000
    159 O2    c      -0.000109      0.000000     -0.000149      0.000000
    160 O2    c       0.000138     -0.000406      0.000226      0.000000
    161 O2    c       0.000029      0.000077     -0.000319      0.000000
    162 O2    c       0.000371      0.000142     -0.000373      0.000000
    163 O2    c      -0.000211      0.000467     -0.000461      0.000000
    164 O2    c       0.000290      0.000164     -0.000498      0.000000
    165 O2    c       0.000115      0.000021     -0.000432      0.000000
    166 O2    c       0.000280      0.000295     -0.000508      0.000000
    167 O2    c       0.000099      0.000018     -0.000378      0.000000
    168 O2    c       0.000403      0.000036      0.000766      0.000000
    169 O2    c       0.000332      0.000025      0.000571      0.000000
    170 O2    c       0.000617     -0.000290     -0.000613      0.000000
    171 O2    c       0.000076     -0.000076      0.000199      0.000000
    172 O2    c      -0.000071      0.000138      0.000613      0.000000
    173 O2    c       0.000226     -0.000006      0.000524      0.000000
    174 O2    c       0.000293     -0.000029      0.000383      0.000000
    175 O2    c       0.000164      0.000051      0.000169      0.000000
    176 O2    c       0.000267      0.000065      0.000034      0.000000
    177 O2    c      -0.000419      0.000735     -0.002416      0.000000
    178 O2    c       0.000077      0.000069     -0.000201      0.000000
    179 O2    c       0.000854     -0.000324      0.000409      0.000000
    180 O2    c       0.000400      0.000005      0.000081      0.000000
    181 F     c       0.000274      0.000134      0.000008      0.000000
    182 F     c       0.000259      0.000011     -0.000432      0.000000
    183 F     c       0.000228     -0.000232      0.000160      0.000000
    184 F     c       0.000014     -0.000021     -0.000030      0.000000
    185 F     c      -0.000222      0.000329     -0.001097      0.000000
    186 F     c       0.000272      0.000195     -0.000033      0.000000
    187 O3    s       0.002642     -0.001025      0.001745      0.000000
    188 O2    s       0.000376      0.000352      0.000091      0.000000
    189 O2    s      -0.000064      0.000003     -0.000435      0.000000
    190 O2    s       0.000515      0.000024     -0.000213      0.000000
    191 O2    s      -0.000328     -0.000096     -0.001475      0.000000
    192 O2    s       0.000249      0.000116      0.001026      0.000000
    193 O2    s       0.000598      0.000430     -0.000291      0.000000
    194 O2    s      -0.000298      0.000160     -0.000274      0.000000
    195 O2    s      -0.000271      0.000652     -0.001084      0.000000
    196 O2    s       0.000066     -0.000072      0.000378      0.000000
    197 O2    s       0.000526     -0.000643      0.003369      0.000000
    198 O2    s       0.000259      0.000315      0.000117      0.000000
    199 O3    s       0.000782     -0.000108      0.000388      0.000000
    200 O2    s       0.000402     -0.000463     -0.000199      0.000000
    201 O2    s       0.000093      0.000162     -0.000233      0.000000
    202 O3    s       0.000281      0.000128     -0.000366      0.000000
    203 O2    s       0.000082      0.000567      0.000500      0.000000
    204 O2    s      -0.000009      0.000254     -0.000256      0.000000
    205 O3    s       0.002296      0.001005      0.000651      0.000000
    206 O2    s       0.000165      0.000243     -0.000807      0.000000
    207 O2    s       0.000325     -0.000174     -0.000730      0.000000
    208 O2    s       0.000451      0.000031     -0.000797      0.000000
    209 O2    s       0.000394     -0.000134     -0.000256      0.000000
    210 O2    s       0.000117     -0.000009      0.002083      0.000000
    211 O2    s       0.000470      0.000039      0.000794      0.000000
    212 O2    s       0.002389     -0.002201     -0.003759      0.000000
    213 O2    s      -0.000175      0.000141      0.000132      0.000000
    214 O2    s      -0.000431     -0.000032     -0.000557      0.000000
    215 O2    s       0.000225      0.000278      0.000452      0.000000
    216 O2    s       0.000326      0.000007      0.000780      0.000000
    217 O2    s       0.000418      0.000306      0.000041      0.000000
    218 O2    s       0.000352      0.000031     -0.000142      0.000000
    219 O3    s       0.000274     -0.001375     -0.005991      0.000000
    220 O2    s      -0.000125      0.000177     -0.000149      0.000000
    221 O2    s      -0.000348      0.001400      0.005174      0.000000
    222 O2    s       0.000558     -0.000044     -0.000029      0.000000
    223 O3    s      -0.003532      0.002933     -0.001109      0.000000
    224 O2    s       0.000239      0.000194      0.000902      0.000000
    225 O2    s       0.000168     -0.000281      0.000118      0.000000
    226 O2    s       0.000222      0.000038      0.000476      0.000000
    227 O2    s      -0.000049      0.000382      0.000520      0.000000
    228 O2    s      -0.000012      0.000543      0.001510      0.000000
    229 O2    s       0.000367      0.000347     -0.000485      0.000000
    230 O2    s      -0.003738      0.000440     -0.000731      0.000000
    231 O2    s      -0.000380      0.000230     -0.000757      0.000000
    232 O2    s      -0.000130      0.000183     -0.000752      0.000000
    233 O2    s       0.000415      0.000268     -0.000614      0.000000
    234 O2    s       0.000767      0.000243      0.001857      0.000000
    235 O2    s       0.000324      0.000657     -0.000106      0.000000
    236 O3    s      -0.000397      0.000143      0.000627      0.000000
    237 O2    s      -0.000107      0.000312     -0.000827      0.000000
    238 O2    s       0.000268     -0.000442     -0.000306      0.000000
    239 O3    s      -0.000131      0.000296     -0.001078      0.000000
    240 O2    s       0.000065      0.000438      0.000016      0.000000
    241 O2    s      -0.000412      0.000161     -0.000952      0.000000
    242 O2    s       0.000112      0.000261     -0.000432      0.000000
    243 O2    s       0.000346     -0.000290     -0.000577      0.000000
    244 O2    s       0.000308      0.000151     -0.000368      0.000000
    245 O2    s       0.000375     -0.000044     -0.000422      0.000000
    246 O2    s      -0.000219      0.000698      0.001226      0.000000
    247 O2    s       0.000592      0.000127      0.000438      0.000000
    248 O2    s       0.000316     -0.000216     -0.001425      0.000000
    249 O2    s      -0.000211      0.000262      0.000426      0.000000
    250 O2    s       0.000343     -0.000393     -0.000393      0.000000
    251 O2    s       0.000199      0.000296      0.000523      0.000000
    252 O2    s       0.000580     -0.000160      0.000986      0.000000
    253 O3    s       0.000531      0.000142     -0.000055      0.000000
    254 O2    s       0.000210      0.000299      0.000599      0.000000
    255 O2    s       0.000345     -0.000334      0.000440      0.000000
    256 O3    s      -0.000114      0.000049      0.001092      0.000000
    257 O2    s      -0.000336      0.000233     -0.000310      0.000000
    258 O2    s       0.000037      0.000607      0.001012      0.000000
    259 O2    s       0.000442      0.000359     -0.000729      0.000000
    260 O2    s      -0.000006      0.000286     -0.000437      0.000000
    261 O2    s      -0.000248      0.000150     -0.000570      0.000000
    262 O2    s      -0.000203     -0.000118     -0.000630      0.000000
    263 O2    s       0.000160      0.000312     -0.000643      0.000000
    264 O2    s       0.000807     -0.000846      0.001969      0.000000
    265 O3    s       0.000194     -0.001312     -0.000969      0.000000
    266 O2    s       0.000253      0.000409      0.000597      0.000000
    267 O2    s      -0.000164     -0.000025      0.000380      0.000000
    268 O3    s      -0.000171      0.000092      0.001442      0.000000
    269 O2    s      -0.000216      0.000365     -0.000017      0.000000
    270 O2    s       0.000396      0.000288      0.000637      0.000000
    271 O2    s       0.000144      0.000364     -0.000558      0.000000
    272 O2    s      -0.000288      0.000468     -0.000948      0.000000
    273 O2    s       0.000049     -0.000176     -0.000769      0.000000
    274 O2    s       0.000434     -0.000542     -0.000377      0.000000
    275 O2    s       0.000220      0.000106     -0.000458      0.000000
    276 O2    s      -0.000121      0.000142      0.002403      0.000000
    277 O2    s      -0.000319      0.000260     -0.000279      0.000000
    278 O2    s       0.000054      0.000403      0.000168      0.000000
    279 O2    s       0.000393     -0.000363      0.000207      0.000000
    280 O2    s       0.000218      0.000129      0.000125      0.000000
    281 O2    s       0.000514     -0.000375      0.000183      0.000000
    282 O2    s      -0.000173      0.000359      0.000416      0.000000
    283 O2    s       0.000633      0.000325     -0.000096      0.000000
    284 O2    s       0.000788     -0.000273      0.002332      0.000000
    285 O2    s      -0.000331      0.000071     -0.000155      0.000000
    286 O2    s      -0.000306      0.000062      0.000183      0.000000
    287 O2    s      -0.000155      0.000332     -0.000191      0.000000
    288 O2    s       0.000781      0.000154     -0.000231      0.000000
    289 O2    s       0.000007      0.000004     -0.001055      0.000000
    290 O2    s       0.000331      0.000259     -0.000839      0.000000
    291 O2    s       0.000035     -0.000039     -0.000754      0.000000
    292 O2    s       0.000470      0.000192     -0.000735      0.000000
    293 O2    s      -0.000091      0.000210     -0.000544      0.000000
    294 O2    s       0.000521     -0.000183      0.000290      0.000000
    295 O2    s       0.000334      0.000276      0.000809      0.000000
    296 O2    s      -0.000221      0.000402      0.000033      0.000000
    297 O2    s       0.000162     -0.000031      0.000587      0.000000
    298 O2    s       0.000275     -0.000350     -0.000632      0.000000
    299 O2    s       0.000336     -0.000052      0.000911      0.000000
    300 O2    s       0.000214      0.000122      0.000975      0.000000
    301 O2    s       0.000364     -0.000124     -0.000016      0.000000
    302 O2    s       0.000473     -0.000078      0.000082      0.000000
    303 O2    s       0.000632     -0.000130     -0.001901      0.000000
    304 O2    s       0.000015      0.000265     -0.000025      0.000000
    305 O2    s      -0.000393      0.000676      0.000772      0.000000
    306 O2    s       0.000637      0.000170     -0.000015      0.000000
    307 F     s       0.000287      0.000231     -0.000071      0.000000
    308 F     s       0.000306      0.000114     -0.000591      0.000000
    309 F     s      -0.000004      0.000095      0.000108      0.000000
    310 F     s       0.000032     -0.000045      0.000118      0.000000
    311 F     s       0.000228     -0.000274     -0.001486      0.000000
    312 F     s       0.000329      0.000186     -0.000042      0.000000
--------------------------------------------------------------------------------
  Maximum abs         0.003738      0.002933      0.008712      0.000000
--------------------------------------------------------------------------------


  Time to end of optimisation =      53.2228 seconds


  Peak dynamic memory used =      19.13 MB 


  Timing analysis for GULP :

--------------------------------------------------------------------------------
  Task / Subroutine                                          Time (Seconds)
--------------------------------------------------------------------------------
  Calculation of reciprocal space energy and derivatives          1.4023
  Calculation of real space energy and derivatives               46.2626
  Calculation of three-body energy and derivatives                4.6838
  Calculation of matrix inversion                                 0.7451
  Global summation overhead                                       0.0001
--------------------------------------------------------------------------------
  Total CPU time                                                 53.2229
--------------------------------------------------------------------------------


  Dump file written as out.res                                                 
  CIF file written as out.cif                                                 


  Job Finished at 16:39.16 25th October    2016                               

