********************************************************************************
*                       GENERAL UTILITY LATTICE PROGRAM                        *
*                                 Julian Gale                                  *
*                      Nanochemistry Research Institute                        *
*                           Department of Chemistry                            *
*                    Curtin University, Western Australia                      *
********************************************************************************
* Version = 4.2.0 * Last modified =  20th January 2014                         *
********************************************************************************
*  optimise     - perform optimisation run                                     *
*  conp         - constant pressure calculation                                *
*  qok          - running with non charge neutral cell is OK                   *
********************************************************************************

  Job Started  at 22:57.24 25th October    2016                               

  Number of CPUs =     1


  Total number of configurations input =   1

********************************************************************************
*  Input for Configuration =   1                                               *
********************************************************************************

  Formula = Ge3Si57O120F6                                               

  Number of irreducible atoms/shells =     312


  Total number atoms/shells =     312

  Dimensionality = 3               :  Bulk   


  Charge on solid   =  -6.000000 =>neutralising background added


  Cartesian lattice vectors (Angstroms) :

       11.925049    0.000000    0.000000
       -5.975790   10.404309    0.000000
       -0.355870   -0.136851   29.467425

  Cell parameters (Angstroms/Degrees):

  a =      11.9250    alpha =  89.8861
  b =      11.9983    beta  =  90.6919
  c =      29.4699    gamma = 119.8712

  Initial cell volume =        3656.079260 Angs**3

  Temperature of configuration =  0.000     K 

  Pressure of configuration =         0.000 GPa 

  Fractional coordinates of asymmetric unit :

--------------------------------------------------------------------------------
   No.  Atomic       x           y          z         Charge      Occupancy
        Label      (Frac)      (Frac)     (Frac)        (e)         (Frac)  
--------------------------------------------------------------------------------
      1 Ge    c    0.699600    0.375700    0.033890     4.00000    1.000000    
      2 Si    c    0.617460 *  0.322062 *  0.364351 *   4.00000    1.000000    
      3 Si    c    0.678782 *  0.294804 *  0.696751 *   4.00000    1.000000    
      4 Si    c    0.295861 *  0.616490 *  0.530687 *   4.00000    1.000000    
      5 Ge    c    0.385662 *  0.665021 *  0.864212 *   4.00000    1.000000    
      6 Si    c    0.316507 *  0.696146 *  0.199628 *   4.00000    1.000000    
      7 Si    c    0.373342 *  0.697467 *  0.300045 *   4.00000    1.000000    
      8 Si    c    0.310806 *  0.627974 *  0.961596 *   4.00000    1.000000    
      9 Si    c    0.299726 *  0.671948 *  0.631214 *   4.00000    1.000000    
     10 Si    c    0.624718 *  0.293823 *  0.797020 *   4.00000    1.000000    
     11 Si    c    0.676232 *  0.377058 *  0.464879 *   4.00000    1.000000    
     12 Si    c    0.672746 *  0.310456 *  0.132002 *   4.00000    1.000000    
     13 Si    c    0.531695 *  0.422144 *  0.964248 *   4.00000    1.000000    
     14 Si    c    0.575248 *  0.108710 *  0.300400 *   4.00000    1.000000    
     15 Si    c    0.888178 *  0.466369 *  0.632101 *   4.00000    1.000000    
     16 Si    c    0.467520 *  0.579451 *  0.465803 *   4.00000    1.000000    
     17 Si    c    0.421497 *  0.878760 *  0.797913 *   4.00000    1.000000    
     18 Ge    c    0.097985 *  0.529120 *  0.133062 *   4.00000    1.000000    
     19 Si    c    0.413191 *  0.525000 *  0.364237 *   4.00000    1.000000    
     20 Si    c    0.098052 *  0.580363 *  0.027750 *   4.00000    1.000000    
     21 Si    c    0.473719 *  0.884362 *  0.695482 *   4.00000    1.000000    
     22 Si    c    0.586070 *  0.469408 *  0.860966 *   4.00000    1.000000    
     23 Si    c    0.887859 *  0.415191 *  0.530340 *   4.00000    1.000000    
     24 Si    c    0.514648 *  0.101580 *  0.198933 *   4.00000    1.000000    
     25 Si    c    0.297337 *  0.393857 *  0.842692 *   4.00000    1.000000    
     26 Si    c    0.592163 *  0.898261 *  0.183642 *   4.00000    1.000000    
     27 Si    c    0.094732 *  0.694401 *  0.515714 *   4.00000    1.000000    
     28 Si    c    0.693894 *  0.598557 *  0.349273 *   4.00000    1.000000    
     29 Si    c    0.401719 *  0.093031 *  0.680968 *   4.00000    1.000000    
     30 Si    c    0.887507 *  0.291674 *  0.011510 *   4.00000    1.000000    
     31 Si    c    0.397044 *  0.299243 *  0.479543 *   4.00000    1.000000    
     32 Si    c    0.875191 *  0.595654 *  0.144495 *   4.00000    1.000000    
     33 Si    c    0.703443 *  0.093578 *  0.811053 *   4.00000    1.000000    
     34 Si    c    0.596639 *  0.707111 *  0.974548 *   4.00000    1.000000    
     35 Si    c    0.099332 *  0.394458 *  0.646174 *   4.00000    1.000000    
     36 Si    c    0.294102 *  0.897145 *  0.313392 *   4.00000    1.000000    
     37 Si    c    0.248534 *  0.345973 *  0.945432 *   4.00000    1.000000    
     38 Si    c    0.653746 *  0.908138 *  0.284562 *   4.00000    1.000000    
     39 Si    c    0.089286 *  0.744258 *  0.616473 *   4.00000    1.000000    
     40 Si    c    0.746711 *  0.657169 *  0.450036 *   4.00000    1.000000    
     41 Si    c    0.345301 *  0.082059 *  0.781266 *   4.00000    1.000000    
     42 Si    c    0.892091 *  0.243790 *  0.114844 *   4.00000    1.000000    
     43 Si    c    0.335660 *  0.247476 *  0.378759 *   4.00000    1.000000    
     44 Si    c    0.891530 *  0.659109 *  0.041303 *   4.00000    1.000000    
     45 Si    c    0.752211 *  0.087509 *  0.710394 *   4.00000    1.000000    
     46 Si    c    0.667976 *  0.753942 *  0.872529 *   4.00000    1.000000    
     47 Si    c    0.089210 *  0.336823 *  0.545284 *   4.00000    1.000000    
     48 Si    c    0.235750 *  0.898068 *  0.212557 *   4.00000    1.000000    
     49 Si    c    0.974506 *  0.123673 *  0.962918 *   4.00000    1.000000    
     50 Si    c    0.871662 *  0.845421 *  0.298319 *   4.00000    1.000000    
     51 Si    c    0.151703 *  0.023726 *  0.629990 *   4.00000    1.000000    
     52 Si    c    0.026810 *  0.875012 *  0.464635 *   4.00000    1.000000    
     53 Si    c    0.125090 *  0.139142 *  0.794812 *   4.00000    1.000000    
     54 Si    c    0.835840 *  0.966849 *  0.130880 *   4.00000    1.000000    
     55 Si    c    0.116945 *  0.967571 *  0.363773 *   4.00000    1.000000    
     56 Si    c    0.844381 *  0.885087 *  0.028615 *   4.00000    1.000000    
     57 Si    c    0.030038 *  0.144634 *  0.694706 *   4.00000    1.000000    
     58 Si    c    0.888184 *  0.027513 *  0.861693 *   4.00000    1.000000    
     59 Si    c    0.150153 *  0.118480 *  0.529512 *   4.00000    1.000000    
     60 Si    c    0.955301 *  0.844183 *  0.196257 *   4.00000    1.000000    
     61 O2    c    0.933497 *  0.009404 *  0.998807 *   0.87073    1.000000    
     62 O2    c    0.996621 *  0.926759 *  0.329807 *   0.87073    1.000000    
     63 O2    c    0.070767 *  0.067353 *  0.660772 *   0.87073    1.000000    
     64 O2    c    0.070505 *  0.999359 *  0.495694 *   0.87073    1.000000    
     65 O2    c    0.009844 *  0.069799 *  0.829950 *   0.87073    1.000000    
     66 O2    c    0.922764 *  0.932032 *  0.163624 *   0.87073    1.000000    
     67 O2    c    0.335386 *  0.575010 *  0.332298 *   0.87073    1.000000    
     68 O2    c    0.424633 *  0.758242 *  0.663259 *   0.87073    1.000000    
     69 O2    c    0.225580 *  0.656930 *  0.997315 *   0.87073    1.000000    
     70 O2    c    0.660973 *  0.415801 *  0.830279 *   0.87073    1.000000    
     71 O2    c    0.561482 *  0.229099 *  0.168497 *   0.87073    1.000000    
     72 O2    c    0.761280 *  0.338494 *  0.497585 *   0.87073    1.000000    
     73 O3    c    0.567767 *  0.342011 *  0.997203 *   1.33043    1.000000    
     74 O2    c    0.763660 *  0.418325 *  0.664383 *   0.87073    1.000000    
     75 O2    c    0.653909 *  0.235085 *  0.332026 *   0.87073    1.000000    
     76 O2    c    0.418940 *  0.655500 *  0.498050 *   0.87073    1.000000    
     77 O3    c    0.230469 *  0.572994 *  0.167932 *   1.33043    1.000000    
     78 O3    c    0.344309 *  0.758605 *  0.828797 *   1.33043    1.000000    
     79 O2    c    0.128092 *  0.219689 *  0.967698 *   0.87073    1.000000    
     80 O2    c    0.781211 *  0.909083 *  0.304693 *   0.87073    1.000000    
     81 O2    c    0.089179 *  0.870332 *  0.636262 *   0.87073    1.000000    
     82 O2    c    0.872590 *  0.783980 *  0.470236 *   0.87073    1.000000    
     83 O2    c    0.215648 *  0.075994 *  0.801006 *   0.87073    1.000000    
     84 O2    c    0.891519 *  0.118928 *  0.135991 *   0.87073    1.000000    
     85 O2    c    0.208281 *  0.121203 *  0.358782 *   0.87073    1.000000    
     86 O2    c    0.909716 *  0.796428 *  0.024971 *   0.87073    1.000000    
     87 O2    c    0.876221 *  0.085604 *  0.689146 *   0.87073    1.000000    
     88 O2    c    0.805388 *  0.873541 *  0.856787 *   0.87073    1.000000    
     89 O2    c    0.087137 *  0.209910 *  0.525045 *   0.87073    1.000000    
     90 O2    c    0.108358 *  0.896440 *  0.191778 *   0.87073    1.000000    
     91 O2    c    0.918658 *  0.857634 *  0.247041 *   0.87073    1.000000    
     92 O2    c    0.137414 *  0.060449 *  0.578966 *   0.87073    1.000000    
     93 O2    c    0.937781 *  0.065339 *  0.913056 *   0.87073    1.000000    
     94 O2    c    0.065953 *  0.120777 *  0.744730 *   0.87073    1.000000    
     95 O2    c    0.846421 *  0.928888 *  0.080038 *   0.87073    1.000000    
     96 O2    c    0.062826 *  0.925339 *  0.413698 *   0.87073    1.000000    
     97 O2    c    0.901662 *  0.202735 *  0.973585 *   0.87073    1.000000    
     98 O2    c    0.791037 *  0.694750 *  0.310800 *   0.87073    1.000000    
     99 O2    c    0.303731 *  0.094217 *  0.642265 *   0.87073    1.000000    
    100 O2    c    0.096651 *  0.793289 *  0.477324 *   0.87073    1.000000    
    101 O2    c    0.209078 *  0.290530 *  0.804418 *   0.87073    1.000000    
    102 O2    c    0.685395 *  0.893788 *  0.144841 *   0.87073    1.000000    
    103 O2    c    0.198664 *  0.897646 *  0.351908 *   0.87073    1.000000    
    104 O2    c    0.694581 *  0.806510 *  0.012897 *   0.87073    1.000000    
    105 O2    c    0.101527 *  0.297219 *  0.684296 *   0.87073    1.000000    
    106 O2    c    0.803429 *  0.094430 *  0.849415 *   0.87073    1.000000    
    107 O2    c    0.302044 *  0.201577 *  0.517762 *   0.87073    1.000000    
    108 O2    c    0.873735 *  0.694355 *  0.181967 *   0.87073    1.000000    
    109 O2    c    0.317124 *  0.639142 *  0.249684 *   0.87073    1.000000    
    110 O2    c    0.355621 *  0.672845 *  0.580847 *   0.87073    1.000000    
    111 O3    c    0.304902 *  0.682799 *  0.913464 *   1.33043    1.000000    
    112 O2    c    0.680060 *  0.353451 *  0.746931 *   0.87073    1.000000    
    113 O3    c    0.607291 *  0.297928 *  0.083439 *   1.33043    1.000000    
    114 O2    c    0.676903 *  0.321799 *  0.414340 *   0.87073    1.000000    
    115 O2    c    0.374453 *  0.342434 *  0.962618 *   0.87073    1.000000    
    116 O2    c    0.663269 *  0.040074 *  0.302503 *   0.87073    1.000000    
    117 O2    c    0.957293 *  0.622307 *  0.634566 *   0.87073    1.000000    
    118 O2    c    0.624223 *  0.667060 *  0.468082 *   0.87073    1.000000    
    119 O2    c    0.336321 *  0.951302 *  0.798738 *   0.87073    1.000000    
    120 O3    c    0.024548 *  0.363037 *  0.131947 *   1.33043    1.000000    
    121 O2    c    0.325077 *  0.369395 *  0.360116 *   0.87073    1.000000    
    122 O2    c    0.022415 *  0.660897 *  0.024739 *   0.87073    1.000000    
    123 O2    c    0.630128 *  0.955731 *  0.691517 *   0.87073    1.000000    
    124 O2    c    0.672250 *  0.624750 *  0.858354 *   0.87073    1.000000    
    125 O2    c    0.956080 *  0.327263 *  0.526738 *   0.87073    1.000000    
    126 O2    c    0.357764 *  0.029941 *  0.194268 *   0.87073    1.000000    
    127 O3    c    0.754679 *  0.286736 *  0.001326 *   1.33043    1.000000    
    128 O2    c    0.692343 *  0.463933 *  0.341270 *   0.87073    1.000000    
    129 O2    c    0.535668 *  0.226657 *  0.673064 *   0.87073    1.000000    
    130 O2    c    0.227880 *  0.692146 *  0.507921 *   0.87073    1.000000    
    131 O3    c    0.292336 *  0.520025 *  0.831964 *   1.33043    1.000000    
    132 O2    c    0.457619 *  0.764755 *  0.175894 *   0.87073    1.000000    
    133 O2    c    0.296740 *  0.765044 *  0.321334 *   0.87073    1.000000    
    134 O2    c    0.460443 *  0.703905 *  0.981512 *   0.87073    1.000000    
    135 O2    c    0.233110 *  0.529003 *  0.653349 *   0.87073    1.000000    
    136 O2    c    0.703294 *  0.227646 *  0.818934 *   0.87073    1.000000    
    137 O2    c    0.532572 *  0.300879 *  0.486434 *   0.87073    1.000000    
    138 O2    c    0.741677 *  0.460363 *  0.149559 *   0.87073    1.000000    
    139 O3    c    0.764292 *  0.545480 *  0.020423 *   1.33043    1.000000    
    140 O2    c    0.460672 *  0.245892 *  0.359078 *   0.87073    1.000000    
    141 O2    c    0.755746 *  0.215531 *  0.691415 *   0.87073    1.000000    
    142 O2    c    0.215466 *  0.460762 *  0.525377 *   0.87073    1.000000    
    143 O3    c    0.554146 *  0.763414 *  0.849027 *   1.33043    1.000000    
    144 O2    c    0.233097 *  0.770437 *  0.192915 *   0.87073    1.000000    
    145 O2    c    0.529543 *  0.783061 *  0.304474 *   0.87073    1.000000    
    146 O2    c    0.247264 *  0.471713 *  0.963879 *   0.87073    1.000000    
    147 O2    c    0.216074 *  0.744404 *  0.636023 *   0.87073    1.000000    
    148 O2    c    0.468543 *  0.210358 *  0.801723 *   0.87073    1.000000    
    149 O2    c    0.748323 *  0.532483 *  0.469574 *   0.87073    1.000000    
    150 O2    c    0.771470 *  0.253256 *  0.134563 *   0.87073    1.000000    
    151 O2    c    0.229900 *  0.329628 *  0.891094 *   0.87073    1.000000    
    152 O2    c    0.668554 *  0.904562 *  0.230193 *   0.87073    1.000000    
    153 O2    c    0.090695 *  0.763895 *  0.562111 *   0.87073    1.000000    
    154 O2    c    0.765462 *  0.673423 *  0.395658 *   0.87073    1.000000    
    155 O2    c    0.327323 *  0.088973 *  0.726978 *   0.87073    1.000000    
    156 O2    c    0.886964 *  0.226907 *  0.060383 *   0.87073    1.000000    
    157 O2    c    0.320524 *  0.229699 *  0.433011 *   0.87073    1.000000    
    158 O2    c    0.887959 *  0.665616 *  0.096679 *   0.87073    1.000000    
    159 O2    c    0.773397 *  0.089219 *  0.764747 *   0.87073    1.000000    
    160 O2    c    0.667568 *  0.771073 *  0.927661 *   0.87073    1.000000    
    161 O2    c    0.093490 *  0.320212 *  0.599544 *   0.87073    1.000000    
    162 O2    c    0.220162 *  0.898221 *  0.266951 *   0.87073    1.000000    
    163 O2    c    0.577735 *  0.566528 *  0.982342 *   0.87073    1.000000    
    164 O2    c    0.433952 *  0.021933 *  0.322358 *   0.87073    1.000000    
    165 O2    c    0.974846 *  0.410477 *  0.654628 *   0.87073    1.000000    
    166 O2    c    0.412864 *  0.438804 *  0.488388 *   0.87073    1.000000    
    167 O2    c    0.564695 *  0.970574 *  0.820147 *   0.87073    1.000000    
    168 O3    c    0.995012 *  0.575446 *  0.155618 *   1.33043    1.000000    
    169 O2    c    0.553607 *  0.584558 *  0.340362 *   0.87073    1.000000    
    170 O2    c    0.011710 *  0.435960 *  0.007998 *   0.87073    1.000000    
    171 O2    c    0.414280 *  0.967033 *  0.672233 *   0.87073    1.000000    
    172 O2    c    0.443156 *  0.415956 *  0.839555 *   0.87073    1.000000    
    173 O2    c    0.968617 *  0.555534 *  0.506707 *   0.87073    1.000000    
    174 O2    c    0.577289 *  0.023447 *  0.174952 *   0.87073    1.000000    
    175 O2    c    0.569279 *  0.156762 *  0.249429 *   0.87073    1.000000    
    176 O2    c    0.834737 *  0.414097 *  0.580947 *   0.87073    1.000000    
    177 O2    c    0.583892 *  0.425947 *  0.913110 *   0.87073    1.000000    
    178 O2    c    0.425532 *  0.832537 *  0.746089 *   0.87073    1.000000    
    179 O3    c    0.147311 *  0.585226 *  0.079031 *   1.33043    1.000000    
    180 O2    c    0.412735 *  0.577820 *  0.414846 *   0.87073    1.000000    
    181 F     c    0.438694 *  0.894208 *  0.246548 *   0.56000    1.000000    
    182 F     c    0.096890 *  0.543805 *  0.579527 *   0.56000    1.000000    
    183 F     c    0.438465 *  0.575918 *  0.902174 *   0.56000    1.000000    
    184 F     c    0.555606 *  0.099150 *  0.744967 *   0.56000    1.000000    
    185 F     c    0.848275 *  0.433436 *  0.070788 *   0.56000    1.000000    
    186 F     c    0.545058 *  0.448907 *  0.412815 *   0.56000    1.000000    
    187 O2    s    0.928076 *  0.008162 *  0.998180 *  -2.87073    1.000000    
    188 O2    s    0.995930 *  0.922129 *  0.330040 *  -2.87073    1.000000    
    189 O2    s    0.075330 *  0.071109 *  0.661107 *  -2.87073    1.000000    
    190 O2    s    0.074431 *  0.998582 *  0.495952 *  -2.87073    1.000000    
    191 O2    s    0.008978 *  0.072862 *  0.829597 *  -2.87073    1.000000    
    192 O2    s    0.916847 *  0.926190 *  0.163629 *  -2.87073    1.000000    
    193 O2    s    0.347335 *  0.582777 *  0.332159 *  -2.87073    1.000000    
    194 O2    s    0.416559 *  0.762035 *  0.663173 *  -2.87073    1.000000    
    195 O2    s    0.220729 *  0.645836 *  0.996909 *  -2.87073    1.000000    
    196 O2    s    0.649534 *  0.409083 *  0.830111 *  -2.87073    1.000000    
    197 O2    s    0.568261 *  0.224279 *  0.167843 *  -2.87073    1.000000    
    198 O2    s    0.765267 *  0.350362 *  0.497482 *  -2.87073    1.000000    
    199 O3    s    0.573195 *  0.353154 *  0.996220 *  -3.33043    1.000000    
    200 O2    s    0.768069 *  0.410888 *  0.664293 *  -2.87073    1.000000    
    201 O2    s    0.641985 *  0.230633 *  0.331985 *  -2.87073    1.000000    
    202 O2    s    0.411542 *  0.643563 *  0.497989 *  -2.87073    1.000000    
    203 O3    s    0.228018 *  0.581295 *  0.168162 *  -3.33043    1.000000    
    204 O3    s    0.355733 *  0.765134 *  0.827930 *  -3.33043    1.000000    
    205 O2    s    0.123909 *  0.222299 *  0.964927 *  -2.87073    1.000000    
    206 O2    s    0.777474 *  0.902227 *  0.301934 *  -2.87073    1.000000    
    207 O2    s    0.095792 *  0.873488 *  0.633575 *  -2.87073    1.000000    
    208 O2    s    0.875878 *  0.780460 *  0.467567 *  -2.87073    1.000000    
    209 O2    s    0.219053 *  0.083487 *  0.798335 *  -2.87073    1.000000    
    210 O2    s    0.885512 *  0.115482 *  0.133243 *  -2.87073    1.000000    
    211 O2    s    0.211701 *  0.117907 *  0.361342 *  -2.87073    1.000000    
    212 O2    s    0.900734 *  0.791969 *  0.027036 *  -2.87073    1.000000    
    213 O2    s    0.880020 *  0.092185 *  0.691910 *  -2.87073    1.000000    
    214 O2    s    0.800127 *  0.877750 *  0.858929 *  -2.87073    1.000000    
    215 O2    s    0.094070 *  0.213202 *  0.527572 *  -2.87073    1.000000    
    216 O2    s    0.105304 *  0.891030 *  0.194389 *  -2.87073    1.000000    
    217 O2    s    0.917561 *  0.854745 *  0.247022 *  -2.87073    1.000000    
    218 O2    s    0.140480 *  0.062996 *  0.579017 *  -2.87073    1.000000    
    219 O2    s    0.936512 *  0.067876 *  0.913101 *  -2.87073    1.000000    
    220 O2    s    0.068570 *  0.125548 *  0.744733 *  -2.87073    1.000000    
    221 O2    s    0.844992 *  0.928378 *  0.080148 *  -2.87073    1.000000    
    222 O2    s    0.064995 *  0.924552 *  0.413673 *  -2.87073    1.000000    
    223 O2    s    0.908093 *  0.203568 *  0.976443 *  -2.87073    1.000000    
    224 O2    s    0.789808 *  0.701044 *  0.313352 *  -2.87073    1.000000    
    225 O2    s    0.297313 *  0.086519 *  0.644859 *  -2.87073    1.000000    
    226 O2    s    0.089011 *  0.792045 *  0.479831 *  -2.87073    1.000000    
    227 O2    s    0.209271 *  0.284858 *  0.807452 *  -2.87073    1.000000    
    228 O2    s    0.691762 *  0.901962 *  0.147342 *  -2.87073    1.000000    
    229 O2    s    0.199892 *  0.905039 *  0.349153 *  -2.87073    1.000000    
    230 O2    s    0.700632 *  0.804832 *  0.010686 *  -2.87073    1.000000    
    231 O2    s    0.093869 *  0.291189 *  0.681517 *  -2.87073    1.000000    
    232 O2    s    0.802435 *  0.087209 *  0.846867 *  -2.87073    1.000000    
    233 O2    s    0.295848 *  0.202922 *  0.515040 *  -2.87073    1.000000    
    234 O2    s    0.882450 *  0.700163 *  0.179672 *  -2.87073    1.000000    
    235 O2    s    0.322831 *  0.651045 *  0.249661 *  -2.87073    1.000000    
    236 O2    s    0.343743 *  0.666915 *  0.580785 *  -2.87073    1.000000    
    237 O3    s    0.310619 *  0.675824 *  0.915489 *  -3.33043    1.000000    
    238 O2    s    0.674348 *  0.341538 *  0.746919 *  -2.87073    1.000000    
    239 O3    s    0.620169 *  0.304410 *  0.085017 *  -3.33043    1.000000    
    240 O2    s    0.670705 *  0.327440 *  0.414303 *  -2.87073    1.000000    
    241 O2    s    0.376427 *  0.350981 *  0.960854 *  -2.87073    1.000000    
    242 O2    s    0.653204 *  0.033234 *  0.300387 *  -2.87073    1.000000    
    243 O2    s    0.964067 *  0.619131 *  0.632402 *  -2.87073    1.000000    
    244 O2    s    0.620962 *  0.656976 *  0.465931 *  -2.87073    1.000000    
    245 O2    s    0.345862 *  0.958612 *  0.796696 *  -2.87073    1.000000    
    246 O3    s    0.016857 *  0.364041 *  0.130290 *  -3.33043    1.000000    
    247 O2    s    0.335213 *  0.372665 *  0.362481 *  -2.87073    1.000000    
    248 O2    s    0.017082 *  0.652240 *  0.026724 *  -2.87073    1.000000    
    249 O2    s    0.626845 *  0.962272 *  0.693922 *  -2.87073    1.000000    
    250 O2    s    0.662876 *  0.621651 *  0.860063 *  -2.87073    1.000000    
    251 O2    s    0.962994 *  0.337334 *  0.529059 *  -2.87073    1.000000    
    252 O2    s    0.361083 *  0.023469 *  0.196663 *  -2.87073    1.000000    
    253 O3    s    0.764934 *  0.293278 *  0.004656 *  -3.33043    1.000000    
    254 O2    s    0.684866 *  0.463458 *  0.344481 *  -2.87073    1.000000    
    255 O2    s    0.536309 *  0.219663 *  0.676343 *  -2.87073    1.000000    
    256 O2    s    0.220844 *  0.684624 *  0.511101 *  -2.87073    1.000000    
    257 O3    s    0.299126 *  0.516274 *  0.835327 *  -3.33043    1.000000    
    258 O2    s    0.457242 *  0.771757 *  0.179181 *  -2.87073    1.000000    
    259 O2    s    0.304361 *  0.772052 *  0.318254 *  -2.87073    1.000000    
    260 O2    s    0.460325 *  0.697005 *  0.978870 *  -2.87073    1.000000    
    261 O2    s    0.225845 *  0.529459 *  0.650296 *  -2.87073    1.000000    
    262 O2    s    0.695309 *  0.220647 *  0.815856 *  -2.87073    1.000000    
    263 O2    s    0.533017 *  0.308575 *  0.483435 *  -2.87073    1.000000    
    264 O2    s    0.748925 *  0.460001 *  0.147285 *  -2.87073    1.000000    
    265 O3    s    0.774260 *  0.547402 *  0.023495 *  -3.33043    1.000000    
    266 O2    s    0.463450 *  0.254019 *  0.361703 *  -2.87073    1.000000    
    267 O2    s    0.747288 *  0.209877 *  0.693990 *  -2.87073    1.000000    
    268 O2    s    0.210131 *  0.463555 *  0.528029 *  -2.87073    1.000000    
    269 O3    s    0.555662 *  0.755913 *  0.852511 *  -3.33043    1.000000    
    270 O2    s    0.241446 *  0.776401 *  0.195530 *  -2.87073    1.000000    
    271 O2    s    0.526642 *  0.787793 *  0.301858 *  -2.87073    1.000000    
    272 O2    s    0.253765 *  0.473738 *  0.961672 *  -2.87073    1.000000    
    273 O2    s    0.210869 *  0.736720 *  0.633415 *  -2.87073    1.000000    
    274 O2    s    0.471746 *  0.205409 *  0.799093 *  -2.87073    1.000000    
    275 O2    s    0.740494 *  0.529819 *  0.466972 *  -2.87073    1.000000    
    276 O2    s    0.774504 *  0.258140 *  0.132181 *  -2.87073    1.000000    
    277 O2    s    0.238460 *  0.337677 *  0.892111 *  -2.87073    1.000000    
    278 O2    s    0.658951 *  0.904268 *  0.231035 *  -2.87073    1.000000    
    279 O2    s    0.090965 *  0.754482 *  0.562922 *  -2.87073    1.000000    
    280 O2    s    0.755955 *  0.663825 *  0.396478 *  -2.87073    1.000000    
    281 O2    s    0.337049 *  0.088719 *  0.727805 *  -2.87073    1.000000    
    282 O2    s    0.887504 *  0.235120 *  0.061274 *  -2.87073    1.000000    
    283 O2    s    0.330120 *  0.238859 *  0.432064 *  -2.87073    1.000000    
    284 O2    s    0.886910 *  0.657351 *  0.096363 *  -2.87073    1.000000    
    285 O2    s    0.763940 *  0.089507 *  0.763810 *  -2.87073    1.000000    
    286 O2    s    0.659902 *  0.762498 *  0.927283 *  -2.87073    1.000000    
    287 O2    s    0.093640 *  0.329706 *  0.598622 *  -2.87073    1.000000    
    288 O2    s    0.229482 *  0.898088 *  0.265996 *  -2.87073    1.000000    
    289 O2    s    0.574906 *  0.567122 *  0.979608 *  -2.87073    1.000000    
    290 O2    s    0.433807 *  0.017472 *  0.319055 *  -2.87073    1.000000    
    291 O2    s    0.979433 *  0.414775 *  0.651346 *  -2.87073    1.000000    
    292 O2    s    0.417066 *  0.438443 *  0.485047 *  -2.87073    1.000000    
    293 O2    s    0.565646 *  0.975218 *  0.816880 *  -2.87073    1.000000    
    294 O3    s    0.991279 *  0.573568 *  0.152624 *  -3.33043    1.000000    
    295 O2    s    0.554140 *  0.579735 *  0.343780 *  -2.87073    1.000000    
    296 O2    s    0.008004 *  0.436513 *  0.010469 *  -2.87073    1.000000    
    297 O2    s    0.419239 *  0.972185 *  0.675573 *  -2.87073    1.000000    
    298 O2    s    0.443544 *  0.419611 *  0.842191 *  -2.87073    1.000000    
    299 O2    s    0.973987 *  0.555955 *  0.510113 *  -2.87073    1.000000    
    300 O2    s    0.572286 *  0.018044 *  0.178326 *  -2.87073    1.000000    
    301 O2    s    0.564124 *  0.145851 *  0.249486 *  -2.87073    1.000000    
    302 O2    s    0.845766 *  0.419584 *  0.580929 *  -2.87073    1.000000    
    303 O2    s    0.578885 *  0.430144 *  0.912815 *  -2.87073    1.000000    
    304 O2    s    0.430344 *  0.842766 *  0.745833 *  -2.87073    1.000000    
    305 O3    s    0.138415 *  0.580130 *  0.078484 *  -3.33043    1.000000    
    306 O2    s    0.418458 *  0.572432 *  0.414818 *  -2.87073    1.000000    
    307 F     s    0.438090 *  0.893440 *  0.246274 *  -1.56000    1.000000    
    308 F     s    0.097349 *  0.543977 *  0.579357 *  -1.56000    1.000000    
    309 F     s    0.434500 *  0.582712 *  0.899460 *  -1.56000    1.000000    
    310 F     s    0.556193 *  0.100319 *  0.744806 *  -1.56000    1.000000    
    311 F     s    0.838252 *  0.429594 *  0.068395 *  -1.56000    1.000000    
    312 F     s    0.545226 *  0.448683 *  0.412614 *  -1.56000    1.000000    
--------------------------------------------------------------------------------



********************************************************************************
*  General input information                                                   *
********************************************************************************

  Species output for all configurations : 

--------------------------------------------------------------------------------
  Species    Type    Atomic    Atomic    Charge       Radii (Angs)     Library
                     Number     Mass       (e)     Cova   Ionic  VDW   Symbol
--------------------------------------------------------------------------------
    Si       Core       14      28.09   4.000000   1.200  0.000  2.100          
    O1       Core        8      16.00   1.733957   0.730  0.000  1.360          
    O1       Shell       8       0.00  -3.733957   0.730  0.000  1.360          
    O2       Core        8      16.00   0.870733   0.730  0.000  1.360          
    O2       Shell       8       0.00  -2.870733   0.730  0.000  1.360          
    O3       Core        8      16.00   1.330431   0.730  0.000  1.360          
    O3       Shell       8       0.00  -3.330431   0.730  0.000  1.360          
    F        Core        9      19.00   0.560000   0.710  0.000  1.300          
    F        Shell       9       0.00  -1.560000   0.710  0.000  1.300          
    Ge       Core       32      72.61   4.000000   1.170  0.000  1.750          
--------------------------------------------------------------------------------


  Lattice summation method               =    Ewald          (3-D)
                                         =    Parry          (2-D)
                                         =    Saunders et al (1-D)
  Accuracy factor for lattice sums       =   12.000


  Time limit = Infinity

  Maximum range for interatomic potentials =        16.000000 Angstroms

  Taper potentials to zero over   1.0000 Angstroms using polynomial

  General interatomic potentials :

--------------------------------------------------------------------------------
Atom  Types   Potential         A         B         C         D     Cutoffs(Ang)
  1     2                                                            Min    Max 
--------------------------------------------------------------------------------
Si   c O1   s Buckingham    0.132E+04 0.318      10.1      0.00     0.000 16.000
Si   c O2   s Buckingham    0.132E+04 0.318      10.1      0.00     0.000 16.000
Si   c O3   s Buckingham    0.132E+04 0.318      10.1      0.00     0.000 16.000
Ge   c O1   s Buckingham    0.150E+04 0.326      16.8      0.00     0.000 16.000
Ge   c O2   s Buckingham    0.150E+04 0.326      16.8      0.00     0.000 16.000
Ge   c O3   s Buckingham    0.150E+04 0.326      16.8      0.00     0.000 16.000
O1   s O1   s Buckingham    0.228E+05 0.149      10.9      0.00     0.000 16.000
O1   s O2   s Buckingham    0.228E+05 0.149      10.9      0.00     0.000 16.000
O1   s O3   s Buckingham    0.228E+05 0.149      10.9      0.00     0.000 16.000
O2   s O2   s Buckingham    0.228E+05 0.149      10.9      0.00     0.000 16.000
O2   s O3   s Buckingham    0.228E+05 0.149      10.9      0.00     0.000 16.000
O3   s O3   s Buckingham    0.228E+05 0.149      10.9      0.00     0.000 16.000
Si   c F    s Buckingham     977.     0.282      0.00      0.00     0.000 16.000
Ge   c F    s Buckingham     681.     0.320      0.00      0.00     0.000 16.000
F    s F    s Buckingham     540.     0.262      0.00      0.00     0.000 16.000
O1   s F    s Buckingham    0.168E+04 0.268      0.00      0.00     0.000 16.000
O2   s F    s Buckingham    0.168E+04 0.268      0.00      0.00     0.000 16.000
O3   s F    s Buckingham    0.168E+04 0.268      0.00      0.00     0.000 16.000
O2   c O2   s Spring (c-s)   76.0      0.00      0.00      0.00     0.000  0.800
O3   c O3   s Spring (c-s)   128.      0.00      0.00      0.00     0.000  0.800
O1   c O1   s Spring (c-s)   180.      0.00      0.00      0.00     0.000  0.800
F    c F    s Spring (c-s)   33.5      0.00      0.00      0.00     0.000  0.800
--------------------------------------------------------------------------------

  General Three-body potentials :

  Harmonic form:

--------------------------------------------------------------------------------
Atom    Atom    Atom           Force Constants            Theta     Cutoffs  
  1       2       3     (eVrad**-2/eVrad**-3/eVrad**-4)   (deg)  1-2  1-3  2-3
--------------------------------------------------------------------------------
Si    c O1    s O1    s  1.261        0.0000    0.0000   109.470 0.00 0.00 0.00
                                                                 1.90 1.90 3.50
Si    c O1    s O2    s  1.261        0.0000    0.0000   109.470 0.00 0.00 0.00
                                                                 1.90 1.90 3.50
Si    c O2    s O2    s  1.261        0.0000    0.0000   109.470 0.00 0.00 0.00
                                                                 1.90 1.90 3.50
--------------------------------------------------------------------------------

********************************************************************************
*  Output for configuration   1                                                *
********************************************************************************


  Components of energy : 

--------------------------------------------------------------------------------
  Interatomic potentials     =        2063.83108480 eV
  Three-body potentials      =           0.44825359 eV
  Monopole - monopole (real) =       -6613.32450130 eV
  Monopole - monopole (recip)=       -3171.55326363 eV
  Monopole - monopole (total)=       -9784.87776493 eV
  Neutralising energy        =          -6.46045954 eV
--------------------------------------------------------------------------------
  Total lattice energy       =       -7727.05888608 eV
--------------------------------------------------------------------------------
  Total lattice energy       =         -745543.0636 kJ/(mole unit cells)
--------------------------------------------------------------------------------


  Number of variables =      939

  Maximum number of calculations  =          5000
  Maximum Hessian update interval =            10
  Maximum step size               =   0.100000000
  Maximum parameter tolerance     =   0.000010000
  Maximum function  tolerance     =   0.000010000
  Maximum gradient  tolerance     =   0.001000000
  Maximum gradient  component     =   0.010000000

  Symmetry not applied to optimisation

  Cell parameters to be optimised using strains

  Newton-Raphson optimiser to be used

  BFGS hessian update to be used

  Dumpfile to be written after every cycle

  Start of bulk optimisation :

  Cycle:      0 Energy:     -7727.058886  Gnorm:      0.000487  CPU:    2.007
  ** Hessian calculated **
  Cycle:      1 Energy:     -7727.072210  Gnorm:      0.000448  CPU:    6.559
  Cycle:      2 Energy:     -7727.087715  Gnorm:      0.000583  CPU:   10.734
  Cycle:      3 Energy:     -7727.103737  Gnorm:      0.001067  CPU:   14.910
  Cycle:      4 Energy:     -7727.110537  Gnorm:      0.001116  CPU:   19.087
  Cycle:      5 Energy:     -7727.112228  Gnorm:      0.000746  CPU:   23.263
  Cycle:      6 Energy:     -7727.112656  Gnorm:      0.000430  CPU:   27.439
  Cycle:      7 Energy:     -7727.112765  Gnorm:      0.000231  CPU:   31.616
  Cycle:      8 Energy:     -7727.112784  Gnorm:      0.000165  CPU:   34.437
  Cycle:      9 Energy:     -7727.112793  Gnorm:      0.000116  CPU:   37.257
  Cycle:     10 Energy:     -7727.112798  Gnorm:      0.000082  CPU:   40.088
  ** Hessian calculated **
  Cycle:     11 Energy:     -7727.112798  Gnorm:      0.000044  CPU:   44.603
  Cycle:     12 Energy:     -7727.112798  Gnorm:      0.000033  CPU:   47.426


  **** Optimisation achieved ****


  Final energy =   -7727.11279780 eV
  Final Gnorm  =       0.00002383

  Components of energy : 

--------------------------------------------------------------------------------
  Interatomic potentials     =        2064.12290127 eV
  Three-body potentials      =           0.44768397 eV
  Monopole - monopole (real) =       -6614.22355064 eV
  Monopole - monopole (recip)=       -3171.00049682 eV
  Monopole - monopole (total)=       -9785.22404746 eV
  Neutralising energy        =          -6.45933558 eV
--------------------------------------------------------------------------------
  Total lattice energy       =       -7727.11279780 eV
--------------------------------------------------------------------------------
  Total lattice energy       =         -745548.2653 kJ/(mole unit cells)
--------------------------------------------------------------------------------

  Final fractional coordinates of atoms :

--------------------------------------------------------------------------------
   No.  Atomic        x           y          z          Radius
        Label       (Frac)      (Frac)     (Frac)       (Angs) 
--------------------------------------------------------------------------------
     1  Ge    c     0.699600    0.375700    0.033890    0.000000
     2  Si    c     0.598640    0.306353    0.364179    0.000000
     3  Si    c     0.662233    0.277883    0.696314    0.000000
     4  Si    c     0.279664    0.600480    0.531672    0.000000
     5  Ge    c     0.374445    0.653444    0.865320    0.000000
     6  Si    c     0.300863    0.681997    0.201095    0.000000
     7  Si    c     0.356198    0.683114    0.301415    0.000000
     8  Si    c     0.303172    0.616278    0.963127    0.000000
     9  Si    c     0.282839    0.655832    0.632194    0.000000
    10  Si    c     0.611127    0.281188    0.796648    0.000000
    11  Si    c     0.658928    0.359482    0.464698    0.000000
    12  Si    c     0.658475    0.298764    0.131329    0.000000
    13  Si    c     0.524310    0.411275    0.963710    0.000000
    14  Si    c     0.556904    0.094313    0.299721    0.000000
    15  Si    c     0.871223    0.449434    0.631608    0.000000
    16  Si    c     0.450824    0.562247    0.467090    0.000000
    17  Si    c     0.407773    0.866392    0.799170    0.000000
    18  Ge    c     0.083691    0.515179    0.135138    0.000000
    19  Si    c     0.395172    0.509534    0.365502    0.000000
    20  Si    c     0.093227    0.572516    0.030127    0.000000
    21  Si    c     0.457289    0.868052    0.696603    0.000000
    22  Si    c     0.575266    0.459087    0.860111    0.000000
    23  Si    c     0.871633    0.398563    0.529839    0.000000
    24  Si    c     0.497575    0.087387    0.197875    0.000000
    25  Si    c     0.286478    0.383225    0.842755    0.000000
    26  Si    c     0.575029    0.883142    0.183889    0.000000
    27  Si    c     0.078787    0.677990    0.515961    0.000000
    28  Si    c     0.675482    0.583238    0.349732    0.000000
    29  Si    c     0.385153    0.076445    0.681407    0.000000
    30  Si    c     0.882105    0.284953    0.012181    0.000000
    31  Si    c     0.380193    0.281736    0.480115    0.000000
    32  Si    c     0.861788    0.582583    0.145941    0.000000
    33  Si    c     0.689699    0.081039    0.811604    0.000000
    34  Si    c     0.589338    0.695877    0.974586    0.000000
    35  Si    c     0.082266    0.377860    0.646303    0.000000
    36  Si    c     0.276131    0.882601    0.313501    0.000000
    37  Si    c     0.240905    0.334661    0.945822    0.000000
    38  Si    c     0.635916    0.893627    0.284968    0.000000
    39  Si    c     0.072166    0.727532    0.616683    0.000000
    40  Si    c     0.729721    0.640032    0.450578    0.000000
    41  Si    c     0.331550    0.069363    0.781861    0.000000
    42  Si    c     0.877739    0.231119    0.115452    0.000000
    43  Si    c     0.317386    0.231798    0.379341    0.000000
    44  Si    c     0.889973    0.655915    0.043169    0.000000
    45  Si    c     0.735931    0.071125    0.710849    0.000000
    46  Si    c     0.657110    0.743202    0.872273    0.000000
    47  Si    c     0.073195    0.320551    0.545431    0.000000
    48  Si    c     0.218957    0.883012    0.212482    0.000000
    49  Si    c     0.965933    0.114584    0.963358    0.000000
    50  Si    c     0.853632    0.830831    0.298958    0.000000
    51  Si    c     0.134549    0.006749    0.630672    0.000000
    52  Si    c     0.009771    0.858197    0.465258    0.000000
    53  Si    c     0.112795    0.128460    0.795459    0.000000
    54  Si    c     0.819729    0.953518    0.131643    0.000000
    55  Si    c     0.098777    0.952394    0.364351    0.000000
    56  Si    c     0.836133    0.876484    0.029477    0.000000
    57  Si    c     0.013859    0.128572    0.695423    0.000000
    58  Si    c     0.875985    0.017280    0.862385    0.000000
    59  Si    c     0.133226    0.101441    0.530054    0.000000
    60  Si    c     0.938711    0.829963    0.197068    0.000000
    61  O2    c     0.923892    0.001610    0.999912    0.000000
    62  O2    c     0.977630    0.911304    0.330842    0.000000
    63  O2    c     0.054564    0.050284    0.661990    0.000000
    64  O2    c     0.052680    0.981703    0.496640    0.000000
    65  O2    c     0.999000    0.061781    0.831238    0.000000
    66  O2    c     0.905622    0.917537    0.164452    0.000000
    67  O2    c     0.317854    0.561192    0.334063    0.000000
    68  O2    c     0.406835    0.741266    0.664673    0.000000
    69  O2    c     0.221221    0.646828    0.999817    0.000000
    70  O2    c     0.648933    0.404801    0.829115    0.000000
    71  O2    c     0.544623    0.214268    0.166870    0.000000
    72  O2    c     0.745425    0.321548    0.496991    0.000000
    73  O3    c     0.566674    0.336600    0.996572    0.000000
    74  O2    c     0.746088    0.400721    0.663541    0.000000
    75  O2    c     0.635060    0.220674    0.331217    0.000000
    76  O2    c     0.403492    0.638941    0.499476    0.000000
    77  O3    c     0.214482    0.556891    0.170414    0.000000
    78  O3    c     0.331511    0.747218    0.830618    0.000000
    79  O2    c     0.120043    0.207388    0.967500    0.000000
    80  O2    c     0.763547    0.894963    0.305090    0.000000
    81  O2    c     0.071483    0.853187    0.636521    0.000000
    82  O2    c     0.855731    0.766262    0.470821    0.000000
    83  O2    c     0.202677    0.064592    0.801739    0.000000
    84  O2    c     0.874695    0.105307    0.136933    0.000000
    85  O2    c     0.189609    0.106053    0.359436    0.000000
    86  O2    c     0.908079    0.793429    0.027320    0.000000
    87  O2    c     0.859949    0.068495    0.689944    0.000000
    88  O2    c     0.794187    0.863566    0.856643    0.000000
    89  O2    c     0.071492    0.193939    0.525169    0.000000
    90  O2    c     0.091441    0.881624    0.191958    0.000000
    91  O2    c     0.902638    0.844039    0.247890    0.000000
    92  O2    c     0.119872    0.044620    0.579805    0.000000
    93  O2    c     0.924250    0.053880    0.913959    0.000000
    94  O2    c     0.051445    0.107822    0.745656    0.000000
    95  O2    c     0.832024    0.917919    0.080692    0.000000
    96  O2    c     0.045572    0.909585    0.414386    0.000000
    97  O2    c     0.897295    0.197492    0.974038    0.000000
    98  O2    c     0.772088    0.680028    0.311218    0.000000
    99  O2    c     0.286500    0.076374    0.642731    0.000000
   100  O2    c     0.080553    0.777103    0.477594    0.000000
   101  O2    c     0.197803    0.280047    0.804520    0.000000
   102  O2    c     0.669002    0.879351    0.145228    0.000000
   103  O2    c     0.180673    0.883139    0.351966    0.000000
   104  O2    c     0.687969    0.794338    0.012800    0.000000
   105  O2    c     0.084462    0.280670    0.684459    0.000000
   106  O2    c     0.790470    0.083377    0.849979    0.000000
   107  O2    c     0.285138    0.183185    0.518227    0.000000
   108  O2    c     0.857336    0.679792    0.183317    0.000000
   109  O2    c     0.300645    0.624241    0.251156    0.000000
   110  O2    c     0.339082    0.657048    0.581838    0.000000
   111  O3    c     0.295061    0.670711    0.915113    0.000000
   112  O2    c     0.664859    0.338465    0.746186    0.000000
   113  O3    c     0.600342    0.292851    0.082171    0.000000
   114  O2    c     0.658593    0.304717    0.413986    0.000000
   115  O2    c     0.366917    0.330752    0.962807    0.000000
   116  O2    c     0.644947    0.025809    0.302179    0.000000
   117  O2    c     0.939936    0.605205    0.634363    0.000000
   118  O2    c     0.607445    0.649451    0.469046    0.000000
   119  O2    c     0.322494    0.938831    0.799751    0.000000
   120  O3    c     0.009897    0.349230    0.133119    0.000000
   121  O2    c     0.306781    0.354110    0.361059    0.000000
   122  O2    c     0.019855    0.655619    0.026838    0.000000
   123  O2    c     0.613609    0.939095    0.692342    0.000000
   124  O2    c     0.661677    0.614463    0.857629    0.000000
   125  O2    c     0.940463    0.311160    0.526545    0.000000
   126  O2    c     0.340619    0.014662    0.193697    0.000000
   127  O3    c     0.752692    0.285294    0.001150    0.000000
   128  O2    c     0.673435    0.448609    0.341334    0.000000
   129  O2    c     0.519010    0.209433    0.672814    0.000000
   130  O2    c     0.212306    0.676289    0.508428    0.000000
   131  O3    c     0.280493    0.509221    0.832800    0.000000
   132  O2    c     0.440947    0.749254    0.176522    0.000000
   133  O2    c     0.279379    0.751070    0.322164    0.000000
   134  O2    c     0.453304    0.692316    0.982255    0.000000
   135  O2    c     0.215612    0.512317    0.653904    0.000000
   136  O2    c     0.689910    0.215442    0.818759    0.000000
   137  O2    c     0.515656    0.282922    0.486587    0.000000
   138  O2    c     0.727148    0.448048    0.149727    0.000000
   139  O3    c     0.763271    0.543949    0.021032    0.000000
   140  O2    c     0.441874    0.230134    0.359177    0.000000
   141  O2    c     0.739234    0.198531    0.691218    0.000000
   142  O2    c     0.199808    0.444895    0.525974    0.000000
   143  O3    c     0.542481    0.752330    0.849348    0.000000
   144  O2    c     0.216085    0.754928    0.193233    0.000000
   145  O2    c     0.512322    0.769301    0.305581    0.000000
   146  O2    c     0.239809    0.459896    0.964954    0.000000
   147  O2    c     0.198619    0.727717    0.636613    0.000000
   148  O2    c     0.455169    0.197898    0.801841    0.000000
   149  O2    c     0.731152    0.514743    0.469604    0.000000
   150  O2    c     0.756582    0.240826    0.134357    0.000000
   151  O2    c     0.221438    0.318949    0.891494    0.000000
   152  O2    c     0.650703    0.889349    0.230616    0.000000
   153  O2    c     0.074248    0.747430    0.562289    0.000000
   154  O2    c     0.747486    0.657053    0.396156    0.000000
   155  O2    c     0.312217    0.074558    0.727545    0.000000
   156  O2    c     0.875908    0.216554    0.060910    0.000000
   157  O2    c     0.302987    0.213109    0.433617    0.000000
   158  O2    c     0.881102    0.656921    0.098452    0.000000
   159  O2    c     0.758040    0.074520    0.765205    0.000000
   160  O2    c     0.658251    0.760124    0.927453    0.000000
   161  O2    c     0.076832    0.303755    0.599729    0.000000
   162  O2    c     0.202754    0.883181    0.266880    0.000000
   163  O2    c     0.570596    0.555475    0.981908    0.000000
   164  O2    c     0.415836    0.007718    0.321792    0.000000
   165  O2    c     0.957487    0.393446    0.654436    0.000000
   166  O2    c     0.396491    0.421251    0.489467    0.000000
   167  O2    c     0.550966    0.958771    0.821184    0.000000
   168  O3    c     0.979298    0.559590    0.157826    0.000000
   169  O2    c     0.535163    0.569376    0.341311    0.000000
   170  O2    c     0.007410    0.428764    0.010101    0.000000
   171  O2    c     0.397244    0.950023    0.673194    0.000000
   172  O2    c     0.432492    0.406505    0.838806    0.000000
   173  O2    c     0.953005    0.539315    0.506510    0.000000
   174  O2    c     0.559751    0.007979    0.174736    0.000000
   175  O2    c     0.551062    0.141686    0.248541    0.000000
   176  O2    c     0.818395    0.397506    0.580414    0.000000
   177  O2    c     0.573564    0.414839    0.912102    0.000000
   178  O2    c     0.410610    0.818113    0.747536    0.000000
   179  O3    c     0.138291    0.575535    0.081778    0.000000
   180  O2    c     0.395237    0.561092    0.416307    0.000000
   181  F     c     0.419798    0.876969    0.246436    0.000000
   182  F     c     0.080750    0.527820    0.579618    0.000000
   183  F     c     0.428786    0.564500    0.902514    0.000000
   184  F     c     0.540215    0.084345    0.745233    0.000000
   185  F     c     0.843120    0.427660    0.071956    0.000000
   186  F     c     0.526964    0.431678    0.413318    0.000000
   187  O2    s     0.918668    0.000052    0.999198    0.000000
   188  O2    s     0.977159    0.906809    0.330982    0.000000
   189  O2    s     0.059021    0.054156    0.662206    0.000000
   190  O2    s     0.056791    0.981102    0.496817    0.000000
   191  O2    s     0.997787    0.064290    0.830747    0.000000
   192  O2    s     0.899869    0.911857    0.164448    0.000000
   193  O2    s     0.329816    0.568743    0.333834    0.000000
   194  O2    s     0.399012    0.745200    0.664508    0.000000
   195  O2    s     0.215905    0.635788    0.999324    0.000000
   196  O2    s     0.637470    0.397975    0.829053    0.000000
   197  O2    s     0.551514    0.209802    0.166410    0.000000
   198  O2    s     0.749223    0.333350    0.496944    0.000000
   199  O3    s     0.571120    0.347677    0.995485    0.000000
   200  O2    s     0.750702    0.393406    0.663522    0.000000
   201  O2    s     0.623172    0.216059    0.331244    0.000000
   202  O2    s     0.395901    0.626990    0.499350    0.000000
   203  O3    s     0.212105    0.565515    0.170483    0.000000
   204  O3    s     0.342953    0.753624    0.829640    0.000000
   205  O2    s     0.115809    0.210405    0.964862    0.000000
   206  O2    s     0.759760    0.888030    0.302359    0.000000
   207  O2    s     0.078211    0.856412    0.633875    0.000000
   208  O2    s     0.858968    0.762886    0.468150    0.000000
   209  O2    s     0.206076    0.072030    0.799046    0.000000
   210  O2    s     0.869022    0.101959    0.134133    0.000000
   211  O2    s     0.193107    0.102687    0.361976    0.000000
   212  O2    s     0.898467    0.788159    0.029188    0.000000
   213  O2    s     0.863759    0.075249    0.692659    0.000000
   214  O2    s     0.788869    0.867667    0.858857    0.000000
   215  O2    s     0.078247    0.197098    0.527742    0.000000
   216  O2    s     0.088448    0.876266    0.194605    0.000000
   217  O2    s     0.901253    0.840977    0.247846    0.000000
   218  O2    s     0.123056    0.046897    0.579805    0.000000
   219  O2    s     0.923725    0.056838    0.913942    0.000000
   220  O2    s     0.054128    0.112496    0.745608    0.000000
   221  O2    s     0.831088    0.917391    0.080829    0.000000
   222  O2    s     0.047663    0.908746    0.414346    0.000000
   223  O2    s     0.903185    0.197774    0.976935    0.000000
   224  O2    s     0.771005    0.686267    0.313799    0.000000
   225  O2    s     0.280150    0.068887    0.645348    0.000000
   226  O2    s     0.072837    0.775784    0.480131    0.000000
   227  O2    s     0.197924    0.274362    0.807591    0.000000
   228  O2    s     0.675316    0.887566    0.147753    0.000000
   229  O2    s     0.181895    0.890489    0.349264    0.000000
   230  O2    s     0.693912    0.793169    0.010692    0.000000
   231  O2    s     0.076858    0.274656    0.681720    0.000000
   232  O2    s     0.789483    0.076103    0.847451    0.000000
   233  O2    s     0.278957    0.184755    0.515533    0.000000
   234  O2    s     0.866327    0.685761    0.180973    0.000000
   235  O2    s     0.306439    0.636355    0.251162    0.000000
   236  O2    s     0.327223    0.651084    0.581781    0.000000
   237  O3    s     0.300904    0.663806    0.917102    0.000000
   238  O2    s     0.659140    0.326539    0.746258    0.000000
   239  O3    s     0.612857    0.298831    0.084153    0.000000
   240  O2    s     0.652464    0.310442    0.413998    0.000000
   241  O2    s     0.368847    0.339331    0.961008    0.000000
   242  O2    s     0.634929    0.018929    0.300099    0.000000
   243  O2    s     0.946798    0.602100    0.632209    0.000000
   244  O2    s     0.604194    0.639458    0.466880    0.000000
   245  O2    s     0.332044    0.946110    0.797688    0.000000
   246  O3    s     0.002256    0.350338    0.131472    0.000000
   247  O2    s     0.316943    0.357324    0.363417    0.000000
   248  O2    s     0.014226    0.647043    0.028830    0.000000
   249  O2    s     0.610366    0.945666    0.694729    0.000000
   250  O2    s     0.652290    0.611325    0.859364    0.000000
   251  O2    s     0.947259    0.321157    0.528867    0.000000
   252  O2    s     0.344051    0.008420    0.196078    0.000000
   253  O3    s     0.762977    0.291364    0.004584    0.000000
   254  O2    s     0.666022    0.448114    0.344564    0.000000
   255  O2    s     0.519646    0.202513    0.676145    0.000000
   256  O2    s     0.205171    0.668716    0.511623    0.000000
   257  O3    s     0.287398    0.505364    0.836090    0.000000
   258  O2    s     0.440741    0.756515    0.179845    0.000000
   259  O2    s     0.286964    0.757992    0.319065    0.000000
   260  O2    s     0.453075    0.685413    0.979604    0.000000
   261  O2    s     0.208477    0.512875    0.650848    0.000000
   262  O2    s     0.681861    0.208349    0.815734    0.000000
   263  O2    s     0.516087    0.290688    0.483606    0.000000
   264  O2    s     0.734627    0.447841    0.147533    0.000000
   265  O3    s     0.772853    0.545047    0.024227    0.000000
   266  O2    s     0.444710    0.238275    0.361825    0.000000
   267  O2    s     0.730815    0.192936    0.693836    0.000000
   268  O2    s     0.194339    0.447570    0.528619    0.000000
   269  O3    s     0.544223    0.744895    0.852808    0.000000
   270  O2    s     0.224469    0.761123    0.195888    0.000000
   271  O2    s     0.509385    0.773898    0.302920    0.000000
   272  O2    s     0.246248    0.461976    0.962728    0.000000
   273  O2    s     0.193544    0.720077    0.634004    0.000000
   274  O2    s     0.458313    0.192916    0.799216    0.000000
   275  O2    s     0.723334    0.512171    0.467036    0.000000
   276  O2    s     0.759797    0.245736    0.132019    0.000000
   277  O2    s     0.229861    0.326943    0.892480    0.000000
   278  O2    s     0.641183    0.889143    0.231442    0.000000
   279  O2    s     0.074503    0.738013    0.563124    0.000000
   280  O2    s     0.738040    0.647489    0.396978    0.000000
   281  O2    s     0.321934    0.074257    0.728358    0.000000
   282  O2    s     0.876667    0.224849    0.061827    0.000000
   283  O2    s     0.312576    0.222271    0.432660    0.000000
   284  O2    s     0.879920    0.648834    0.097999    0.000000
   285  O2    s     0.748640    0.074853    0.764286    0.000000
   286  O2    s     0.650613    0.751507    0.927112    0.000000
   287  O2    s     0.077009    0.313258    0.598795    0.000000
   288  O2    s     0.212119    0.883102    0.265971    0.000000
   289  O2    s     0.567746    0.556249    0.979204    0.000000
   290  O2    s     0.415686    0.003203    0.318543    0.000000
   291  O2    s     0.962173    0.397799    0.651156    0.000000
   292  O2    s     0.400606    0.420932    0.486100    0.000000
   293  O2    s     0.551949    0.963304    0.817887    0.000000
   294  O3    s     0.975818    0.558188    0.154748    0.000000
   295  O2    s     0.535765    0.564520    0.344707    0.000000
   296  O2    s     0.003598    0.429384    0.012468    0.000000
   297  O2    s     0.402322    0.955276    0.676497    0.000000
   298  O2    s     0.432834    0.409943    0.841511    0.000000
   299  O2    s     0.958234    0.539621    0.509932    0.000000
   300  O2    s     0.554812    0.002823    0.178086    0.000000
   301  O2    s     0.546040    0.130993    0.248595    0.000000
   302  O2    s     0.829392    0.402964    0.580395    0.000000
   303  O2    s     0.568793    0.419170    0.911833    0.000000
   304  O2    s     0.415387    0.828332    0.747203    0.000000
   305  O3    s     0.129352    0.570305    0.081054    0.000000
   306  O2    s     0.400996    0.555763    0.416224    0.000000
   307  F     s     0.418991    0.875832    0.246114    0.000000
   308  F     s     0.081267    0.528047    0.579431    0.000000
   309  F     s     0.424669    0.571377    0.899810    0.000000
   310  F     s     0.540780    0.085506    0.745046    0.000000
   311  F     s     0.833025    0.424147    0.069337    0.000000
   312  F     s     0.527105    0.431389    0.413112    0.000000
--------------------------------------------------------------------------------

  Final Cartesian lattice vectors (Angstroms) :

       11.929833    0.004084   -0.000176
       -5.974624   10.407423    0.011117
       -0.356496   -0.105805   29.456272


  Final cell parameters and derivatives :

--------------------------------------------------------------------------------
       a           11.929834 Angstrom     dE/de1(xx)     0.001076 eV/strain
       b           12.000446 Angstrom     dE/de2(yy)     0.001039 eV/strain
       c           29.458619 Angstrom     dE/de3(zz)     0.002208 eV/strain
       alpha       89.780188 Degrees      dE/de4(yz)    -0.000183 eV/strain
       beta        90.694304 Degrees      dE/de5(xz)     0.000123 eV/strain
       gamma      119.839356 Degrees      dE/de6(xy)     0.000313 eV/strain
--------------------------------------------------------------------------------

  Primitive cell volume =          3657.988132 Angs**3

  Density of cell =      1.749074 g/cm**3

  Non-primitive cell volume =          3657.988132 Angs**3


  Final internal derivatives :

--------------------------------------------------------------------------------
   No.  Atomic          a             b             c           Radius
        Label          (eV)          (eV)          (eV)        (eV/Angs)
--------------------------------------------------------------------------------
      1 Ge    c       0.000000      0.000000      0.000000      0.000000
      2 Si    c       0.000016      0.000242      0.000209      0.000000
      3 Si    c       0.000128     -0.000028     -0.000640      0.000000
      4 Si    c       0.000019      0.000150      0.000386      0.000000
      5 Ge    c      -0.000084      0.000203     -0.000136      0.000000
      6 Si    c      -0.000231     -0.000240      0.000311      0.000000
      7 Si    c       0.000302      0.000590     -0.000421      0.000000
      8 Si    c       0.000050      0.000275     -0.000682      0.000000
      9 Si    c      -0.000008      0.000211     -0.000304      0.000000
     10 Si    c      -0.000125     -0.000390     -0.000046      0.000000
     11 Si    c       0.000002      0.000123      0.000014      0.000000
     12 Si    c       0.001559     -0.000260      0.007693      0.000000
     13 Si    c      -0.000766      0.001050     -0.003558      0.000000
     14 Si    c       0.000015     -0.000027     -0.000231      0.000000
     15 Si    c       0.000079     -0.000120     -0.000159      0.000000
     16 Si    c       0.000153      0.000090     -0.000256      0.000000
     17 Si    c       0.000043      0.000143      0.000242      0.000000
     18 Ge    c      -0.000251      0.000554      0.001381      0.000000
     19 Si    c       0.000216      0.000174      0.000055      0.000000
     20 Si    c      -0.001100      0.000646     -0.001164      0.000000
     21 Si    c       0.000058      0.000179      0.000018      0.000000
     22 Si    c       0.000158     -0.000095     -0.000631      0.000000
     23 Si    c      -0.000041      0.000054      0.000316      0.000000
     24 Si    c       0.000139     -0.000124      0.000810      0.000000
     25 Si    c      -0.000133     -0.000229     -0.000399      0.000000
     26 Si    c       0.000034      0.000439      0.000872      0.000000
     27 Si    c       0.000088      0.000125      0.000229      0.000000
     28 Si    c       0.000234      0.000322      0.000012      0.000000
     29 Si    c       0.000072     -0.000066     -0.000172      0.000000
     30 Si    c       0.000018      0.000489     -0.001378      0.000000
     31 Si    c       0.000004     -0.000053     -0.000011      0.000000
     32 Si    c       0.001067      0.000229      0.001799      0.000000
     33 Si    c      -0.000161     -0.000107      0.000119      0.000000
     34 Si    c      -0.000126      0.000208     -0.000796      0.000000
     35 Si    c      -0.000135      0.000070     -0.000219      0.000000
     36 Si    c       0.000269      0.000195     -0.000783      0.000000
     37 Si    c      -0.000264     -0.000035     -0.000792      0.000000
     38 Si    c      -0.000048      0.000143     -0.000624      0.000000
     39 Si    c       0.000139     -0.000127     -0.000414      0.000000
     40 Si    c       0.000147      0.000236     -0.000205      0.000000
     41 Si    c       0.000156     -0.000154      0.000242      0.000000
     42 Si    c       0.000270      0.000479      0.000866      0.000000
     43 Si    c       0.000129      0.000028      0.000256      0.000000
     44 Si    c      -0.000001     -0.001001     -0.004880      0.000000
     45 Si    c      -0.000101      0.000029     -0.000068      0.000000
     46 Si    c       0.000244      0.000180     -0.000067      0.000000
     47 Si    c      -0.000115      0.000210      0.000443      0.000000
     48 Si    c       0.000437     -0.000004      0.000406      0.000000
     49 Si    c       0.000247     -0.000292      0.000078      0.000000
     50 Si    c       0.000200      0.000119     -0.000048      0.000000
     51 Si    c       0.000195      0.000093     -0.000310      0.000000
     52 Si    c       0.000059      0.000097     -0.000366      0.000000
     53 Si    c       0.000112      0.000188      0.000482      0.000000
     54 Si    c       0.000011      0.000206      0.002006      0.000000
     55 Si    c       0.000172      0.000097      0.000196      0.000000
     56 Si    c       0.000154      0.000929     -0.000925      0.000000
     57 Si    c      -0.000165      0.000218     -0.000471      0.000000
     58 Si    c       0.000046      0.000273     -0.000317      0.000000
     59 Si    c       0.000186      0.000045      0.000116      0.000000
     60 Si    c       0.000267      0.000224      0.000146      0.000000
     61 O2    c       0.000419      0.000025     -0.000390      0.000000
     62 O2    c       0.000221      0.000072     -0.000052      0.000000
     63 O2    c       0.000011     -0.000014     -0.000248      0.000000
     64 O2    c       0.000160      0.000053      0.000036      0.000000
     65 O2    c      -0.000185     -0.000170      0.000013      0.000000
     66 O2    c       0.000297      0.000068      0.000114      0.000000
     67 O2    c       0.000154      0.000327     -0.000589      0.000000
     68 O2    c      -0.000182      0.000096     -0.000085      0.000000
     69 O2    c      -0.000397      0.000699      0.000502      0.000000
     70 O2    c      -0.000006      0.000170      0.000638      0.000000
     71 O2    c      -0.000405     -0.000676      0.002400      0.000000
     72 O2    c       0.000250      0.000156      0.000334      0.000000
     73 O3    c      -0.000481     -0.002173      0.001934      0.000000
     74 O2    c       0.000270     -0.000072     -0.000045      0.000000
     75 O2    c       0.000184     -0.000078     -0.000526      0.000000
     76 O2    c       0.000014      0.000000     -0.000097      0.000000
     77 O3    c       0.000233     -0.000156     -0.000550      0.000000
     78 O3    c      -0.000209      0.000274     -0.000606      0.000000
     79 O2    c       0.001100      0.000040      0.000381      0.000000
     80 O2    c       0.000127      0.000111     -0.000244      0.000000
     81 O2    c       0.000151     -0.000087     -0.000186      0.000000
     82 O2    c       0.000208      0.000043     -0.000156      0.000000
     83 O2    c       0.000064     -0.000045     -0.000004      0.000000
     84 O2    c       0.000230     -0.000165      0.000730      0.000000
     85 O2    c       0.000233      0.000060      0.000166      0.000000
     86 O2    c       0.003027     -0.002445     -0.002569      0.000000
     87 O2    c      -0.000041      0.000088     -0.000053      0.000000
     88 O2    c      -0.000105     -0.000088      0.000141      0.000000
     89 O2    c      -0.000001      0.000235      0.000202      0.000000
     90 O2    c       0.000395     -0.000029      0.000093      0.000000
     91 O2    c       0.000123      0.000106     -0.000175      0.000000
     92 O2    c       0.000084     -0.000006      0.000213      0.000000
     93 O2    c       0.000061     -0.000356     -0.003422      0.000000
     94 O2    c       0.000000     -0.000007      0.000136      0.000000
     95 O2    c       0.000106      0.000694      0.005245      0.000000
     96 O2    c       0.000171      0.000041      0.000125      0.000000
     97 O2    c      -0.001067      0.000618     -0.000733      0.000000
     98 O2    c       0.000039      0.000198      0.000371      0.000000
     99 O2    c      -0.000093     -0.000047     -0.000023      0.000000
    100 O2    c      -0.000011      0.000015      0.000432      0.000000
    101 O2    c       0.000005      0.000171      0.000167      0.000000
    102 O2    c       0.000007      0.000317      0.000568      0.000000
    103 O2    c       0.000399      0.000130     -0.000381      0.000000
    104 O2    c      -0.002533      0.000615     -0.000918      0.000000
    105 O2    c      -0.000139      0.000280     -0.000415      0.000000
    106 O2    c      -0.000007     -0.000079      0.000110      0.000000
    107 O2    c       0.000082      0.000148     -0.000424      0.000000
    108 O2    c       0.000180      0.000595      0.002138      0.000000
    109 O2    c       0.000009      0.000595     -0.000193      0.000000
    110 O2    c      -0.000267      0.000079      0.000012      0.000000
    111 O3    c      -0.000107      0.000203     -0.000599      0.000000
    112 O2    c       0.000106     -0.000083     -0.000163      0.000000
    113 O3    c      -0.002964     -0.000895     -0.001996      0.000000
    114 O2    c      -0.000009      0.000232      0.000095      0.000000
    115 O2    c      -0.000807     -0.000035     -0.000030      0.000000
    116 O2    c       0.000075      0.000431     -0.000021      0.000000
    117 O2    c       0.000220     -0.000067     -0.000132      0.000000
    118 O2    c       0.000010     -0.000014     -0.000114      0.000000
    119 O2    c       0.000102      0.000005     -0.000165      0.000000
    120 O3    c      -0.000298      0.000378      0.000795      0.000000
    121 O2    c       0.000262      0.000166      0.000095      0.000000
    122 O2    c       0.000555      0.000205     -0.000463      0.000000
    123 O2    c      -0.000172      0.000175      0.000097      0.000000
    124 O2    c       0.000017     -0.000161      0.000059      0.000000
    125 O2    c       0.000107      0.000225      0.000317      0.000000
    126 O2    c       0.000242     -0.000084      0.000026      0.000000
    127 O3    c      -0.002485      0.000239     -0.001564      0.000000
    128 O2    c       0.000042      0.000142      0.000200      0.000000
    129 O2    c       0.000205     -0.000110      0.000214      0.000000
    130 O2    c      -0.000129     -0.000029      0.000519      0.000000
    131 O3    c      -0.000133      0.000521     -0.000261      0.000000
    132 O2    c       0.000138      0.000582      0.000309      0.000000
    133 O2    c       0.000170      0.000146     -0.000013      0.000000
    134 O2    c       0.000045      0.000104      0.000101      0.000000
    135 O2    c      -0.000146      0.000113     -0.000234      0.000000
    136 O2    c      -0.000107      0.000106     -0.000082      0.000000
    137 O2    c       0.000156      0.000243     -0.000337      0.000000
    138 O2    c       0.000024     -0.000460      0.002151      0.000000
    139 O3    c      -0.001037     -0.001692     -0.002546      0.000000
    140 O2    c       0.000248      0.000217      0.000151      0.000000
    141 O2    c      -0.000138      0.000101      0.000155      0.000000
    142 O2    c      -0.000136      0.000114      0.000264      0.000000
    143 O3    c      -0.000082      0.000031     -0.000160      0.000000
    144 O2    c       0.000137      0.000546      0.000330      0.000000
    145 O2    c       0.000241      0.000113      0.000090      0.000000
    146 O2    c       0.000036      0.000158     -0.000147      0.000000
    147 O2    c      -0.000055     -0.000054     -0.000244      0.000000
    148 O2    c       0.000173     -0.000183      0.000019      0.000000
    149 O2    c       0.000019      0.000062     -0.000100      0.000000
    150 O2    c       0.000415     -0.000024      0.000751      0.000000
    151 O2    c       0.000010      0.000085      0.000654      0.000000
    152 O2    c       0.000141      0.000248      0.000040      0.000000
    153 O2    c       0.000128     -0.000186      0.000249      0.000000
    154 O2    c      -0.000025     -0.000002      0.000152      0.000000
    155 O2    c       0.000118     -0.000088      0.000393      0.000000
    156 O2    c       0.000228     -0.000392      0.002884      0.000000
    157 O2    c       0.000243      0.000201     -0.000209      0.000000
    158 O2    c       0.000386      0.001054     -0.002200      0.000000
    159 O2    c      -0.000057      0.000042     -0.000437      0.000000
    160 O2    c       0.000082     -0.000116     -0.000316      0.000000
    161 O2    c      -0.000085      0.000266     -0.000262      0.000000
    162 O2    c       0.000293      0.000080     -0.000209      0.000000
    163 O2    c       0.000072      0.000299     -0.000069      0.000000
    164 O2    c       0.000336      0.000200     -0.000151      0.000000
    165 O2    c       0.000098      0.000094     -0.000383      0.000000
    166 O2    c       0.000130      0.000292     -0.000238      0.000000
    167 O2    c      -0.000069      0.000053     -0.000206      0.000000
    168 O3    c       0.001536     -0.000501      0.001482      0.000000
    169 O2    c       0.000108      0.000014      0.000378      0.000000
    170 O2    c       0.000256      0.001296     -0.001044      0.000000
    171 O2    c       0.000086     -0.000032      0.000100      0.000000
    172 O2    c       0.000458     -0.000133      0.000051      0.000000
    173 O2    c       0.000126      0.000023      0.000408      0.000000
    174 O2    c       0.000246      0.000167     -0.000002      0.000000
    175 O2    c       0.000219     -0.000111     -0.000354      0.000000
    176 O2    c       0.000288      0.000032      0.000024      0.000000
    177 O2    c       0.000323      0.000083     -0.002653      0.000000
    178 O2    c      -0.000024      0.000059     -0.000196      0.000000
    179 O3    c       0.000153      0.000977     -0.001487      0.000000
    180 O2    c       0.000188      0.000053      0.000213      0.000000
    181 F     c       0.000155      0.000192     -0.000161      0.000000
    182 F     c      -0.000002      0.000034     -0.000030      0.000000
    183 F     c       0.000032      0.000042     -0.000054      0.000000
    184 F     c      -0.000001      0.000008     -0.000014      0.000000
    185 F     c       0.000791     -0.000001      0.000028      0.000000
    186 F     c       0.000136      0.000128     -0.000032      0.000000
    187 O2    s       0.000150      0.000503     -0.000469      0.000000
    188 O2    s       0.000294      0.000128     -0.000068      0.000000
    189 O2    s       0.000053      0.000062     -0.000457      0.000000
    190 O2    s       0.000223      0.000071     -0.000120      0.000000
    191 O2    s       0.000134     -0.000242      0.000078      0.000000
    192 O2    s       0.000049      0.000343      0.000800      0.000000
    193 O2    s       0.000453      0.000228     -0.000458      0.000000
    194 O2    s      -0.000061      0.000105     -0.000259      0.000000
    195 O2    s       0.000535     -0.000472     -0.000344      0.000000
    196 O2    s      -0.000152      0.000200      0.000303      0.000000
    197 O2    s      -0.000491      0.000362      0.003628      0.000000
    198 O2    s       0.000021      0.000322      0.000124      0.000000
    199 O3    s      -0.000509      0.001914      0.000006      0.000000
    200 O2    s       0.000140     -0.000075     -0.000316      0.000000
    201 O2    s       0.000045      0.000114     -0.000223      0.000000
    202 O2    s       0.000097      0.000011     -0.000113      0.000000
    203 O3    s       0.001293     -0.000850      0.000049      0.000000
    204 O3    s       0.000019      0.000066     -0.000195      0.000000
    205 O2    s       0.000992      0.000387      0.000301      0.000000
    206 O2    s       0.000130      0.000094     -0.000625      0.000000
    207 O2    s       0.000140      0.000019     -0.000646      0.000000
    208 O2    s       0.000173      0.000132     -0.000513      0.000000
    209 O2    s       0.000092      0.000088     -0.000340      0.000000
    210 O2    s       0.000563     -0.000014      0.000451      0.000000
    211 O2    s       0.000226      0.000098      0.000375      0.000000
    212 O2    s       0.001457     -0.000657     -0.003749      0.000000
    213 O2    s      -0.000025      0.000011     -0.000161      0.000000
    214 O2    s      -0.000081     -0.000170      0.000331      0.000000
    215 O2    s       0.000091      0.000138      0.000590      0.000000
    216 O2    s       0.000148      0.000430      0.001003      0.000000
    217 O2    s       0.000243      0.000247     -0.000004      0.000000
    218 O2    s       0.000142      0.000118      0.000075      0.000000
    219 O2    s      -0.000036     -0.000610     -0.001721      0.000000
    220 O2    s       0.000184     -0.000023     -0.000217      0.000000
    221 O2    s      -0.000101      0.001598      0.003158      0.000000
    222 O2    s       0.000176      0.000130      0.000129      0.000000
    223 O2    s      -0.000199      0.000054     -0.000768      0.000000
    224 O2    s       0.000064      0.000275      0.000447      0.000000
    225 O2    s      -0.000053      0.000042      0.000072      0.000000
    226 O2    s       0.000020      0.000047      0.000496      0.000000
    227 O2    s       0.000321      0.000003      0.000303      0.000000
    228 O2    s       0.000214      0.000242      0.001335      0.000000
    229 O2    s       0.000280      0.000271     -0.000471      0.000000
    230 O2    s      -0.002303      0.000561     -0.001770      0.000000
    231 O2    s      -0.000130      0.000142     -0.000960      0.000000
    232 O2    s      -0.000095      0.000043     -0.000182      0.000000
    233 O2    s       0.000030      0.000277     -0.000451      0.000000
    234 O2    s       0.000009      0.000831      0.002379      0.000000
    235 O2    s       0.000395      0.000604     -0.001497      0.000000
    236 O2    s      -0.000060     -0.000028      0.000023      0.000000
    237 O3    s       0.000429     -0.000226     -0.000472      0.000000
    238 O2    s      -0.000058      0.000018     -0.000425      0.000000
    239 O3    s       0.000301      0.001131     -0.000579      0.000000
    240 O2    s      -0.000042      0.000345      0.000130      0.000000
    241 O2    s      -0.000800      0.000871     -0.000916      0.000000
    242 O2    s       0.000170      0.000277     -0.000023      0.000000
    243 O2    s       0.000080     -0.000059     -0.000533      0.000000
    244 O2    s       0.000092      0.000141     -0.000342      0.000000
    245 O2    s       0.000032      0.000094     -0.000287      0.000000
    246 O3    s       0.001387     -0.001180      0.000369      0.000000
    247 O2    s       0.000344      0.000055      0.000271      0.000000
    248 O2    s       0.000113     -0.000077     -0.001500      0.000000
    249 O2    s       0.000011      0.000058      0.000141      0.000000
    250 O2    s      -0.000166     -0.000020      0.000548      0.000000
    251 O2    s       0.000049      0.000187      0.000493      0.000000
    252 O2    s       0.000378      0.000507      0.001214      0.000000
    253 O3    s      -0.000092     -0.000447     -0.002792      0.000000
    254 O2    s       0.000057      0.000233      0.000324      0.000000
    255 O2    s       0.000045      0.000138      0.000102      0.000000
    256 O2    s      -0.000043      0.000024      0.000591      0.000000
    257 O3    s       0.000130     -0.000114      0.000187      0.000000
    258 O2    s       0.000247      0.000204      0.001519      0.000000
    259 O2    s       0.000296      0.000098      0.000387      0.000000
    260 O2    s       0.000371     -0.000363     -0.000431      0.000000
    261 O2    s      -0.000057      0.000036     -0.000641      0.000000
    262 O2    s      -0.000070     -0.000113     -0.000165      0.000000
    263 O2    s       0.000026      0.000237     -0.000293      0.000000
    264 O2    s      -0.001426      0.000251      0.001562      0.000000
    265 O3    s       0.000182     -0.000605      0.002358      0.000000
    266 O2    s       0.000093      0.000344      0.000431      0.000000
    267 O2    s      -0.000069      0.000023      0.000034      0.000000
    268 O2    s      -0.000062      0.000189      0.000738      0.000000
    269 O3    s       0.000409     -0.000316      0.000846      0.000000
    270 O2    s       0.000916      0.000474      0.002035      0.000000
    271 O2    s       0.000360     -0.000172      0.000107      0.000000
    272 O2    s       0.000314     -0.000000     -0.000488      0.000000
    273 O2    s      -0.000033      0.000004     -0.000727      0.000000
    274 O2    s      -0.000124     -0.000072     -0.000388      0.000000
    275 O2    s       0.000003      0.000133     -0.000277      0.000000
    276 O2    s       0.000418     -0.000419      0.001412      0.000000
    277 O2    s       0.000039     -0.000089      0.000600      0.000000
    278 O2    s       0.000420      0.000098     -0.000352      0.000000
    279 O2    s       0.000137     -0.000119      0.000038      0.000000
    280 O2    s       0.000035      0.000191      0.000114      0.000000
    281 O2    s       0.000066     -0.000005      0.000186      0.000000
    282 O2    s       0.001489     -0.001633      0.002859      0.000000
    283 O2    s       0.000239      0.000273     -0.000144      0.000000
    284 O2    s      -0.000992      0.001355     -0.001100      0.000000
    285 O2    s      -0.000149     -0.000033     -0.000221      0.000000
    286 O2    s       0.000089     -0.000248     -0.000247      0.000000
    287 O2    s      -0.000021      0.000188     -0.000152      0.000000
    288 O2    s       0.000181      0.000645     -0.000159      0.000000
    289 O2    s      -0.000333     -0.000097     -0.001095      0.000000
    290 O2    s       0.000206      0.000482     -0.000387      0.000000
    291 O2    s       0.000028      0.000014     -0.000719      0.000000
    292 O2    s       0.000091      0.000225     -0.000474      0.000000
    293 O2    s       0.000035     -0.000081     -0.000175      0.000000
    294 O3    s       0.001054     -0.000026      0.003512      0.000000
    295 O2    s       0.000215      0.000196      0.000318      0.000000
    296 O2    s       0.001287      0.000474     -0.002008      0.000000
    297 O2    s       0.000079     -0.000026      0.000001      0.000000
    298 O2    s       0.000229     -0.000096      0.000402      0.000000
    299 O2    s       0.000120      0.000008      0.000705      0.000000
    300 O2    s       0.000369      0.000160      0.001091      0.000000
    301 O2    s       0.000182     -0.000210     -0.000156      0.000000
    302 O2    s       0.000166      0.000083     -0.000118      0.000000
    303 O2    s      -0.000218      0.000828     -0.001492      0.000000
    304 O2    s       0.000087      0.000054     -0.000164      0.000000
    305 O3    s       0.001407     -0.000818      0.000028      0.000000
    306 O2    s       0.000353      0.000129      0.000124      0.000000
    307 F     s       0.000417      0.000676      0.000633      0.000000
    308 F     s      -0.000049      0.000015     -0.000011      0.000000
    309 F     s       0.000263     -0.000068     -0.000070      0.000000
    310 F     s      -0.000034      0.000054      0.000009      0.000000
    311 F     s      -0.000438      0.000600      0.000056      0.000000
    312 F     s       0.000132      0.000143     -0.000010      0.000000
--------------------------------------------------------------------------------
  Maximum abs         0.003027      0.002445      0.007693      0.000000
--------------------------------------------------------------------------------


  Time to end of optimisation =      50.2556 seconds


  Peak dynamic memory used =      19.13 MB 


  Timing analysis for GULP :

--------------------------------------------------------------------------------
  Task / Subroutine                                          Time (Seconds)
--------------------------------------------------------------------------------
  Calculation of reciprocal space energy and derivatives          1.3598
  Calculation of real space energy and derivatives               43.6341
  Calculation of three-body energy and derivatives                4.4219
  Calculation of matrix inversion                                 0.7442
  Global summation overhead                                       0.0001
--------------------------------------------------------------------------------
  Total CPU time                                                 50.2556
--------------------------------------------------------------------------------


  Dump file written as out.res                                                 
  CIF file written as out.cif                                                 


  Job Finished at 22:58.14 25th October    2016                               

