********************************************************************************
*                       GENERAL UTILITY LATTICE PROGRAM                        *
*                                 Julian Gale                                  *
*                      Nanochemistry Research Institute                        *
*                           Department of Chemistry                            *
*                    Curtin University, Western Australia                      *
********************************************************************************
* Version = 4.2.0 * Last modified =  20th January 2014                         *
********************************************************************************
*  optimise     - perform optimisation run                                     *
*  conp         - constant pressure calculation                                *
*  qok          - running with non charge neutral cell is OK                   *
********************************************************************************

  Job Started  at 01:06.44 27th October    2016                               

  Number of CPUs =     1


  Total number of configurations input =   1

********************************************************************************
*  Input for Configuration =   1                                               *
********************************************************************************

  Formula = Ge3Si57O120F6                                               

  Number of irreducible atoms/shells =     312


  Total number atoms/shells =     312

  Dimensionality = 3               :  Bulk   


  Charge on solid   =  -6.000000 =>neutralising background added


  Cartesian lattice vectors (Angstroms) :

       11.937453    0.000000    0.000000
       -5.998554   10.396271    0.000000
        0.071755   -0.341601   29.505021

  Cell parameters (Angstroms/Degrees):

  a =      11.9375    alpha =  90.6442
  b =      12.0027    beta  =  89.8607
  c =      29.5071    gamma = 119.9846

  Initial cell volume =        3661.720566 Angs**3

  Temperature of configuration =  0.000     K 

  Pressure of configuration =         0.000 GPa 

  Fractional coordinates of asymmetric unit :

--------------------------------------------------------------------------------
   No.  Atomic       x           y          z         Charge      Occupancy
        Label      (Frac)      (Frac)     (Frac)        (e)         (Frac)  
--------------------------------------------------------------------------------
      1 Ge    c    0.699600    0.375700    0.033890     4.00000    1.000000    
      2 Si    c    0.622128 *  0.321978 *  0.365664 *   4.00000    1.000000    
      3 Si    c    0.676708 *  0.301510 *  0.697263 *   4.00000    1.000000    
      4 Si    c    0.295242 *  0.620019 *  0.529655 *   4.00000    1.000000    
      5 Si    c    0.370558 *  0.683183 *  0.861631 *   4.00000    1.000000    
      6 Si    c    0.319087 *  0.701163 *  0.197756 *   4.00000    1.000000    
      7 Si    c    0.379062 *  0.699231 *  0.297649 *   4.00000    1.000000    
      8 Ge    c    0.330376 *  0.613408 *  0.959297 *   4.00000    1.000000    
      9 Si    c    0.296857 *  0.676841 *  0.630019 *   4.00000    1.000000    
     10 Si    c    0.618955 *  0.299098 *  0.797674 *   4.00000    1.000000    
     11 Si    c    0.675044 *  0.379895 *  0.466219 *   4.00000    1.000000    
     12 Si    c    0.685140 *  0.321526 *  0.132904 *   4.00000    1.000000    
     13 Si    c    0.526946 *  0.415803 *  0.967137 *   4.00000    1.000000    
     14 Si    c    0.585106 *  0.109565 *  0.301699 *   4.00000    1.000000    
     15 Si    c    0.887345 *  0.472574 *  0.632706 *   4.00000    1.000000    
     16 Si    c    0.467854 *  0.582116 *  0.464639 *   4.00000    1.000000    
     17 Si    c    0.416157 *  0.890100 *  0.794593 *   4.00000    1.000000    
     18 Si    c    0.110949 *  0.536189 *  0.128894 *   4.00000    1.000000    
     19 Si    c    0.416597 *  0.527748 *  0.362935 *   4.00000    1.000000    
     20 Si    c    0.113200 *  0.580122 *  0.025383 *   4.00000    1.000000    
     21 Si    c    0.470611 *  0.891016 *  0.693383 *   4.00000    1.000000    
     22 Si    c    0.580348 *  0.470805 *  0.864357 *   4.00000    1.000000    
     23 Si    c    0.885352 *  0.418090 *  0.531080 *   4.00000    1.000000    
     24 Si    c    0.530320 *  0.114416 *  0.200784 *   4.00000    1.000000    
     25 Si    c    0.293572 *  0.399690 *  0.849901 *   4.00000    1.000000    
     26 Si    c    0.597327 *  0.903597 *  0.182803 *   4.00000    1.000000    
     27 Si    c    0.093891 *  0.697740 *  0.516034 *   4.00000    1.000000    
     28 Si    c    0.698468 *  0.598489 *  0.350483 *   4.00000    1.000000    
     29 Si    c    0.398752 *  0.099674 *  0.680970 *   4.00000    1.000000    
     30 Si    c    0.891930 *  0.292888 *  0.013188 *   4.00000    1.000000    
     31 Si    c    0.395881 *  0.303036 *  0.479817 *   4.00000    1.000000    
     32 Si    c    0.893490 *  0.605051 *  0.141652 *   4.00000    1.000000    
     33 Si    c    0.696418 *  0.098118 *  0.811019 *   4.00000    1.000000    
     34 Si    c    0.602603 *  0.703338 *  0.982964 *   4.00000    1.000000    
     35 Si    c    0.096882 *  0.400551 *  0.645870 *   4.00000    1.000000    
     36 Si    c    0.303829 *  0.901355 *  0.315254 *   4.00000    1.000000    
     37 Si    c    0.241410 *  0.333203 *  0.951460 *   4.00000    1.000000    
     38 Si    c    0.661155 *  0.908452 *  0.282704 *   4.00000    1.000000    
     39 Si    c    0.088354 *  0.750288 *  0.616796 *   4.00000    1.000000    
     40 Si    c    0.747500 *  0.659363 *  0.450996 *   4.00000    1.000000    
     41 Si    c    0.338102 *  0.090718 *  0.781315 *   4.00000    1.000000    
     42 Si    c    0.902473 *  0.254332 *  0.115943 *   4.00000    1.000000    
     43 Si    c    0.339740 *  0.250196 *  0.379045 *   4.00000    1.000000    
     44 Si    c    0.904186 *  0.656701 *  0.039141 *   4.00000    1.000000    
     45 Si    c    0.748951 *  0.092804 *  0.710441 *   4.00000    1.000000    
     46 Si    c    0.656060 *  0.751392 *  0.879978 *   4.00000    1.000000    
     47 Si    c    0.086816 *  0.340342 *  0.545203 *   4.00000    1.000000    
     48 Si    c    0.251482 *  0.911585 *  0.215242 *   4.00000    1.000000    
     49 Si    c    0.968154 *  0.114892 *  0.962809 *   4.00000    1.000000    
     50 Si    c    0.878215 *  0.844177 *  0.299508 *   4.00000    1.000000    
     51 Si    c    0.149904 *  0.030344 *  0.630882 *   4.00000    1.000000    
     52 Si    c    0.027559 *  0.877748 *  0.465462 *   4.00000    1.000000    
     53 Si    c    0.118611 *  0.150958 *  0.797124 *   4.00000    1.000000    
     54 Ge    c    0.850507 *  0.975850 *  0.132491 *   4.00000    1.000000    
     55 Si    c    0.122096 *  0.969215 *  0.364882 *   4.00000    1.000000    
     56 Si    c    0.858708 *  0.880410 *  0.029961 *   4.00000    1.000000    
     57 Si    c    0.029185 *  0.154070 *  0.695944 *   4.00000    1.000000    
     58 Si    c    0.874470 *  0.027649 *  0.861599 *   4.00000    1.000000    
     59 Si    c    0.148558 *  0.122489 *  0.530439 *   4.00000    1.000000    
     60 Si    c    0.972389 *  0.851272 *  0.198106 *   4.00000    1.000000    
     61 O2    c    0.922382 *  0.994395 *  0.994597 *   0.87073    1.000000    
     62 O2    c    0.000253 *  0.926737 *  0.332097 *   0.87073    1.000000    
     63 O2    c    0.070277 *  0.072574 *  0.663663 *   0.87073    1.000000    
     64 O2    c    0.069758 *  0.000351 *  0.497775 *   0.87073    1.000000    
     65 O2    c    0.995273 *  0.067412 *  0.828505 *   0.87073    1.000000    
     66 O3    c    0.938402 *  0.942433 *  0.170337 *   1.33043    1.000000    
     67 O2    c    0.341684 *  0.576593 *  0.329826 *   0.87073    1.000000    
     68 O2    c    0.423096 *  0.764915 *  0.661285 *   0.87073    1.000000    
     69 O3    c    0.234064 *  0.653959 *  0.994446 *   1.33043    1.000000    
     70 O2    c    0.655124 *  0.421163 *  0.831214 *   0.87073    1.000000    
     71 O2    c    0.577426 *  0.242857 *  0.171379 *   0.87073    1.000000    
     72 O2    c    0.758523 *  0.341138 *  0.499080 *   0.87073    1.000000    
     73 O3    c    0.566879 *  0.335818 *  0.998342 *   1.33043    1.000000    
     74 O2    c    0.762402 *  0.424890 *  0.665438 *   0.87073    1.000000    
     75 O2    c    0.661948 *  0.235036 *  0.334446 *   0.87073    1.000000    
     76 O2    c    0.417815 *  0.658965 *  0.496662 *   0.87073    1.000000    
     77 O2    c    0.232388 *  0.582185 *  0.163269 *   0.87073    1.000000    
     78 O2    c    0.338963 *  0.762095 *  0.824518 *   0.87073    1.000000    
     79 O2    c    0.122889 *  0.195816 *  0.967568 *   0.87073    1.000000    
     80 O2    c    0.787297 *  0.908116 *  0.302849 *   0.87073    1.000000    
     81 O2    c    0.088090 *  0.876924 *  0.636607 *   0.87073    1.000000    
     82 O2    c    0.873187 *  0.786960 *  0.471072 *   0.87073    1.000000    
     83 O2    c    0.210805 *  0.089002 *  0.801522 *   0.87073    1.000000    
     84 O3    c    0.909914 *  0.138740 *  0.139054 *   1.33043    1.000000    
     85 O2    c    0.213216 *  0.122864 *  0.359202 *   0.87073    1.000000    
     86 O2    c    0.926488 *  0.795119 *  0.022023 *   0.87073    1.000000    
     87 O2    c    0.874946 *  0.092239 *  0.690107 *   0.87073    1.000000    
     88 O2    c    0.780648 *  0.873584 *  0.857750 *   0.87073    1.000000    
     89 O2    c    0.084610 *  0.212660 *  0.525214 *   0.87073    1.000000    
     90 O2    c    0.126726 *  0.912039 *  0.194547 *   0.87073    1.000000    
     91 O2    c    0.929996 *  0.849632 *  0.249524 *   0.87073    1.000000    
     92 O2    c    0.135113 *  0.068852 *  0.580585 *   0.87073    1.000000    
     93 O2    c    0.927532 *  0.066119 *  0.911811 *   0.87073    1.000000    
     94 O2    c    0.067632 *  0.141437 *  0.746540 *   0.87073    1.000000    
     95 O3    c    0.882911 *  0.939751 *  0.079782 *   1.33043    1.000000    
     96 O2    c    0.067790 *  0.930184 *  0.415158 *   0.87073    1.000000    
     97 O2    c    0.903695 *  0.200010 *  0.975607 *   0.87073    1.000000    
     98 O2    c    0.796871 *  0.694246 *  0.312534 *   0.87073    1.000000    
     99 O2    c    0.302360 *  0.101239 *  0.642520 *   0.87073    1.000000    
    100 O2    c    0.096250 *  0.795291 *  0.477805 *   0.87073    1.000000    
    101 O2    c    0.199769 *  0.301494 *  0.810754 *   0.87073    1.000000    
    102 O3    c    0.687056 *  0.898387 *  0.143015 *   1.33043    1.000000    
    103 O2    c    0.205310 *  0.899709 *  0.353761 *   0.87073    1.000000    
    104 O2    c    0.704918 *  0.792963 *  0.021633 *   0.87073    1.000000    
    105 O2    c    0.099763 *  0.305050 *  0.683921 *   0.87073    1.000000    
    106 O2    c    0.793986 *  0.098586 *  0.849321 *   0.87073    1.000000    
    107 O2    c    0.300170 *  0.206039 *  0.518244 *   0.87073    1.000000    
    108 O2    c    0.897533 *  0.704439 *  0.180007 *   0.87073    1.000000    
    109 O2    c    0.319350 *  0.641884 *  0.247326 *   0.87073    1.000000    
    110 O2    c    0.353948 *  0.676783 *  0.579831 *   0.87073    1.000000    
    111 O3    c    0.312297 *  0.689572 *  0.909183 *   1.33043    1.000000    
    112 O2    c    0.677573 *  0.357948 *  0.747992 *   0.87073    1.000000    
    113 O3    c    0.613152 *  0.307399 *  0.085862 *   1.33043    1.000000    
    114 O2    c    0.677679 *  0.322932 *  0.416106 *   0.87073    1.000000    
    115 O2    c    0.370215 *  0.329928 *  0.965712 *   0.87073    1.000000    
    116 O2    c    0.671952 *  0.039814 *  0.303021 *   0.87073    1.000000    
    117 O2    c    0.956447 *  0.628608 *  0.635553 *   0.87073    1.000000    
    118 O2    c    0.624313 *  0.670096 *  0.468424 *   0.87073    1.000000    
    119 O2    c    0.329105 *  0.959314 *  0.799087 *   0.87073    1.000000    
    120 O2    c    0.035124 *  0.381481 *  0.131183 *   0.87073    1.000000    
    121 O2    c    0.329705 *  0.371508 *  0.360104 *   0.87073    1.000000    
    122 O2    c    0.036965 *  0.660849 *  0.025088 *   0.87073    1.000000    
    123 O2    c    0.627336 *  0.960641 *  0.691338 *   0.87073    1.000000    
    124 O2    c    0.662140 *  0.626306 *  0.862198 *   0.87073    1.000000    
    125 O2    c    0.953672 *  0.330297 *  0.527449 *   0.87073    1.000000    
    126 O2    c    0.373629 *  0.043711 *  0.197569 *   0.87073    1.000000    
    127 O3    c    0.756908 *  0.283472 *  0.003440 *   1.33043    1.000000    
    128 O2    c    0.697565 *  0.463976 *  0.343080 *   0.87073    1.000000    
    129 O2    c    0.533043 *  0.234001 *  0.674745 *   0.87073    1.000000    
    130 O2    c    0.226764 *  0.695196 *  0.508066 *   0.87073    1.000000    
    131 O2    c    0.298335 *  0.534723 *  0.841783 *   0.87073    1.000000    
    132 O2    c    0.462031 *  0.770351 *  0.175485 *   0.87073    1.000000    
    133 O2    c    0.304880 *  0.767733 *  0.321038 *   0.87073    1.000000    
    134 O3    c    0.475603 *  0.710651 *  0.991314 *   1.33043    1.000000    
    135 O2    c    0.230822 *  0.535415 *  0.653037 *   0.87073    1.000000    
    136 O2    c    0.693422 *  0.230378 *  0.819811 *   0.87073    1.000000    
    137 O2    c    0.530875 *  0.304921 *  0.487871 *   0.87073    1.000000    
    138 O2    c    0.761515 *  0.471228 *  0.151128 *   0.87073    1.000000    
    139 O3    c    0.775395 *  0.544617 *  0.017857 *   1.33043    1.000000    
    140 O2    c    0.465703 *  0.248427 *  0.360040 *   0.87073    1.000000    
    141 O2    c    0.750141 *  0.219116 *  0.691754 *   0.87073    1.000000    
    142 O2    c    0.212648 *  0.464141 *  0.525002 *   0.87073    1.000000    
    143 O2    c    0.528170 *  0.748244 *  0.861365 *   0.87073    1.000000    
    144 O2    c    0.245365 *  0.783155 *  0.195131 *   0.87073    1.000000    
    145 O2    c    0.535760 *  0.780558 *  0.301069 *   0.87073    1.000000    
    146 O3    c    0.228950 *  0.446217 *  0.974056 *   1.33043    1.000000    
    147 O2    c    0.215477 *  0.751651 *  0.635935 *   0.87073    1.000000    
    148 O2    c    0.462341 *  0.218451 *  0.801427 *   0.87073    1.000000    
    149 O2    c    0.748775 *  0.535690 *  0.471264 *   0.87073    1.000000    
    150 O2    c    0.777705 *  0.257727 *  0.134781 *   0.87073    1.000000    
    151 O2    c    0.224097 *  0.330839 *  0.896301 *   0.87073    1.000000    
    152 O2    c    0.678394 *  0.909682 *  0.228130 *   0.87073    1.000000    
    153 O2    c    0.089913 *  0.768221 *  0.562575 *   0.87073    1.000000    
    154 O2    c    0.768643 *  0.674438 *  0.396847 *   0.87073    1.000000    
    155 O2    c    0.321504 *  0.092609 *  0.727044 *   0.87073    1.000000    
    156 O2    c    0.895392 *  0.229663 *  0.061784 *   0.87073    1.000000    
    157 O2    c    0.321651 *  0.232468 *  0.433259 *   0.87073    1.000000    
    158 O2    c    0.891923 *  0.669078 *  0.094342 *   0.87073    1.000000    
    159 O2    c    0.768014 *  0.095373 *  0.764703 *   0.87073    1.000000    
    160 O2    c    0.671262 *  0.765911 *  0.934336 *   0.87073    1.000000    
    161 O2    c    0.091085 *  0.324845 *  0.599400 *   0.87073    1.000000    
    162 O2    c    0.233533 *  0.909198 *  0.269549 *   0.87073    1.000000    
    163 O2    c    0.574146 *  0.557203 *  0.988621 *   0.87073    1.000000    
    164 O2    c    0.444271 *  0.024856 *  0.324981 *   0.87073    1.000000    
    165 O2    c    0.971579 *  0.415172 *  0.655278 *   0.87073    1.000000    
    166 O2    c    0.409668 *  0.442343 *  0.488111 *   0.87073    1.000000    
    167 O2    c    0.557187 *  0.971631 *  0.818626 *   0.87073    1.000000    
    168 O2    c    0.019320 *  0.589916 *  0.147374 *   0.87073    1.000000    
    169 O2    c    0.559093 *  0.584680 *  0.340905 *   0.87073    1.000000    
    170 O2    c    0.015831 *  0.434928 *  0.007338 *   0.87073    1.000000    
    171 O2    c    0.414601 *  0.975988 *  0.670733 *   0.87073    1.000000    
    172 O2    c    0.436224 *  0.417993 *  0.844829 *   0.87073    1.000000    
    173 O2    c    0.968174 *  0.558117 *  0.507789 *   0.87073    1.000000    
    174 O2    c    0.587062 *  0.031636 *  0.175793 *   0.87073    1.000000    
    175 O2    c    0.584128 *  0.164330 *  0.251765 *   0.87073    1.000000    
    176 O2    c    0.832962 *  0.418612 *  0.581978 *   0.87073    1.000000    
    177 O2    c    0.580544 *  0.424893 *  0.915418 *   0.87073    1.000000    
    178 O2    c    0.415814 *  0.838229 *  0.743614 *   0.87073    1.000000    
    179 O2    c    0.159489 *  0.580851 *  0.077945 *   0.87073    1.000000    
    180 O2    c    0.415290 *  0.581384 *  0.413711 *   0.87073    1.000000    
    181 F     c    0.453104 *  0.903081 *  0.248848 *   0.56000    1.000000    
    182 F     c    0.095229 *  0.548391 *  0.581315 *   0.56000    1.000000    
    183 F     c    0.422196 *  0.560124 *  0.922699 *   0.56000    1.000000    
    184 F     c    0.546598 *  0.099142 *  0.746413 *   0.56000    1.000000    
    185 F     c    0.851059 *  0.434994 *  0.070803 *   0.56000    1.000000    
    186 F     c    0.547647 *  0.452004 *  0.415059 *   0.56000    1.000000    
    187 O2    s    0.920381 *  0.995432 *  0.994948 *  -2.87073    1.000000    
    188 O2    s    0.000282 *  0.922299 *  0.332140 *  -2.87073    1.000000    
    189 O2    s    0.074600 *  0.077000 *  0.663607 *  -2.87073    1.000000    
    190 O2    s    0.073881 *  0.000315 *  0.497815 *  -2.87073    1.000000    
    191 O2    s    0.995607 *  0.072272 *  0.828658 *  -2.87073    1.000000    
    192 O3    s    0.934594 *  0.935511 *  0.170095 *  -3.33043    1.000000    
    193 O2    s    0.353153 *  0.584100 *  0.329911 *  -2.87073    1.000000    
    194 O2    s    0.415057 *  0.768977 *  0.661396 *  -2.87073    1.000000    
    195 O3    s    0.227184 *  0.642944 *  0.995454 *  -3.33043    1.000000    
    196 O2    s    0.643659 *  0.413957 *  0.831258 *  -2.87073    1.000000    
    197 O2    s    0.583456 *  0.237364 *  0.170539 *  -2.87073    1.000000    
    198 O2    s    0.763026 *  0.353122 *  0.498986 *  -2.87073    1.000000    
    199 O3    s    0.572469 *  0.347319 *  0.997647 *  -3.33043    1.000000    
    200 O2    s    0.766402 *  0.417107 *  0.665369 *  -2.87073    1.000000    
    201 O2    s    0.649972 *  0.231045 *  0.334290 *  -2.87073    1.000000    
    202 O2    s    0.410274 *  0.646975 *  0.496774 *  -2.87073    1.000000    
    203 O2    s    0.228691 *  0.589581 *  0.163252 *  -2.87073    1.000000    
    204 O2    s    0.350436 *  0.767480 *  0.825203 *  -2.87073    1.000000    
    205 O2    s    0.118349 *  0.201226 *  0.965400 *  -2.87073    1.000000    
    206 O2    s    0.783863 *  0.901333 *  0.300417 *  -2.87073    1.000000    
    207 O2    s    0.094657 *  0.880085 *  0.633981 *  -2.87073    1.000000    
    208 O2    s    0.876596 *  0.783418 *  0.468423 *  -2.87073    1.000000    
    209 O2    s    0.214182 *  0.095801 *  0.798974 *  -2.87073    1.000000    
    210 O3    s    0.904295 *  0.137092 *  0.136198 *  -3.33043    1.000000    
    211 O2    s    0.216651 *  0.119778 *  0.361822 *  -2.87073    1.000000    
    212 O2    s    0.916885 *  0.790560 *  0.024577 *  -2.87073    1.000000    
    213 O2    s    0.878299 *  0.098921 *  0.692822 *  -2.87073    1.000000    
    214 O2    s    0.777619 *  0.877164 *  0.860435 *  -2.87073    1.000000    
    215 O2    s    0.091608 *  0.216254 *  0.527806 *  -2.87073    1.000000    
    216 O2    s    0.123436 *  0.905454 *  0.197107 *  -2.87073    1.000000    
    217 O2    s    0.928773 *  0.849194 *  0.249519 *  -2.87073    1.000000    
    218 O2    s    0.138310 *  0.070564 *  0.580610 *  -2.87073    1.000000    
    219 O2    s    0.925891 *  0.067107 *  0.911686 *  -2.87073    1.000000    
    220 O2    s    0.069063 *  0.143966 *  0.746529 *  -2.87073    1.000000    
    221 O3    s    0.877529 *  0.936725 *  0.079194 *  -3.33043    1.000000    
    222 O2    s    0.069365 *  0.928658 *  0.415178 *  -2.87073    1.000000    
    223 O2    s    0.909656 *  0.200159 *  0.978099 *  -2.87073    1.000000    
    224 O2    s    0.795362 *  0.700334 *  0.315074 *  -2.87073    1.000000    
    225 O2    s    0.296039 *  0.093563 *  0.645216 *  -2.87073    1.000000    
    226 O2    s    0.088700 *  0.794041 *  0.480401 *  -2.87073    1.000000    
    227 O2    s    0.200775 *  0.295567 *  0.813342 *  -2.87073    1.000000    
    228 O3    s    0.691849 *  0.905214 *  0.145949 *  -3.33043    1.000000    
    229 O2    s    0.206579 *  0.907181 *  0.351012 *  -2.87073    1.000000    
    230 O2    s    0.710560 *  0.792908 *  0.018509 *  -2.87073    1.000000    
    231 O2    s    0.092020 *  0.298822 *  0.681318 *  -2.87073    1.000000    
    232 O2    s    0.792452 *  0.091020 *  0.846669 *  -2.87073    1.000000    
    233 O2    s    0.293819 *  0.207082 *  0.515613 *  -2.87073    1.000000    
    234 O2    s    0.905074 *  0.709757 *  0.177915 *  -2.87073    1.000000    
    235 O2    s    0.325286 *  0.653567 *  0.247362 *  -2.87073    1.000000    
    236 O2    s    0.341997 *  0.670909 *  0.579828 *  -2.87073    1.000000    
    237 O3    s    0.319553 *  0.684012 *  0.907406 *  -3.33043    1.000000    
    238 O2    s    0.671513 *  0.346250 *  0.747932 *  -2.87073    1.000000    
    239 O3    s    0.626043 *  0.313300 *  0.087163 *  -3.33043    1.000000    
    240 O2    s    0.671698 *  0.328720 *  0.416067 *  -2.87073    1.000000    
    241 O2    s    0.372631 *  0.339187 *  0.964307 *  -2.87073    1.000000    
    242 O2    s    0.661891 *  0.033353 *  0.300765 *  -2.87073    1.000000    
    243 O2    s    0.963109 *  0.625293 *  0.633293 *  -2.87073    1.000000    
    244 O2    s    0.621096 *  0.659891 *  0.466187 *  -2.87073    1.000000    
    245 O2    s    0.339008 *  0.966075 *  0.796739 *  -2.87073    1.000000    
    246 O2    s    0.029255 *  0.384665 *  0.129324 *  -2.87073    1.000000    
    247 O2    s    0.339598 *  0.374888 *  0.362360 *  -2.87073    1.000000    
    248 O2    s    0.030475 *  0.652091 *  0.026629 *  -2.87073    1.000000    
    249 O2    s    0.623941 *  0.967370 *  0.693565 *  -2.87073    1.000000    
    250 O2    s    0.652966 *  0.623079 *  0.864271 *  -2.87073    1.000000    
    251 O2    s    0.960611 *  0.340402 *  0.529700 *  -2.87073    1.000000    
    252 O2    s    0.376863 *  0.036978 *  0.199786 *  -2.87073    1.000000    
    253 O3    s    0.767008 *  0.290534 *  0.006520 *  -3.33043    1.000000    
    254 O2    s    0.689922 *  0.463499 *  0.346201 *  -2.87073    1.000000    
    255 O2    s    0.533709 *  0.226839 *  0.677757 *  -2.87073    1.000000    
    256 O2    s    0.219745 *  0.687689 *  0.511172 *  -2.87073    1.000000    
    257 O2    s    0.304787 *  0.534643 *  0.844594 *  -2.87073    1.000000    
    258 O2    s    0.461208 *  0.777064 *  0.178634 *  -2.87073    1.000000    
    259 O2    s    0.312356 *  0.774721 *  0.318002 *  -2.87073    1.000000    
    260 O3    s    0.479232 *  0.703403 *  0.988228 *  -3.33043    1.000000    
    261 O2    s    0.223544 *  0.535759 *  0.649894 *  -2.87073    1.000000    
    262 O2    s    0.686067 *  0.223690 *  0.816587 *  -2.87073    1.000000    
    263 O2    s    0.531501 *  0.312485 *  0.484741 *  -2.87073    1.000000    
    264 O2    s    0.767857 *  0.470632 *  0.148307 *  -2.87073    1.000000    
    265 O3    s    0.784431 *  0.546037 *  0.021046 *  -3.33043    1.000000    
    266 O2    s    0.468329 *  0.256339 *  0.362641 *  -2.87073    1.000000    
    267 O2    s    0.742229 *  0.213963 *  0.694336 *  -2.87073    1.000000    
    268 O2    s    0.207524 *  0.466964 *  0.527644 *  -2.87073    1.000000    
    269 O2    s    0.526461 *  0.741994 *  0.863456 *  -2.87073    1.000000    
    270 O2    s    0.253926 *  0.788357 *  0.197571 *  -2.87073    1.000000    
    271 O2    s    0.532814 *  0.785878 *  0.298738 *  -2.87073    1.000000    
    272 O3    s    0.236978 *  0.445082 *  0.970723 *  -3.33043    1.000000    
    273 O2    s    0.210033 *  0.743686 *  0.633284 *  -2.87073    1.000000    
    274 O2    s    0.465399 *  0.213151 *  0.798905 *  -2.87073    1.000000    
    275 O2    s    0.740869 *  0.532866 *  0.468574 *  -2.87073    1.000000    
    276 O2    s    0.781931 *  0.263922 *  0.132516 *  -2.87073    1.000000    
    277 O2    s    0.233316 *  0.338623 *  0.896662 *  -2.87073    1.000000    
    278 O2    s    0.668551 *  0.908994 *  0.229231 *  -2.87073    1.000000    
    279 O2    s    0.090144 *  0.758892 *  0.563432 *  -2.87073    1.000000    
    280 O2    s    0.759005 *  0.664832 *  0.397737 *  -2.87073    1.000000    
    281 O2    s    0.331333 *  0.093141 *  0.727984 *  -2.87073    1.000000    
    282 O2    s    0.895687 *  0.238263 *  0.062737 *  -2.87073    1.000000    
    283 O2    s    0.331362 *  0.241772 *  0.432407 *  -2.87073    1.000000    
    284 O2    s    0.893070 *  0.660846 *  0.094229 *  -2.87073    1.000000    
    285 O2    s    0.758483 *  0.095403 *  0.763800 *  -2.87073    1.000000    
    286 O2    s    0.662978 *  0.758307 *  0.933257 *  -2.87073    1.000000    
    287 O2    s    0.091251 *  0.334447 *  0.598535 *  -2.87073    1.000000    
    288 O2    s    0.242831 *  0.908651 *  0.268582 *  -2.87073    1.000000    
    289 O2    s    0.571872 *  0.557553 *  0.985759 *  -2.87073    1.000000    
    290 O2    s    0.443813 *  0.020185 *  0.321505 *  -2.87073    1.000000    
    291 O2    s    0.976445 *  0.419779 *  0.651909 *  -2.87073    1.000000    
    292 O2    s    0.414406 *  0.441856 *  0.484761 *  -2.87073    1.000000    
    293 O2    s    0.557517 *  0.976926 *  0.815309 *  -2.87073    1.000000    
    294 O2    s    0.015415 *  0.585717 *  0.144782 *  -2.87073    1.000000    
    295 O2    s    0.559096 *  0.579987 *  0.344265 *  -2.87073    1.000000    
    296 O2    s    0.012512 *  0.434924 *  0.009858 *  -2.87073    1.000000    
    297 O2    s    0.418939 *  0.980616 *  0.674200 *  -2.87073    1.000000    
    298 O2    s    0.436299 *  0.421761 *  0.847459 *  -2.87073    1.000000    
    299 O2    s    0.973288 *  0.558618 *  0.511106 *  -2.87073    1.000000    
    300 O2    s    0.582159 *  0.026466 *  0.179112 *  -2.87073    1.000000    
    301 O2    s    0.578563 *  0.153301 *  0.251667 *  -2.87073    1.000000    
    302 O2    s    0.844048 *  0.424177 *  0.581972 *  -2.87073    1.000000    
    303 O2    s    0.575271 *  0.428960 *  0.915035 *  -2.87073    1.000000    
    304 O2    s    0.421641 *  0.849325 *  0.743695 *  -2.87073    1.000000    
    305 O2    s    0.149777 *  0.575899 *  0.078442 *  -2.87073    1.000000    
    306 O2    s    0.420824 *  0.575892 *  0.413709 *  -2.87073    1.000000    
    307 F     s    0.453011 *  0.902724 *  0.248798 *  -1.56000    1.000000    
    308 F     s    0.095708 *  0.548582 *  0.581360 *  -1.56000    1.000000    
    309 F     s    0.415221 *  0.563966 *  0.925247 *  -1.56000    1.000000    
    310 F     s    0.546736 *  0.099570 *  0.746467 *  -1.56000    1.000000    
    311 F     s    0.841327 *  0.431238 *  0.068708 *  -1.56000    1.000000    
    312 F     s    0.547909 *  0.451902 *  0.415070 *  -1.56000    1.000000    
--------------------------------------------------------------------------------



********************************************************************************
*  General input information                                                   *
********************************************************************************

  Species output for all configurations : 

--------------------------------------------------------------------------------
  Species    Type    Atomic    Atomic    Charge       Radii (Angs)     Library
                     Number     Mass       (e)     Cova   Ionic  VDW   Symbol
--------------------------------------------------------------------------------
    Si       Core       14      28.09   4.000000   1.200  0.000  2.100          
    O1       Core        8      16.00   1.733957   0.730  0.000  1.360          
    O1       Shell       8       0.00  -3.733957   0.730  0.000  1.360          
    O2       Core        8      16.00   0.870733   0.730  0.000  1.360          
    O2       Shell       8       0.00  -2.870733   0.730  0.000  1.360          
    O3       Core        8      16.00   1.330431   0.730  0.000  1.360          
    O3       Shell       8       0.00  -3.330431   0.730  0.000  1.360          
    F        Core        9      19.00   0.560000   0.710  0.000  1.300          
    F        Shell       9       0.00  -1.560000   0.710  0.000  1.300          
    Ge       Core       32      72.61   4.000000   1.170  0.000  1.750          
--------------------------------------------------------------------------------


  Lattice summation method               =    Ewald          (3-D)
                                         =    Parry          (2-D)
                                         =    Saunders et al (1-D)
  Accuracy factor for lattice sums       =   12.000


  Time limit = Infinity

  Maximum range for interatomic potentials =        16.000000 Angstroms

  Taper potentials to zero over   1.0000 Angstroms using polynomial

  General interatomic potentials :

--------------------------------------------------------------------------------
Atom  Types   Potential         A         B         C         D     Cutoffs(Ang)
  1     2                                                            Min    Max 
--------------------------------------------------------------------------------
Si   c O1   s Buckingham    0.132E+04 0.318      10.1      0.00     0.000 16.000
Si   c O2   s Buckingham    0.132E+04 0.318      10.1      0.00     0.000 16.000
Si   c O3   s Buckingham    0.132E+04 0.318      10.1      0.00     0.000 16.000
Ge   c O1   s Buckingham    0.150E+04 0.326      16.8      0.00     0.000 16.000
Ge   c O2   s Buckingham    0.150E+04 0.326      16.8      0.00     0.000 16.000
Ge   c O3   s Buckingham    0.150E+04 0.326      16.8      0.00     0.000 16.000
O1   s O1   s Buckingham    0.228E+05 0.149      10.9      0.00     0.000 16.000
O1   s O2   s Buckingham    0.228E+05 0.149      10.9      0.00     0.000 16.000
O1   s O3   s Buckingham    0.228E+05 0.149      10.9      0.00     0.000 16.000
O2   s O2   s Buckingham    0.228E+05 0.149      10.9      0.00     0.000 16.000
O2   s O3   s Buckingham    0.228E+05 0.149      10.9      0.00     0.000 16.000
O3   s O3   s Buckingham    0.228E+05 0.149      10.9      0.00     0.000 16.000
Si   c F    s Buckingham     977.     0.282      0.00      0.00     0.000 16.000
Ge   c F    s Buckingham     681.     0.320      0.00      0.00     0.000 16.000
F    s F    s Buckingham     540.     0.262      0.00      0.00     0.000 16.000
O1   s F    s Buckingham    0.168E+04 0.268      0.00      0.00     0.000 16.000
O2   s F    s Buckingham    0.168E+04 0.268      0.00      0.00     0.000 16.000
O3   s F    s Buckingham    0.168E+04 0.268      0.00      0.00     0.000 16.000
O2   c O2   s Spring (c-s)   76.0      0.00      0.00      0.00     0.000  0.800
O3   c O3   s Spring (c-s)   128.      0.00      0.00      0.00     0.000  0.800
O1   c O1   s Spring (c-s)   180.      0.00      0.00      0.00     0.000  0.800
F    c F    s Spring (c-s)   33.5      0.00      0.00      0.00     0.000  0.800
--------------------------------------------------------------------------------

  General Three-body potentials :

  Harmonic form:

--------------------------------------------------------------------------------
Atom    Atom    Atom           Force Constants            Theta     Cutoffs  
  1       2       3     (eVrad**-2/eVrad**-3/eVrad**-4)   (deg)  1-2  1-3  2-3
--------------------------------------------------------------------------------
Si    c O1    s O1    s  1.261        0.0000    0.0000   109.470 0.00 0.00 0.00
                                                                 1.90 1.90 3.50
Si    c O1    s O2    s  1.261        0.0000    0.0000   109.470 0.00 0.00 0.00
                                                                 1.90 1.90 3.50
Si    c O2    s O2    s  1.261        0.0000    0.0000   109.470 0.00 0.00 0.00
                                                                 1.90 1.90 3.50
--------------------------------------------------------------------------------

********************************************************************************
*  Output for configuration   1                                                *
********************************************************************************


  Components of energy : 

--------------------------------------------------------------------------------
  Interatomic potentials     =        2062.82944985 eV
  Three-body potentials      =           0.44510502 eV
  Monopole - monopole (real) =       -6613.77034821 eV
  Monopole - monopole (recip)=       -3169.93604638 eV
  Monopole - monopole (total)=       -9783.70639459 eV
  Neutralising energy        =          -6.45714014 eV
--------------------------------------------------------------------------------
  Total lattice energy       =       -7726.88897985 eV
--------------------------------------------------------------------------------
  Total lattice energy       =         -745526.6702 kJ/(mole unit cells)
--------------------------------------------------------------------------------


  Number of variables =      939

  Maximum number of calculations  =          5000
  Maximum Hessian update interval =            10
  Maximum step size               =   0.100000000
  Maximum parameter tolerance     =   0.000010000
  Maximum function  tolerance     =   0.000010000
  Maximum gradient  tolerance     =   0.001000000
  Maximum gradient  component     =   0.010000000

  Symmetry not applied to optimisation

  Cell parameters to be optimised using strains

  Newton-Raphson optimiser to be used

  BFGS hessian update to be used

  Dumpfile to be written after every cycle

  Start of bulk optimisation :

  Cycle:      0 Energy:     -7726.888980  Gnorm:      0.008626  CPU:    2.006
  ** Hessian calculated **
  Cycle:      1 Energy:     -7726.919436  Gnorm:      0.007557  CPU:    6.689
  Cycle:      2 Energy:     -7726.955078  Gnorm:      0.006076  CPU:   10.996
  Cycle:      3 Energy:     -7726.992334  Gnorm:      0.004073  CPU:   15.302
  Cycle:      4 Energy:     -7727.009761  Gnorm:      0.002523  CPU:   19.608
  Cycle:      5 Energy:     -7727.014042  Gnorm:      0.001472  CPU:   23.913
  Cycle:      6 Energy:     -7727.015131  Gnorm:      0.000815  CPU:   28.218
  Cycle:      7 Energy:     -7727.015410  Gnorm:      0.000432  CPU:   32.524
  Cycle:      8 Energy:     -7727.015481  Gnorm:      0.000228  CPU:   36.829
  Cycle:      9 Energy:     -7727.015494  Gnorm:      0.000161  CPU:   39.728
  Cycle:     10 Energy:     -7727.015500  Gnorm:      0.000114  CPU:   42.628
  ** Hessian calculated **
  Cycle:     11 Energy:     -7727.015500  Gnorm:      0.000058  CPU:   47.208
  Cycle:     12 Energy:     -7727.015500  Gnorm:      0.000045  CPU:   50.107


  **** Optimisation achieved ****


  Final energy =   -7727.01549975 eV
  Final Gnorm  =       0.00003514

  Components of energy : 

--------------------------------------------------------------------------------
  Interatomic potentials     =        2063.23309257 eV
  Three-body potentials      =           0.44859590 eV
  Monopole - monopole (real) =       -6615.01883117 eV
  Monopole - monopole (recip)=       -3169.22266568 eV
  Monopole - monopole (total)=       -9784.24149686 eV
  Neutralising energy        =          -6.45569136 eV
--------------------------------------------------------------------------------
  Total lattice energy       =       -7727.01549975 eV
--------------------------------------------------------------------------------
  Total lattice energy       =         -745538.8775 kJ/(mole unit cells)
--------------------------------------------------------------------------------

  Final fractional coordinates of atoms :

--------------------------------------------------------------------------------
   No.  Atomic        x           y          z          Radius
        Label       (Frac)      (Frac)     (Frac)       (Angs) 
--------------------------------------------------------------------------------
     1  Ge    c     0.699600    0.375700    0.033890    0.000000
     2  Si    c     0.599586    0.309232    0.364802    0.000000
     3  Si    c     0.659244    0.295217    0.696785    0.000000
     4  Si    c     0.271465    0.610447    0.527811    0.000000
     5  Si    c     0.353520    0.673897    0.860581    0.000000
     6  Si    c     0.300252    0.690640    0.196595    0.000000
     7  Si    c     0.356969    0.686535    0.296566    0.000000
     8  Ge    c     0.316100    0.604995    0.958629    0.000000
     9  Si    c     0.279208    0.671767    0.628221    0.000000
    10  Si    c     0.600726    0.289591    0.797298    0.000000
    11  Si    c     0.651886    0.370251    0.465397    0.000000
    12  Si    c     0.666989    0.310394    0.132267    0.000000
    13  Si    c     0.517852    0.410002    0.967773    0.000000
    14  Si    c     0.563010    0.096410    0.301097    0.000000
    15  Si    c     0.869155    0.467794    0.632479    0.000000
    16  Si    c     0.442934    0.570504    0.462621    0.000000
    17  Si    c     0.398818    0.880550    0.793095    0.000000
    18  Si    c     0.092868    0.524142    0.128364    0.000000
    19  Si    c     0.392813    0.513185    0.360937    0.000000
    20  Si    c     0.098980    0.570635    0.024900    0.000000
    21  Si    c     0.454786    0.885613    0.691592    0.000000
    22  Si    c     0.564434    0.462387    0.864230    0.000000
    23  Si    c     0.862441    0.410004    0.530799    0.000000
    24  Si    c     0.510157    0.102158    0.199817    0.000000
    25  Si    c     0.277534    0.390499    0.849964    0.000000
    26  Si    c     0.578206    0.892032    0.181752    0.000000
    27  Si    c     0.070137    0.688490    0.515168    0.000000
    28  Si    c     0.674721    0.584542    0.348645    0.000000
    29  Si    c     0.381984    0.093639    0.679629    0.000000
    30  Si    c     0.880591    0.282639    0.012041    0.000000
    31  Si    c     0.372143    0.292406    0.478040    0.000000
    32  Si    c     0.875837    0.593579    0.141619    0.000000
    33  Si    c     0.678672    0.088852    0.810094    0.000000
    34  Si    c     0.588575    0.696623    0.982265    0.000000
    35  Si    c     0.079469    0.396371    0.644896    0.000000
    36  Si    c     0.281807    0.888333    0.314456    0.000000
    37  Si    c     0.231063    0.326071    0.952002    0.000000
    38  Si    c     0.638768    0.895223    0.282070    0.000000
    39  Si    c     0.069511    0.744557    0.615927    0.000000
    40  Si    c     0.723215    0.648769    0.449198    0.000000
    41  Si    c     0.320648    0.081424    0.780131    0.000000
    42  Si    c     0.885201    0.243420    0.115417    0.000000
    43  Si    c     0.316696    0.236783    0.377268    0.000000
    44  Si    c     0.895169    0.654440    0.039326    0.000000
    45  Si    c     0.732564    0.087318    0.709354    0.000000
    46  Si    c     0.639217    0.742607    0.878989    0.000000
    47  Si    c     0.064046    0.331697    0.544289    0.000000
    48  Si    c     0.231607    0.899749    0.214160    0.000000
    49  Si    c     0.957710    0.106689    0.960858    0.000000
    50  Si    c     0.855173    0.830254    0.298443    0.000000
    51  Si    c     0.132752    0.024915    0.629742    0.000000
    52  Si    c     0.002904    0.867883    0.464400    0.000000
    53  Si    c     0.101860    0.142728    0.795982    0.000000
    54  Ge    c     0.832137    0.965862    0.131477    0.000000
    55  Si    c     0.099645    0.956178    0.363759    0.000000
    56  Si    c     0.845918    0.875500    0.028758    0.000000
    57  Si    c     0.013917    0.150806    0.694808    0.000000
    58  Si    c     0.857945    0.018393    0.860083    0.000000
    59  Si    c     0.124967    0.113076    0.529109    0.000000
    60  Si    c     0.952370    0.839237    0.197322    0.000000
    61  O2    c     0.909970    0.983985    0.991544    0.000000
    62  O2    c     0.976981    0.911201    0.331205    0.000000
    63  O2    c     0.054801    0.069546    0.662325    0.000000
    64  O2    c     0.043865    0.990267    0.496819    0.000000
    65  O2    c     0.975535    0.056275    0.825638    0.000000
    66  O3    c     0.919311    0.929111    0.168340    0.000000
    67  O2    c     0.318042    0.562401    0.327926    0.000000
    68  O2    c     0.406840    0.760543    0.658850    0.000000
    69  O3    c     0.218949    0.644538    0.993681    0.000000
    70  O2    c     0.637682    0.411225    0.830981    0.000000
    71  O2    c     0.558147    0.230570    0.170283    0.000000
    72  O2    c     0.734928    0.332812    0.499080    0.000000
    73  O3    c     0.563587    0.334961    0.998354    0.000000
    74  O2    c     0.745027    0.419887    0.665599    0.000000
    75  O2    c     0.639498    0.221469    0.334020    0.000000
    76  O2    c     0.392471    0.647769    0.494185    0.000000
    77  O2    c     0.214633    0.570799    0.162473    0.000000
    78  O2    c     0.322239    0.752227    0.822918    0.000000
    79  O2    c     0.111878    0.187791    0.967236    0.000000
    80  O2    c     0.764185    0.893937    0.302494    0.000000
    81  O2    c     0.070841    0.871803    0.635867    0.000000
    82  O2    c     0.848245    0.777300    0.469022    0.000000
    83  O2    c     0.192972    0.079455    0.800174    0.000000
    84  O3    c     0.890494    0.127856    0.139305    0.000000
    85  O2    c     0.190822    0.109243    0.357312    0.000000
    86  O2    c     0.917118    0.792520    0.023088    0.000000
    87  O2    c     0.859605    0.088523    0.689172    0.000000
    88  O2    c     0.764087    0.864682    0.857016    0.000000
    89  O2    c     0.060657    0.203192    0.524590    0.000000
    90  O2    c     0.106641    0.900557    0.193828    0.000000
    91  O2    c     0.907970    0.839403    0.248359    0.000000
    92  O2    c     0.115666    0.060897    0.579283    0.000000
    93  O2    c     0.918172    0.061057    0.909463    0.000000
    94  O2    c     0.054814    0.139139    0.745148    0.000000
    95  O3    c     0.868008    0.938668    0.077873    0.000000
    96  O2    c     0.046051    0.920622    0.414253    0.000000
    97  O2    c     0.891842    0.190135    0.974460    0.000000
    98  O2    c     0.773450    0.679859    0.310623    0.000000
    99  O2    c     0.285430    0.095421    0.641135    0.000000
   100  O2    c     0.070940    0.785194    0.476980    0.000000
   101  O2    c     0.181959    0.291469    0.811379    0.000000
   102  O3    c     0.668770    0.887316    0.142081    0.000000
   103  O2    c     0.182985    0.886530    0.352935    0.000000
   104  O2    c     0.692573    0.787016    0.020482    0.000000
   105  O2    c     0.083688    0.301622    0.682955    0.000000
   106  O2    c     0.775627    0.088014    0.848526    0.000000
   107  O2    c     0.275873    0.195832    0.516297    0.000000
   108  O2    c     0.878793    0.691761    0.180226    0.000000
   109  O2    c     0.299194    0.630528    0.246029    0.000000
   110  O2    c     0.332974    0.669031    0.577629    0.000000
   111  O3    c     0.295848    0.680128    0.908294    0.000000
   112  O2    c     0.659359    0.349766    0.747758    0.000000
   113  O3    c     0.603155    0.302763    0.084461    0.000000
   114  O2    c     0.655323    0.312171    0.415484    0.000000
   115  O2    c     0.360373    0.323723    0.966321    0.000000
   116  O2    c     0.649862    0.026660    0.302298    0.000000
   117  O2    c     0.938204    0.623630    0.635232    0.000000
   118  O2    c     0.599316    0.658688    0.466323    0.000000
   119  O2    c     0.311634    0.949748    0.797545    0.000000
   120  O2    c     0.016881    0.369969    0.131328    0.000000
   121  O2    c     0.306055    0.357280    0.357936    0.000000
   122  O2    c     0.026619    0.655360    0.025787    0.000000
   123  O2    c     0.611579    0.955470    0.689722    0.000000
   124  O2    c     0.645153    0.617592    0.861212    0.000000
   125  O2    c     0.930357    0.321806    0.527128    0.000000
   126  O2    c     0.353560    0.031569    0.196337    0.000000
   127  O3    c     0.746991    0.276477    0.002944    0.000000
   128  O2    c     0.674772    0.450442    0.341804    0.000000
   129  O2    c     0.515929    0.228198    0.673897    0.000000
   130  O2    c     0.202475    0.685366    0.506395    0.000000
   131  O2    c     0.281683    0.525025    0.841284    0.000000
   132  O2    c     0.442893    0.759589    0.174112    0.000000
   133  O2    c     0.282375    0.754584    0.320018    0.000000
   134  O3    c     0.461423    0.703740    0.990630    0.000000
   135  O2    c     0.213696    0.530944    0.651473    0.000000
   136  O2    c     0.674939    0.220353    0.819325    0.000000
   137  O2    c     0.507423    0.295261    0.486714    0.000000
   138  O2    c     0.744538    0.459805    0.150945    0.000000
   139  O3    c     0.769074    0.541774    0.016898    0.000000
   140  O2    c     0.443245    0.235083    0.358815    0.000000
   141  O2    c     0.733459    0.213615    0.690900    0.000000
   142  O2    c     0.188832    0.454757    0.523443    0.000000
   143  O2    c     0.511166    0.739223    0.860305    0.000000
   144  O2    c     0.225612    0.771834    0.193665    0.000000
   145  O2    c     0.513472    0.767935    0.300546    0.000000
   146  O3    c     0.217357    0.438206    0.974650    0.000000
   147  O2    c     0.197555    0.746208    0.634335    0.000000
   148  O2    c     0.444136    0.208473    0.800815    0.000000
   149  O2    c     0.724850    0.525851    0.469893    0.000000
   150  O2    c     0.759582    0.246445    0.133346    0.000000
   151  O2    c     0.211003    0.323848    0.896899    0.000000
   152  O2    c     0.657177    0.896526    0.227483    0.000000
   153  O2    c     0.068005    0.760452    0.561633    0.000000
   154  O2    c     0.743972    0.661849    0.394970    0.000000
   155  O2    c     0.304451    0.084799    0.725830    0.000000
   156  O2    c     0.882386    0.220453    0.061104    0.000000
   157  O2    c     0.298290    0.220578    0.431542    0.000000
   158  O2    c     0.874974    0.659230    0.094459    0.000000
   159  O2    c     0.750961    0.088062    0.763668    0.000000
   160  O2    c     0.655266    0.758306    0.933325    0.000000
   161  O2    c     0.071259    0.319012    0.598545    0.000000
   162  O2    c     0.212799    0.896974    0.268496    0.000000
   163  O2    c     0.561922    0.551805    0.988392    0.000000
   164  O2    c     0.422303    0.011210    0.324295    0.000000
   165  O2    c     0.954893    0.411785    0.654842    0.000000
   166  O2    c     0.385112    0.431251    0.486225    0.000000
   167  O2    c     0.539654    0.962122    0.817187    0.000000
   168  O2    c     0.001977    0.578827    0.146783    0.000000
   169  O2    c     0.534957    0.569449    0.338667    0.000000
   170  O2    c     0.001212    0.426500    0.006115    0.000000
   171  O2    c     0.398956    0.970874    0.669074    0.000000
   172  O2    c     0.419966    0.408480    0.844706    0.000000
   173  O2    c     0.944099    0.549310    0.507160    0.000000
   174  O2    c     0.567870    0.020027    0.175018    0.000000
   175  O2    c     0.562209    0.151177    0.251075    0.000000
   176  O2    c     0.812580    0.412664    0.581961    0.000000
   177  O2    c     0.567826    0.419191    0.915335    0.000000
   178  O2    c     0.399674    0.831169    0.741730    0.000000
   179  O2    c     0.142573    0.567290    0.077428    0.000000
   180  O2    c     0.390602    0.567696    0.411487    0.000000
   181  F     c     0.431625    0.890130    0.247739    0.000000
   182  F     c     0.074473    0.541923    0.580047    0.000000
   183  F     c     0.407524    0.552483    0.922154    0.000000
   184  F     c     0.529986    0.092025    0.745156    0.000000
   185  F     c     0.843360    0.429978    0.070777    0.000000
   186  F     c     0.523437    0.439153    0.413250    0.000000
   187  O2    s     0.908126    0.985885    0.992251    0.000000
   188  O2    s     0.977145    0.907214    0.331204    0.000000
   189  O2    s     0.058982    0.073642    0.662305    0.000000
   190  O2    s     0.048330    0.990318    0.496805    0.000000
   191  O2    s     0.976557    0.061671    0.826149    0.000000
   192  O3    s     0.915339    0.922611    0.168278    0.000000
   193  O2    s     0.329709    0.570088    0.328083    0.000000
   194  O2    s     0.398710    0.764356    0.659083    0.000000
   195  O3    s     0.212254    0.633561    0.994742    0.000000
   196  O2    s     0.626284    0.404155    0.830999    0.000000
   197  O2    s     0.564229    0.225297    0.169485    0.000000
   198  O2    s     0.739539    0.344668    0.498871    0.000000
   199  O3    s     0.567845    0.346098    0.997404    0.000000
   200  O2    s     0.748959    0.412024    0.665412    0.000000
   201  O2    s     0.627583    0.217598    0.333795    0.000000
   202  O2    s     0.385191    0.635899    0.494397    0.000000
   203  O2    s     0.210719    0.578260    0.162432    0.000000
   204  O2    s     0.333514    0.757702    0.823651    0.000000
   205  O2    s     0.107288    0.193058    0.965007    0.000000
   206  O2    s     0.760849    0.887288    0.299963    0.000000
   207  O2    s     0.077227    0.874833    0.633195    0.000000
   208  O2    s     0.851752    0.773657    0.466516    0.000000
   209  O2    s     0.196480    0.086410    0.797673    0.000000
   210  O3    s     0.885181    0.126292    0.136262    0.000000
   211  O2    s     0.194183    0.106249    0.360019    0.000000
   212  O2    s     0.907196    0.787317    0.025363    0.000000
   213  O2    s     0.862840    0.095049    0.691849    0.000000
   214  O2    s     0.761103    0.868337    0.859595    0.000000
   215  O2    s     0.067800    0.206867    0.527067    0.000000
   216  O2    s     0.103370    0.893859    0.196356    0.000000
   217  O2    s     0.906888    0.838331    0.248382    0.000000
   218  O2    s     0.118645    0.062731    0.579313    0.000000
   219  O2    s     0.915626    0.061242    0.909540    0.000000
   220  O2    s     0.055488    0.140871    0.745177    0.000000
   221  O3    s     0.862522    0.934364    0.077376    0.000000
   222  O2    s     0.047223    0.918674    0.414217    0.000000
   223  O2    s     0.897995    0.190709    0.976950    0.000000
   224  O2    s     0.771983    0.686030    0.313244    0.000000
   225  O2    s     0.279116    0.087791    0.643845    0.000000
   226  O2    s     0.063582    0.784082    0.479562    0.000000
   227  O2    s     0.183250    0.285744    0.813723    0.000000
   228  O3    s     0.673505    0.894168    0.144980    0.000000
   229  O2    s     0.184271    0.894014    0.350167    0.000000
   230  O2    s     0.698166    0.787087    0.017428    0.000000
   231  O2    s     0.075897    0.295359    0.680327    0.000000
   232  O2    s     0.774390    0.080751    0.845808    0.000000
   233  O2    s     0.269621    0.196920    0.513728    0.000000
   234  O2    s     0.886347    0.697283    0.177998    0.000000
   235  O2    s     0.305157    0.642329    0.246109    0.000000
   236  O2    s     0.321117    0.663279    0.577722    0.000000
   237  O3    s     0.303165    0.674758    0.906442    0.000000
   238  O2    s     0.653366    0.338073    0.747627    0.000000
   239  O3    s     0.615820    0.308108    0.086316    0.000000
   240  O2    s     0.649256    0.317832    0.415387    0.000000
   241  O2    s     0.362349    0.332635    0.964921    0.000000
   242  O2    s     0.639775    0.020206    0.300065    0.000000
   243  O2    s     0.944788    0.620262    0.632936    0.000000
   244  O2    s     0.596220    0.648565    0.464133    0.000000
   245  O2    s     0.321508    0.956494    0.795256    0.000000
   246  O2    s     0.011107    0.373163    0.129318    0.000000
   247  O2    s     0.316012    0.360727    0.360249    0.000000
   248  O2    s     0.019777    0.646680    0.027172    0.000000
   249  O2    s     0.608066    0.962048    0.691973    0.000000
   250  O2    s     0.636167    0.614494    0.863373    0.000000
   251  O2    s     0.937395    0.331911    0.529315    0.000000
   252  O2    s     0.356871    0.024933    0.198588    0.000000
   253  O3    s     0.757751    0.283749    0.006023    0.000000
   254  O2    s     0.667077    0.450015    0.344900    0.000000
   255  O2    s     0.516554    0.220946    0.676879    0.000000
   256  O2    s     0.195606    0.677959    0.509565    0.000000
   257  O2    s     0.288157    0.525111    0.844085    0.000000
   258  O2    s     0.442195    0.766318    0.177316    0.000000
   259  O2    s     0.289942    0.761662    0.317006    0.000000
   260  O3    s     0.465156    0.696494    0.987586    0.000000
   261  O2    s     0.206349    0.531263    0.648377    0.000000
   262  O2    s     0.667710    0.213736    0.816072    0.000000
   263  O2    s     0.508051    0.302716    0.483559    0.000000
   264  O2    s     0.750907    0.459517    0.148128    0.000000
   265  O3    s     0.778116    0.543147    0.020308    0.000000
   266  O2    s     0.445782    0.243034    0.361390    0.000000
   267  O2    s     0.725510    0.208378    0.693483    0.000000
   268  O2    s     0.183818    0.457610    0.526121    0.000000
   269  O2    s     0.509511    0.733007    0.862391    0.000000
   270  O2    s     0.234236    0.777106    0.196176    0.000000
   271  O2    s     0.510553    0.773205    0.298155    0.000000
   272  O3    s     0.225202    0.436937    0.971276    0.000000
   273  O2    s     0.192071    0.738242    0.631749    0.000000
   274  O2    s     0.447255    0.203276    0.798254    0.000000
   275  O2    s     0.716990    0.522971    0.467216    0.000000
   276  O2    s     0.764013    0.252685    0.131255    0.000000
   277  O2    s     0.220231    0.331443    0.897140    0.000000
   278  O2    s     0.647403    0.895998    0.228515    0.000000
   279  O2    s     0.068379    0.751193    0.562517    0.000000
   280  O2    s     0.734497    0.652343    0.395880    0.000000
   281  O2    s     0.314277    0.085353    0.726743    0.000000
   282  O2    s     0.882447    0.228785    0.061987    0.000000
   283  O2    s     0.308005    0.229857    0.430664    0.000000
   284  O2    s     0.876866    0.651667    0.094284    0.000000
   285  O2    s     0.741417    0.088070    0.762780    0.000000
   286  O2    s     0.647085    0.750661    0.932263    0.000000
   287  O2    s     0.071354    0.328471    0.597636    0.000000
   288  O2    s     0.222067    0.896383    0.267570    0.000000
   289  O2    s     0.559894    0.552346    0.985592    0.000000
   290  O2    s     0.421834    0.006672    0.320818    0.000000
   291  O2    s     0.959522    0.416147    0.651435    0.000000
   292  O2    s     0.389913    0.430793    0.482878    0.000000
   293  O2    s     0.539938    0.967404    0.813917    0.000000
   294  O2    s     0.997927    0.574505    0.144254    0.000000
   295  O2    s     0.535101    0.564996    0.342085    0.000000
   296  O2    s     0.998378    0.426280    0.008713    0.000000
   297  O2    s     0.403143    0.975353    0.672562    0.000000
   298  O2    s     0.420010    0.412379    0.847348    0.000000
   299  O2    s     0.949363    0.549817    0.510488    0.000000
   300  O2    s     0.562882    0.014838    0.178292    0.000000
   301  O2    s     0.556825    0.140287    0.250936    0.000000
   302  O2    s     0.823615    0.418095    0.581878    0.000000
   303  O2    s     0.562606    0.423022    0.914876    0.000000
   304  O2    s     0.405356    0.842098    0.741879    0.000000
   305  O2    s     0.132965    0.562927    0.077862    0.000000
   306  O2    s     0.396261    0.562326    0.411551    0.000000
   307  F     s     0.431460    0.889696    0.247672    0.000000
   308  F     s     0.074931    0.542143    0.580055    0.000000
   309  F     s     0.400331    0.556444    0.924794    0.000000
   310  F     s     0.530163    0.092489    0.745192    0.000000
   311  F     s     0.832340    0.425972    0.068164    0.000000
   312  F     s     0.523635    0.438979    0.413242    0.000000
--------------------------------------------------------------------------------

  Final Cartesian lattice vectors (Angstroms) :

       11.934558    0.003526   -0.003598
       -5.994028   10.414756   -0.001126
        0.062745   -0.350571   29.474703


  Final cell parameters and derivatives :

--------------------------------------------------------------------------------
       a           11.934560 Angstrom     dE/de1(xx)     0.001000 eV/strain
       b           12.016468 Angstrom     dE/de2(yy)     0.000540 eV/strain
       c           29.476855 Angstrom     dE/de3(zz)     0.002812 eV/strain
       alpha       90.656815 Degrees      dE/de4(yz)     0.000111 eV/strain
       beta        89.895510 Degrees      dE/de5(xz)    -0.000254 eV/strain
       gamma      119.904883 Degrees      dE/de6(xy)     0.000142 eV/strain
--------------------------------------------------------------------------------

  Primitive cell volume =          3664.186396 Angs**3

  Density of cell =      1.746115 g/cm**3

  Non-primitive cell volume =          3664.186396 Angs**3


  Final internal derivatives :

--------------------------------------------------------------------------------
   No.  Atomic          a             b             c           Radius
        Label          (eV)          (eV)          (eV)        (eV/Angs)
--------------------------------------------------------------------------------
      1 Ge    c       0.000000      0.000000      0.000000      0.000000
      2 Si    c      -0.000183      0.000276      0.000445      0.000000
      3 Si    c       0.000261     -0.000515      0.000670      0.000000
      4 Si    c       0.000131      0.000306      0.000127      0.000000
      5 Si    c       0.000171      0.000115      0.000719      0.000000
      6 Si    c       0.000201     -0.000066      0.000522      0.000000
      7 Si    c       0.000134      0.000223     -0.000130      0.000000
      8 Ge    c       0.000248      0.000085     -0.000536      0.000000
      9 Si    c      -0.000379      0.000087      0.000413      0.000000
     10 Si    c       0.000480     -0.000142      0.000153      0.000000
     11 Si    c      -0.000231     -0.000066     -0.000080      0.000000
     12 Si    c       0.001726      0.000661      0.009498      0.000000
     13 Si    c      -0.000327     -0.001615      0.002044      0.000000
     14 Si    c       0.000043      0.000272      0.000332      0.000000
     15 Si    c       0.000235     -0.000611      0.000227      0.000000
     16 Si    c       0.000442     -0.000212      0.000332      0.000000
     17 Si    c      -0.000192      0.000101      0.000080      0.000000
     18 Si    c       0.000849      0.000376     -0.000267      0.000000
     19 Si    c       0.000465      0.000169      0.000660      0.000000
     20 Si    c       0.001019      0.000410     -0.000432      0.000000
     21 Si    c      -0.000421      0.000055      0.000586      0.000000
     22 Si    c       0.000459     -0.000194      0.000042      0.000000
     23 Si    c       0.000390     -0.000146      0.000712      0.000000
     24 Si    c      -0.000004     -0.000386      0.001297      0.000000
     25 Si    c       0.000130      0.000414      0.000925      0.000000
     26 Si    c      -0.000271     -0.000074      0.000548      0.000000
     27 Si    c       0.000424     -0.000144      0.000741      0.000000
     28 Si    c       0.000074      0.000388      0.000489      0.000000
     29 Si    c       0.000102     -0.000570      0.000728      0.000000
     30 Si    c       0.002636      0.001340     -0.000265      0.000000
     31 Si    c       0.000095     -0.000227      0.000047      0.000000
     32 Si    c       0.000834      0.000036     -0.001206      0.000000
     33 Si    c      -0.000346      0.000496     -0.000826      0.000000
     34 Si    c      -0.000040     -0.000356     -0.000578      0.000000
     35 Si    c      -0.000462     -0.000056      0.000061      0.000000
     36 Si    c      -0.000036      0.000180      0.000106      0.000000
     37 Si    c       0.000146     -0.000001     -0.000118      0.000000
     38 Si    c       0.000073      0.000099      0.000179      0.000000
     39 Si    c       0.000353     -0.000644      0.000147      0.000000
     40 Si    c       0.000038     -0.000160     -0.000071      0.000000
     41 Si    c       0.000718     -0.000582     -0.000228      0.000000
     42 Si    c       0.001020      0.000964     -0.000409      0.000000
     43 Si    c       0.000198      0.000262      0.000735      0.000000
     44 Si    c       0.001155     -0.000279     -0.002634      0.000000
     45 Si    c      -0.000285      0.000067      0.000484      0.000000
     46 Si    c       0.000285      0.000132      0.000374      0.000000
     47 Si    c      -0.000031      0.000402      0.000296      0.000000
     48 Si    c       0.000553      0.000014      0.000564      0.000000
     49 Si    c      -0.000048      0.001024     -0.000706      0.000000
     50 Si    c      -0.000048      0.000477      0.001196      0.000000
     51 Si    c       0.000032     -0.000251      0.000443      0.000000
     52 Si    c       0.000314      0.000162      0.000227      0.000000
     53 Si    c       0.000849      0.000431      0.000062      0.000000
     54 Ge    c      -0.001763      0.000278      0.005155      0.000000
     55 Si    c       0.000059      0.000190      0.000526      0.000000
     56 Si    c      -0.001789     -0.002605     -0.001726      0.000000
     57 Si    c      -0.000213     -0.000139     -0.000584      0.000000
     58 Si    c      -0.000500      0.000067     -0.001694      0.000000
     59 Si    c       0.000268     -0.000136     -0.000134      0.000000
     60 Si    c       0.000763     -0.000372     -0.000628      0.000000
     61 O2    c       0.000147      0.001696     -0.005025      0.000000
     62 O2    c      -0.000023      0.000660      0.000488      0.000000
     63 O2    c      -0.000084     -0.000401      0.000482      0.000000
     64 O2    c       0.000038     -0.000228      0.000059      0.000000
     65 O2    c       0.000648     -0.000192      0.001215      0.000000
     66 O3    c       0.000208      0.000923      0.004690      0.000000
     67 O2    c       0.000263      0.000218      0.000465      0.000000
     68 O2    c      -0.000317      0.000025      0.000303      0.000000
     69 O3    c       0.001314      0.000283      0.000829      0.000000
     70 O2    c       0.000346     -0.000036     -0.000012      0.000000
     71 O2    c       0.000012     -0.000744      0.002028      0.000000
     72 O2    c       0.000372     -0.000160      0.000479      0.000000
     73 O3    c       0.002510     -0.002391      0.007135      0.000000
     74 O2    c       0.000281     -0.000520     -0.000165      0.000000
     75 O2    c      -0.000155      0.000191     -0.000341      0.000000
     76 O2    c       0.000427      0.000059      0.000447      0.000000
     77 O2    c       0.000257     -0.000075      0.000451      0.000000
     78 O2    c       0.000186      0.000088      0.000204      0.000000
     79 O2    c       0.000490     -0.000003      0.000276      0.000000
     80 O2    c      -0.000002      0.000634      0.000310      0.000000
     81 O2    c       0.000153     -0.000356      0.000137      0.000000
     82 O2    c       0.000208     -0.000181      0.000233      0.000000
     83 O2    c       0.000802     -0.000576      0.000240      0.000000
     84 O3    c       0.000401      0.002407      0.002066      0.000000
     85 O2    c       0.000174      0.000298      0.000418      0.000000
     86 O2    c       0.004284     -0.002867     -0.004847      0.000000
     87 O2    c      -0.000208     -0.000218      0.000172      0.000000
     88 O2    c      -0.000014     -0.000148      0.000213      0.000000
     89 O2    c       0.000318      0.000065     -0.000020      0.000000
     90 O2    c       0.000997      0.000035      0.000306      0.000000
     91 O2    c      -0.000013      0.000221      0.002707      0.000000
     92 O2    c      -0.000160     -0.000153      0.000477      0.000000
     93 O2    c       0.000048      0.000356      0.002768      0.000000
     94 O2    c      -0.000730     -0.000373     -0.003249      0.000000
     95 O3    c       0.002788     -0.000594      0.003299      0.000000
     96 O2    c      -0.000015     -0.000103      0.000415      0.000000
     97 O2    c      -0.000003      0.001330      0.000098      0.000000
     98 O2    c      -0.000130      0.000052      0.001211      0.000000
     99 O2    c      -0.000013     -0.000340      0.000450      0.000000
    100 O2    c       0.000332      0.000111      0.000549      0.000000
    101 O2    c       0.000425      0.001405     -0.000099      0.000000
    102 O3    c      -0.002035      0.000022      0.002253      0.000000
    103 O2    c       0.000114      0.000099     -0.000446      0.000000
    104 O2    c      -0.001203     -0.000813     -0.001548      0.000000
    105 O2    c      -0.000266     -0.000348     -0.000184      0.000000
    106 O2    c      -0.000379      0.000722     -0.000513      0.000000
    107 O2    c       0.000208     -0.000134     -0.000345      0.000000
    108 O2    c       0.000166     -0.002060     -0.001410      0.000000
    109 O2    c       0.000033      0.000222      0.000360      0.000000
    110 O2    c      -0.000132      0.000296      0.000201      0.000000
    111 O3    c       0.000850     -0.000575     -0.000475      0.000000
    112 O2    c       0.000341     -0.000573     -0.000049      0.000000
    113 O3    c      -0.002500     -0.000942      0.002979      0.000000
    114 O2    c      -0.000361      0.000132      0.000048      0.000000
    115 O2    c       0.000107     -0.000376      0.000354      0.000000
    116 O2    c      -0.000164      0.000261     -0.000095      0.000000
    117 O2    c       0.000437     -0.000656      0.000143      0.000000
    118 O2    c       0.000519     -0.000398      0.000059      0.000000
    119 O2    c       0.000452     -0.000160     -0.000089      0.000000
    120 O2    c       0.000827      0.000155      0.000489      0.000000
    121 O2    c       0.000436      0.000248      0.000494      0.000000
    122 O2    c       0.001312      0.001439     -0.001263      0.000000
    123 O2    c      -0.000419      0.000102      0.000414      0.000000
    124 O2    c       0.000338      0.000299      0.000091      0.000000
    125 O2    c       0.000254      0.000213      0.000264      0.000000
    126 O2    c       0.000374      0.000031      0.000186      0.000000
    127 O3    c       0.003382     -0.001230     -0.002137      0.000000
    128 O2    c      -0.000219      0.000304      0.000476      0.000000
    129 O2    c       0.000231     -0.000542      0.000305      0.000000
    130 O2    c       0.000361      0.000021      0.000716      0.000000
    131 O2    c       0.000309      0.000092      0.000509      0.000000
    132 O2    c      -0.000007      0.000110      0.000819      0.000000
    133 O2    c       0.000202      0.000424     -0.000237      0.000000
    134 O3    c       0.000015     -0.000202      0.000963      0.000000
    135 O2    c      -0.000429     -0.000040      0.000006      0.000000
    136 O2    c      -0.000021     -0.000016     -0.000438      0.000000
    137 O2    c       0.000056      0.000040     -0.000168      0.000000
    138 O2    c       0.000604      0.000713      0.000671      0.000000
    139 O3    c      -0.000494     -0.000441     -0.000459      0.000000
    140 O2    c      -0.000087      0.000325      0.000437      0.000000
    141 O2    c      -0.000175     -0.000381      0.000338      0.000000
    142 O2    c      -0.000022      0.000378      0.000285      0.000000
    143 O2    c       0.000351      0.000090      0.000048      0.000000
    144 O2    c       0.000311      0.000171      0.000529      0.000000
    145 O2    c       0.000110      0.000325      0.000104      0.000000
    146 O3    c      -0.000013     -0.000578      0.001085      0.000000
    147 O2    c       0.000217     -0.000373      0.000130      0.000000
    148 O2    c       0.000577     -0.000405     -0.000211      0.000000
    149 O2    c      -0.000131     -0.000069      0.000070      0.000000
    150 O2    c       0.000072     -0.000524      0.001657      0.000000
    151 O2    c      -0.000055     -0.000144     -0.000331      0.000000
    152 O2    c       0.000075      0.000285      0.000348      0.000000
    153 O2    c       0.000641     -0.000340     -0.000242      0.000000
    154 O2    c       0.000035      0.000050      0.000336      0.000000
    155 O2    c       0.000467     -0.000387      0.000179      0.000000
    156 O2    c       0.000485     -0.000336     -0.002210      0.000000
    157 O2    c       0.000214      0.000022     -0.000071      0.000000
    158 O2    c       0.000735      0.001528      0.006344      0.000000
    159 O2    c      -0.000400      0.000103     -0.000010      0.000000
    160 O2    c       0.000455     -0.000180     -0.000724      0.000000
    161 O2    c      -0.000293      0.000069      0.000142      0.000000
    162 O2    c       0.000286     -0.000105     -0.000633      0.000000
    163 O2    c       0.000530      0.000043      0.000124      0.000000
    164 O2    c       0.000063      0.000137     -0.000453      0.000000
    165 O2    c      -0.000137     -0.000472     -0.000226      0.000000
    166 O2    c       0.000383     -0.000318     -0.000301      0.000000
    167 O2    c      -0.000123      0.000290     -0.000148      0.000000
    168 O2    c       0.001291     -0.000206      0.000268      0.000000
    169 O2    c       0.000232      0.000141      0.000740      0.000000
    170 O2    c       0.001831      0.000473     -0.001334      0.000000
    171 O2    c      -0.000102     -0.000318      0.000720      0.000000
    172 O2    c       0.000454      0.000172      0.000028      0.000000
    173 O2    c       0.000464     -0.000131      0.000452      0.000000
    174 O2    c       0.000130      0.000178      0.000355      0.000000
    175 O2    c       0.000246      0.000150     -0.000171      0.000000
    176 O2    c       0.000361     -0.000485     -0.000046      0.000000
    177 O2    c       0.000381     -0.000528     -0.001462      0.000000
    178 O2    c      -0.000269      0.000201      0.000187      0.000000
    179 O2    c       0.001083      0.000813      0.001940      0.000000
    180 O2    c       0.000613     -0.000113      0.000011      0.000000
    181 F     c       0.000043      0.000201      0.000257      0.000000
    182 F     c       0.000067     -0.000066      0.000134      0.000000
    183 F     c       0.000066      0.000358      0.000400      0.000000
    184 F     c      -0.000106     -0.000293      0.000100      0.000000
    185 F     c      -0.000140      0.000539     -0.003007      0.000000
    186 F     c       0.000094     -0.000010      0.000244      0.000000
    187 O2    s      -0.000849      0.001231     -0.006132      0.000000
    188 O2    s       0.000284      0.000536      0.000774      0.000000
    189 O2    s      -0.000058     -0.000400      0.000158      0.000000
    190 O2    s       0.000184     -0.000190     -0.000335      0.000000
    191 O2    s       0.000857     -0.000366      0.000127      0.000000
    192 O3    s      -0.000690      0.000811      0.005199      0.000000
    193 O2    s       0.000219      0.000369      0.000619      0.000000
    194 O2    s       0.000065     -0.000513      0.000642      0.000000
    195 O3    s       0.001615     -0.000134     -0.000690      0.000000
    196 O2    s      -0.000013      0.000457     -0.000794      0.000000
    197 O2    s       0.000914     -0.000042      0.003783      0.000000
    198 O2    s       0.000103     -0.000137     -0.000293      0.000000
    199 O3    s       0.002839     -0.000721      0.002511      0.000000
    200 O2    s      -0.000095     -0.000281     -0.000385      0.000000
    201 O2    s      -0.000252      0.000312     -0.000128      0.000000
    202 O2    s       0.000676     -0.000120      0.000039      0.000000
    203 O2    s       0.000162      0.000258      0.000499      0.000000
    204 O2    s       0.000743     -0.000360      0.000233      0.000000
    205 O2    s       0.000690      0.000370     -0.000154      0.000000
    206 O2    s      -0.000289      0.000897     -0.000395      0.000000
    207 O2    s      -0.000050     -0.000240     -0.000786      0.000000
    208 O2    s       0.000338     -0.000265     -0.000355      0.000000
    209 O2    s       0.000756     -0.000273     -0.000708      0.000000
    210 O3    s      -0.000795      0.001928      0.002574      0.000000
    211 O2    s       0.000248      0.000217      0.000872      0.000000
    212 O2    s       0.002930     -0.002945     -0.007342      0.000000
    213 O2    s      -0.000105     -0.000641      0.000710      0.000000
    214 O2    s      -0.000287     -0.000188      0.000124      0.000000
    215 O2    s       0.000456      0.000085      0.000662      0.000000
    216 O2    s       0.001392     -0.000823      0.001699      0.000000
    217 O2    s       0.000701     -0.000346      0.003450      0.000000
    218 O2    s      -0.000094     -0.000177      0.000633      0.000000
    219 O2    s       0.000134      0.000787      0.000599      0.000000
    220 O2    s      -0.000296     -0.000707     -0.002731      0.000000
    221 O3    s      -0.000056     -0.000678      0.004982      0.000000
    222 O2    s       0.000213     -0.000184      0.000697      0.000000
    223 O2    s       0.000623      0.002106      0.000708      0.000000
    224 O2    s       0.000307     -0.000109      0.001121      0.000000
    225 O2    s      -0.000168     -0.000238      0.000852      0.000000
    226 O2    s       0.000416      0.000201      0.000571      0.000000
    227 O2    s       0.001466      0.000763     -0.000108      0.000000
    228 O3    s      -0.001316      0.000673      0.003893      0.000000
    229 O2    s       0.000042      0.000076     -0.001074      0.000000
    230 O2    s      -0.001627     -0.001070     -0.004107      0.000000
    231 O2    s       0.000053     -0.000561     -0.000987      0.000000
    232 O2    s      -0.000484      0.000378     -0.002211      0.000000
    233 O2    s       0.000142     -0.000171     -0.000197      0.000000
    234 O2    s       0.001571     -0.002177     -0.001754      0.000000
    235 O2    s      -0.000072      0.000504      0.000282      0.000000
    236 O2    s       0.000519     -0.000175      0.000380      0.000000
    237 O3    s       0.000882     -0.000271     -0.000031      0.000000
    238 O2    s      -0.000154      0.000046      0.000123      0.000000
    239 O3    s       0.001917      0.000233      0.000859      0.000000
    240 O2    s       0.000003     -0.000345      0.000107      0.000000
    241 O2    s      -0.000619      0.000232     -0.001574      0.000000
    242 O2    s      -0.000249      0.000377     -0.000786      0.000000
    243 O2    s      -0.000207     -0.000163     -0.001170      0.000000
    244 O2    s       0.000152     -0.000168     -0.000553      0.000000
    245 O2    s       0.000154     -0.000055     -0.000743      0.000000
    246 O2    s       0.000866      0.000072     -0.000009      0.000000
    247 O2    s       0.000195      0.000379      0.001114      0.000000
    248 O2    s       0.001027      0.000731     -0.001694      0.000000
    249 O2    s      -0.000015     -0.000628      0.001003      0.000000
    250 O2    s       0.000334      0.000248      0.000933      0.000000
    251 O2    s       0.000327     -0.000051      0.000121      0.000000
    252 O2    s       0.000635      0.000116      0.001428      0.000000
    253 O3    s       0.000848      0.000498     -0.001771      0.000000
    254 O2    s       0.000234      0.000091      0.001020      0.000000
    255 O2    s      -0.000167     -0.000218      0.001046      0.000000
    256 O2    s       0.000394      0.000112      0.000753      0.000000
    257 O2    s       0.000726      0.000053      0.000851      0.000000
    258 O2    s       0.000173      0.000365      0.001674      0.000000
    259 O2    s       0.000154      0.000353     -0.000910      0.000000
    260 O3    s       0.001086     -0.001037     -0.002569      0.000000
    261 O2    s       0.000234     -0.000565     -0.000872      0.000000
    262 O2    s       0.000150      0.000026     -0.000826      0.000000
    263 O2    s       0.000124     -0.000406     -0.000685      0.000000
    264 O2    s       0.000959     -0.000338     -0.000257      0.000000
    265 O3    s      -0.000607     -0.000242     -0.001962      0.000000
    266 O2    s       0.000141      0.000107      0.000764      0.000000
    267 O2    s      -0.000062     -0.000427      0.001021      0.000000
    268 O2    s       0.000808     -0.000032      0.000885      0.000000
    269 O2    s       0.000559     -0.000044      0.001297      0.000000
    270 O2    s       0.000410      0.000077      0.001306      0.000000
    271 O2    s      -0.000067      0.000685     -0.000937      0.000000
    272 O3    s       0.000921     -0.000409     -0.002094      0.000000
    273 O2    s       0.000031     -0.000243     -0.000455      0.000000
    274 O2    s      -0.000028      0.000442     -0.000991      0.000000
    275 O2    s       0.000291     -0.000230     -0.000761      0.000000
    276 O2    s       0.000252     -0.000141      0.002567      0.000000
    277 O2    s       0.001275     -0.000761      0.000559      0.000000
    278 O2    s      -0.000228      0.000767      0.000298      0.000000
    279 O2    s       0.000209      0.000111      0.000131      0.000000
    280 O2    s       0.000264      0.000141      0.000926      0.000000
    281 O2    s      -0.000015      0.000073      0.000491      0.000000
    282 O2    s       0.000970      0.000120     -0.000751      0.000000
    283 O2    s       0.000090     -0.000060      0.000122      0.000000
    284 O2    s       0.001386      0.001269      0.005241      0.000000
    285 O2    s       0.000044     -0.000509     -0.000185      0.000000
    286 O2    s       0.000773     -0.000155     -0.000383      0.000000
    287 O2    s       0.000286     -0.000482      0.000038      0.000000
    288 O2    s       0.000341     -0.000083      0.000082      0.000000
    289 O2    s       0.000686      0.000214     -0.001069      0.000000
    290 O2    s      -0.000003      0.000423     -0.001160      0.000000
    291 O2    s      -0.000074     -0.000683     -0.000679      0.000000
    292 O2    s       0.000036     -0.000001     -0.000637      0.000000
    293 O2    s       0.000420     -0.000517     -0.000872      0.000000
    294 O2    s       0.000765     -0.000237     -0.000454      0.000000
    295 O2    s       0.000072      0.000619      0.001388      0.000000
    296 O2    s       0.002748     -0.001360     -0.001793      0.000000
    297 O2    s      -0.000242     -0.000291      0.000945      0.000000
    298 O2    s       0.000325      0.000299      0.000002      0.000000
    299 O2    s       0.000177      0.000219      0.000775      0.000000
    300 O2    s       0.000257      0.000029      0.001546      0.000000
    301 O2    s       0.000391      0.000154      0.000231      0.000000
    302 O2    s      -0.000153     -0.000190     -0.000165      0.000000
    303 O2    s       0.000022     -0.000037     -0.000835      0.000000
    304 O2    s       0.000172     -0.000595      0.000587      0.000000
    305 O2    s       0.001613      0.000652      0.002337      0.000000
    306 O2    s       0.000381      0.000280      0.000204      0.000000
    307 F     s       0.000062      0.000246      0.000279      0.000000
    308 F     s       0.000079     -0.000128      0.000152      0.000000
    309 F     s       0.000507     -0.000003      0.000989      0.000000
    310 F     s      -0.000073     -0.000320     -0.000009      0.000000
    311 F     s      -0.001607      0.000455     -0.003275      0.000000
    312 F     s       0.000144     -0.000051      0.000363      0.000000
--------------------------------------------------------------------------------
  Maximum abs         0.004284      0.002945      0.009498      0.000000
--------------------------------------------------------------------------------


  Time to end of optimisation =      53.0091 seconds


  Peak dynamic memory used =      19.13 MB 


  Timing analysis for GULP :

--------------------------------------------------------------------------------
  Task / Subroutine                                          Time (Seconds)
--------------------------------------------------------------------------------
  Calculation of reciprocal space energy and derivatives          1.3737
  Calculation of real space energy and derivatives               46.2532
  Calculation of three-body energy and derivatives                4.5479
  Calculation of matrix inversion                                 0.7437
--------------------------------------------------------------------------------
  Total CPU time                                                 53.0092
--------------------------------------------------------------------------------


  Dump file written as out.res                                                 
  CIF file written as out.cif                                                 


  Job Finished at 01:07.37 27th October    2016                               

