********************************************************************************
*                       GENERAL UTILITY LATTICE PROGRAM                        *
*                                 Julian Gale                                  *
*                      Nanochemistry Research Institute                        *
*                           Department of Chemistry                            *
*                    Curtin University, Western Australia                      *
********************************************************************************
* Version = 4.2.0 * Last modified =  20th January 2014                         *
********************************************************************************
*  optimise     - perform optimisation run                                     *
*  conp         - constant pressure calculation                                *
*  qok          - running with non charge neutral cell is OK                   *
********************************************************************************

  Job Started  at 11:34.15 28th October    2016                               

  Number of CPUs =     1


  Total number of configurations input =   1

********************************************************************************
*  Input for Configuration =   1                                               *
********************************************************************************

  Formula = Ge3Si57O120F6                                               

  Number of irreducible atoms/shells =     312


  Total number atoms/shells =     312

  Dimensionality = 3               :  Bulk   


  Charge on solid   =  -6.000000 =>neutralising background added


  Cartesian lattice vectors (Angstroms) :

       11.958644    0.000000    0.000000
       -6.064310   10.382563    0.000000
        0.120531   -0.032824   29.521282

  Cell parameters (Angstroms/Degrees):

  a =      11.9586    alpha =  90.1730
  b =      12.0239    beta  =  89.7661
  c =      29.5215    gamma = 120.2886

  Initial cell volume =        3665.403031 Angs**3

  Temperature of configuration =  0.000     K 

  Pressure of configuration =         0.000 GPa 

  Fractional coordinates of asymmetric unit :

--------------------------------------------------------------------------------
   No.  Atomic       x           y          z         Charge      Occupancy
        Label      (Frac)      (Frac)     (Frac)        (e)         (Frac)  
--------------------------------------------------------------------------------
      1 Ge    c    0.699600    0.375700    0.033890     4.00000    1.000000    
      2 Si    c    0.623625 *  0.322426 *  0.368033 *   4.00000    1.000000    
      3 Si    c    0.675591 *  0.296254 *  0.698538 *   4.00000    1.000000    
      4 Si    c    0.297876 *  0.620989 *  0.533641 *   4.00000    1.000000    
      5 Si    c    0.377106 *  0.678367 *  0.865535 *   4.00000    1.000000    
      6 Si    c    0.323448 *  0.703351 *  0.202979 *   4.00000    1.000000    
      7 Si    c    0.380470 *  0.700178 *  0.302529 *   4.00000    1.000000    
      8 Si    c    0.324411 *  0.618609 *  0.965622 *   4.00000    1.000000    
      9 Si    c    0.296440 *  0.675880 *  0.633996 *   4.00000    1.000000    
     10 Si    c    0.621501 *  0.299532 *  0.798809 *   4.00000    1.000000    
     11 Si    c    0.676872 *  0.378393 *  0.468429 *   4.00000    1.000000    
     12 Ge    c    0.705120 *  0.326857 *  0.132561 *   4.00000    1.000000    
     13 Si    c    0.532196 *  0.415523 *  0.963792 *   4.00000    1.000000    
     14 Si    c    0.587404 *  0.111203 *  0.304257 *   4.00000    1.000000    
     15 Si    c    0.886973 *  0.469094 *  0.634015 *   4.00000    1.000000    
     16 Si    c    0.469333 *  0.581157 *  0.468663 *   4.00000    1.000000    
     17 Si    c    0.415014 *  0.888896 *  0.801052 *   4.00000    1.000000    
     18 Si    c    0.116133 *  0.536420 *  0.135361 *   4.00000    1.000000    
     19 Si    c    0.418084 *  0.527764 *  0.367098 *   4.00000    1.000000    
     20 Si    c    0.116019 *  0.583228 *  0.032761 *   4.00000    1.000000    
     21 Si    c    0.466761 *  0.886103 *  0.699402 *   4.00000    1.000000    
     22 Si    c    0.583116 *  0.473876 *  0.862085 *   4.00000    1.000000    
     23 Si    c    0.887840 *  0.416692 *  0.532660 *   4.00000    1.000000    
     24 Si    c    0.535808 *  0.118365 *  0.202532 *   4.00000    1.000000    
     25 Si    c    0.300970 *  0.401834 *  0.848909 *   4.00000    1.000000    
     26 Si    c    0.601353 *  0.905471 *  0.187290 *   4.00000    1.000000    
     27 Si    c    0.097117 *  0.697785 *  0.518675 *   4.00000    1.000000    
     28 Si    c    0.699817 *  0.599479 *  0.353324 *   4.00000    1.000000    
     29 Si    c    0.396165 *  0.094643 *  0.684764 *   4.00000    1.000000    
     30 Si    c    0.900217 *  0.293638 *  0.019521 *   4.00000    1.000000    
     31 Si    c    0.398072 *  0.301502 *  0.482773 *   4.00000    1.000000    
     32 Si    c    0.899663 *  0.606805 *  0.149165 *   4.00000    1.000000    
     33 Si    c    0.697154 *  0.099187 *  0.814299 *   4.00000    1.000000    
     34 Si    c    0.603546 *  0.695451 *  0.979610 *   4.00000    1.000000    
     35 Si    c    0.095277 *  0.397331 *  0.648442 *   4.00000    1.000000    
     36 Si    c    0.305526 *  0.901319 *  0.319343 *   4.00000    1.000000    
     37 Si    c    0.252498 *  0.340358 *  0.949092 *   4.00000    1.000000    
     38 Si    c    0.662990 *  0.909917 *  0.287226 *   4.00000    1.000000    
     39 Si    c    0.088006 *  0.748127 *  0.619179 *   4.00000    1.000000    
     40 Si    c    0.749049 *  0.658252 *  0.453755 *   4.00000    1.000000    
     41 Si    c    0.339014 *  0.090091 *  0.785309 *   4.00000    1.000000    
     42 Si    c    0.913044 *  0.251001 *  0.121951 *   4.00000    1.000000    
     43 Si    c    0.341503 *  0.250041 *  0.382319 *   4.00000    1.000000    
     44 Si    c    0.911413 *  0.662803 *  0.046577 *   4.00000    1.000000    
     45 Si    c    0.746931 *  0.088506 *  0.713871 *   4.00000    1.000000    
     46 Si    c    0.659345 *  0.750984 *  0.879062 *   4.00000    1.000000    
     47 Si    c    0.088660 *  0.339296 *  0.547918 *   4.00000    1.000000    
     48 Si    c    0.256552 *  0.912701 *  0.219299 *   4.00000    1.000000    
     49 Si    c    0.974192 *  0.120854 *  0.965465 *   4.00000    1.000000    
     50 Si    c    0.880162 *  0.847612 *  0.302911 *   4.00000    1.000000    
     51 Si    c    0.148374 *  0.027009 *  0.634031 *   4.00000    1.000000    
     52 Si    c    0.029079 *  0.877387 *  0.468805 *   4.00000    1.000000    
     53 Si    c    0.121212 *  0.152791 *  0.799345 *   4.00000    1.000000    
     54 Ge    c    0.852997 *  0.971891 *  0.134901 *   4.00000    1.000000    
     55 Si    c    0.123784 *  0.969520 *  0.368179 *   4.00000    1.000000    
     56 Si    c    0.853068 *  0.878676 *  0.030461 *   4.00000    1.000000    
     57 Si    c    0.027042 *  0.149522 *  0.698711 *   4.00000    1.000000    
     58 Si    c    0.877007 *  0.031799 *  0.864554 *   4.00000    1.000000    
     59 Si    c    0.149478 *  0.121108 *  0.533477 *   4.00000    1.000000    
     60 Si    c    0.978997 *  0.854599 *  0.202300 *   4.00000    1.000000    
     61 O2    c    0.932174 *  0.998136 *  0.996959 *   0.87073    1.000000    
     62 O2    c    0.002844 *  0.926798 *  0.335177 *   0.87073    1.000000    
     63 O2    c    0.067928 *  0.068600 *  0.666427 *   0.87073    1.000000    
     64 O2    c    0.069681 *  0.998785 *  0.501245 *   0.87073    1.000000    
     65 O2    c    0.999488 *  0.073858 *  0.832198 *   0.87073    1.000000    
     66 O3    c    0.945100 *  0.935853 *  0.169010 *   1.33043    1.000000    
     67 O2    c    0.342207 *  0.576628 *  0.334670 *   0.87073    1.000000    
     68 O2    c    0.418545 *  0.760623 *  0.667202 *   0.87073    1.000000    
     69 O2    c    0.239448 *  0.655338 *  0.999435 *   0.87073    1.000000    
     70 O2    c    0.660363 *  0.425560 *  0.829797 *   0.87073    1.000000    
     71 O3    c    0.579706 *  0.240403 *  0.172095 *   1.33043    1.000000    
     72 O2    c    0.761515 *  0.339780 *  0.500652 *   0.87073    1.000000    
     73 O3    c    0.577615 *  0.337477 *  0.993771 *   1.33043    1.000000    
     74 O2    c    0.760056 *  0.419206 *  0.665965 *   0.87073    1.000000    
     75 O2    c    0.663678 *  0.237078 *  0.336550 *   0.87073    1.000000    
     76 O2    c    0.421315 *  0.658629 *  0.500901 *   0.87073    1.000000    
     77 O2    c    0.238072 *  0.583258 *  0.168805 *   0.87073    1.000000    
     78 O2    c    0.338686 *  0.764220 *  0.833857 *   0.87073    1.000000    
     79 O2    c    0.128921 *  0.211203 *  0.969269 *   0.87073    1.000000    
     80 O2    c    0.788881 *  0.910267 *  0.307767 *   0.87073    1.000000    
     81 O2    c    0.085821 *  0.873098 *  0.639105 *   0.87073    1.000000    
     82 O2    c    0.874527 *  0.784917 *  0.474210 *   0.87073    1.000000    
     83 O2    c    0.212844 *  0.090953 *  0.805376 *   0.87073    1.000000    
     84 O3    c    0.928931 *  0.136239 *  0.141480 *   1.33043    1.000000    
     85 O2    c    0.215179 *  0.123350 *  0.362215 *   0.87073    1.000000    
     86 O2    c    0.922067 *  0.792929 *  0.026322 *   0.87073    1.000000    
     87 O2    c    0.872390 *  0.086645 *  0.693656 *   0.87073    1.000000    
     88 O2    c    0.785528 *  0.877896 *  0.859061 *   0.87073    1.000000    
     89 O2    c    0.087256 *  0.212477 *  0.528054 *   0.87073    1.000000    
     90 O2    c    0.133153 *  0.916606 *  0.199304 *   0.87073    1.000000    
     91 O2    c    0.931424 *  0.861432 *  0.252249 *   0.87073    1.000000    
     92 O2    c    0.135747 *  0.067912 *  0.583835 *   0.87073    1.000000    
     93 O2    c    0.928808 *  0.071105 *  0.915079 *   0.87073    1.000000    
     94 O2    c    0.067303 *  0.136437 *  0.748999 *   0.87073    1.000000    
     95 O3    c    0.864861 *  0.931259 *  0.080293 *   1.33043    1.000000    
     96 O2    c    0.068402 *  0.931126 *  0.418452 *   0.87073    1.000000    
     97 O2    c    0.908545 *  0.203038 *  0.980750 *   0.87073    1.000000    
     98 O2    c    0.798323 *  0.696248 *  0.314936 *   0.87073    1.000000    
     99 O2    c    0.300140 *  0.096342 *  0.646375 *   0.87073    1.000000    
    100 O2    c    0.099453 *  0.796447 *  0.480636 *   0.87073    1.000000    
    101 O2    c    0.202887 *  0.305038 *  0.810479 *   0.87073    1.000000    
    102 O3    c    0.691423 *  0.899601 *  0.147690 *   1.33043    1.000000    
    103 O2    c    0.206908 *  0.900177 *  0.357685 *   0.87073    1.000000    
    104 O2    c    0.700973 *  0.792409 *  0.018134 *   0.87073    1.000000    
    105 O2    c    0.096994 *  0.300812 *  0.686522 *   0.87073    1.000000    
    106 O2    c    0.795573 *  0.101504 *  0.852625 *   0.87073    1.000000    
    107 O2    c    0.301511 *  0.203467 *  0.521273 *   0.87073    1.000000    
    108 O2    c    0.907561 *  0.705597 *  0.187708 *   0.87073    1.000000    
    109 O2    c    0.320433 *  0.641886 *  0.252523 *   0.87073    1.000000    
    110 O2    c    0.355517 *  0.677853 *  0.583853 *   0.87073    1.000000    
    111 O2    c    0.321235 *  0.677915 *  0.916266 *   0.87073    1.000000    
    112 O2    c    0.678046 *  0.355124 *  0.748531 *   0.87073    1.000000    
    113 O1    c    0.615986 *  0.308169 *  0.083440 *   1.73396    1.000000    
    114 O2    c    0.678986 *  0.322365 *  0.418333 *   0.87073    1.000000    
    115 O2    c    0.374684 *  0.331035 *  0.966644 *   0.87073    1.000000    
    116 O2    c    0.673460 *  0.041202 *  0.306623 *   0.87073    1.000000    
    117 O2    c    0.955297 *  0.624947 *  0.637368 *   0.87073    1.000000    
    118 O2    c    0.626163 *  0.668313 *  0.471641 *   0.87073    1.000000    
    119 O2    c    0.328203 *  0.958157 *  0.804036 *   0.87073    1.000000    
    120 O2    c    0.044487 *  0.381778 *  0.136077 *   0.87073    1.000000    
    121 O2    c    0.330984 *  0.371524 *  0.363946 *   0.87073    1.000000    
    122 O2    c    0.043595 *  0.665997 *  0.031216 *   0.87073    1.000000    
    123 O2    c    0.623569 *  0.955396 *  0.696344 *   0.87073    1.000000    
    124 O2    c    0.669478 *  0.630162 *  0.859578 *   0.87073    1.000000    
    125 O2    c    0.956484 *  0.329592 *  0.529470 *   0.87073    1.000000    
    126 O2    c    0.378096 *  0.044196 *  0.201124 *   0.87073    1.000000    
    127 O3    c    0.768355 *  0.290104 *  0.009722 *   1.33043    1.000000    
    128 O2    c    0.699067 *  0.465549 *  0.345613 *   0.87073    1.000000    
    129 O2    c    0.531428 *  0.227565 *  0.676672 *   0.87073    1.000000    
    130 O2    c    0.230912 *  0.696691 *  0.511315 *   0.87073    1.000000    
    131 O2    c    0.301140 *  0.535844 *  0.842517 *   0.87073    1.000000    
    132 O2    c    0.466218 *  0.771078 *  0.180176 *   0.87073    1.000000    
    133 O2    c    0.306431 *  0.767981 *  0.326077 *   0.87073    1.000000    
    134 O2    c    0.467841 *  0.692886 *  0.988273 *   0.87073    1.000000    
    135 O2    c    0.228776 *  0.532514 *  0.656060 *   0.87073    1.000000    
    136 O2    c    0.696769 *  0.232716 *  0.821727 *   0.87073    1.000000    
    137 O2    c    0.532723 *  0.302964 *  0.490637 *   0.87073    1.000000    
    138 O3    c    0.767321 *  0.478852 *  0.158924 *   1.33043    1.000000    
    139 O3    c    0.787233 *  0.543249 *  0.025727 *   1.33043    1.000000    
    140 O2    c    0.467080 *  0.248719 *  0.362795 *   0.87073    1.000000    
    141 O2    c    0.748902 *  0.213974 *  0.693670 *   0.87073    1.000000    
    142 O2    c    0.215836 *  0.465049 *  0.528659 *   0.87073    1.000000    
    143 O2    c    0.533660 *  0.752845 *  0.860454 *   0.87073    1.000000    
    144 O2    c    0.248274 *  0.783584 *  0.199006 *   0.87073    1.000000    
    145 O2    c    0.537434 *  0.781441 *  0.306017 *   0.87073    1.000000    
    146 O2    c    0.246823 *  0.462463 *  0.969801 *   0.87073    1.000000    
    147 O2    c    0.214556 *  0.749768 *  0.638778 *   0.87073    1.000000    
    148 O2    c    0.464907 *  0.217225 *  0.804455 *   0.87073    1.000000    
    149 O2    c    0.750537 *  0.534095 *  0.473517 *   0.87073    1.000000    
    150 O3    c    0.786654 *  0.241500 *  0.143198 *   1.33043    1.000000    
    151 O2    c    0.230658 *  0.325010 *  0.894930 *   0.87073    1.000000    
    152 O2    c    0.681489 *  0.911361 *  0.232686 *   0.87073    1.000000    
    153 O2    c    0.091357 *  0.767265 *  0.564970 *   0.87073    1.000000    
    154 O2    c    0.770122 *  0.674815 *  0.399542 *   0.87073    1.000000    
    155 O2    c    0.321425 *  0.090838 *  0.731100 *   0.87073    1.000000    
    156 O2    c    0.902174 *  0.228365 *  0.067184 *   0.87073    1.000000    
    157 O2    c    0.323271 *  0.230703 *  0.436541 *   0.87073    1.000000    
    158 O2    c    0.903141 *  0.674495 *  0.101142 *   0.87073    1.000000    
    159 O2    c    0.767575 *  0.093707 *  0.768080 *   0.87073    1.000000    
    160 O2    c    0.677293 *  0.767644 *  0.933348 *   0.87073    1.000000    
    161 O2    c    0.090366 *  0.322612 *  0.602138 *   0.87073    1.000000    
    162 O2    c    0.235252 *  0.907146 *  0.273493 *   0.87073    1.000000    
    163 O2    c    0.590036 *  0.556767 *  0.987609 *   0.87073    1.000000    
    164 O2    c    0.446221 *  0.025823 *  0.327812 *   0.87073    1.000000    
    165 O2    c    0.969909 *  0.411537 *  0.657322 *   0.87073    1.000000    
    166 O2    c    0.411328 *  0.440107 *  0.491613 *   0.87073    1.000000    
    167 O2    c    0.557232 *  0.973824 *  0.823609 *   0.87073    1.000000    
    168 O2    c    0.022673 *  0.586110 *  0.154226 *   0.87073    1.000000    
    169 O2    c    0.560349 *  0.585425 *  0.344362 *   0.87073    1.000000    
    170 O2    c    0.021810 *  0.438926 *  0.014873 *   0.87073    1.000000    
    171 O2    c    0.409284 *  0.969127 *  0.676348 *   0.87073    1.000000    
    172 O2    c    0.441275 *  0.418006 *  0.839461 *   0.87073    1.000000    
    173 O2    c    0.971981 *  0.557905 *  0.509626 *   0.87073    1.000000    
    174 O2    c    0.590171 *  0.031658 *  0.178956 *   0.87073    1.000000    
    175 O2    c    0.588189 *  0.164555 *  0.254006 *   0.87073    1.000000    
    176 O2    c    0.834100 *  0.416093 *  0.583348 *   0.87073    1.000000    
    177 O2    c    0.583598 *  0.420620 *  0.912286 *   0.87073    1.000000    
    178 O2    c    0.413776 *  0.834639 *  0.750368 *   0.87073    1.000000    
    179 O2    c    0.165782 *  0.586356 *  0.084095 *   0.87073    1.000000    
    180 O2    c    0.416833 *  0.580416 *  0.417834 *   0.87073    1.000000    
    181 F     c    0.453272 *  0.899011 *  0.252766 *   0.56000    1.000000    
    182 F     c    0.096054 *  0.547623 *  0.583647 *   0.56000    1.000000    
    183 F     c    0.448991 *  0.550205 *  0.914848 *   0.56000    1.000000    
    184 F     c    0.546991 *  0.097050 *  0.749773 *   0.56000    1.000000    
    185 F     c    0.855347 *  0.426596 *  0.085883 *   0.56000    1.000000    
    186 F     c    0.548622 *  0.450386 *  0.418027 *   0.56000    1.000000    
    187 O2    s    0.928114 *  0.998720 *  0.997120 *  -2.87073    1.000000    
    188 O2    s    0.002626 *  0.922705 *  0.335256 *  -2.87073    1.000000    
    189 O2    s    0.072341 *  0.072987 *  0.666413 *  -2.87073    1.000000    
    190 O2    s    0.074069 *  0.998908 *  0.501230 *  -2.87073    1.000000    
    191 O2    s    0.999368 *  0.077991 *  0.832156 *  -2.87073    1.000000    
    192 O3    s    0.940645 *  0.930175 *  0.169612 *  -3.33043    1.000000    
    193 O2    s    0.353933 *  0.584272 *  0.334696 *  -2.87073    1.000000    
    194 O2    s    0.410987 *  0.764870 *  0.667108 *  -2.87073    1.000000    
    195 O2    s    0.234777 *  0.643997 *  0.999602 *  -2.87073    1.000000    
    196 O2    s    0.648415 *  0.417597 *  0.829934 *  -2.87073    1.000000    
    197 O3    s    0.583971 *  0.233445 *  0.172527 *  -3.33043    1.000000    
    198 O2    s    0.765854 *  0.351729 *  0.500630 *  -2.87073    1.000000    
    199 O3    s    0.581827 *  0.348575 *  0.993573 *  -3.33043    1.000000    
    200 O2    s    0.764436 *  0.411614 *  0.666042 *  -2.87073    1.000000    
    201 O2    s    0.651765 *  0.232971 *  0.336492 *  -2.87073    1.000000    
    202 O2    s    0.413574 *  0.646788 *  0.500954 *  -2.87073    1.000000    
    203 O2    s    0.233657 *  0.590333 *  0.168686 *  -2.87073    1.000000    
    204 O2    s    0.350407 *  0.768180 *  0.833758 *  -2.87073    1.000000    
    205 O2    s    0.124961 *  0.214780 *  0.966803 *  -2.87073    1.000000    
    206 O2    s    0.785585 *  0.903580 *  0.305157 *  -2.87073    1.000000    
    207 O2    s    0.092659 *  0.876514 *  0.636546 *  -2.87073    1.000000    
    208 O2    s    0.878007 *  0.781648 *  0.471546 *  -2.87073    1.000000    
    209 O2    s    0.216163 *  0.097413 *  0.802694 *  -2.87073    1.000000    
    210 O3    s    0.921097 *  0.134313 *  0.138983 *  -3.33043    1.000000    
    211 O2    s    0.218536 *  0.120118 *  0.364897 *  -2.87073    1.000000    
    212 O2    s    0.913746 *  0.788413 *  0.028831 *  -2.87073    1.000000    
    213 O2    s    0.875872 *  0.093532 *  0.696255 *  -2.87073    1.000000    
    214 O2    s    0.782157 *  0.881096 *  0.861698 *  -2.87073    1.000000    
    215 O2    s    0.093966 *  0.215884 *  0.530644 *  -2.87073    1.000000    
    216 O2    s    0.129372 *  0.909389 *  0.201737 *  -2.87073    1.000000    
    217 O2    s    0.930956 *  0.859106 *  0.252404 *  -2.87073    1.000000    
    218 O2    s    0.138727 *  0.069292 *  0.583827 *  -2.87073    1.000000    
    219 O2    s    0.928086 *  0.072288 *  0.915073 *  -2.87073    1.000000    
    220 O2    s    0.068872 *  0.139785 *  0.749021 *  -2.87073    1.000000    
    221 O3    s    0.862529 *  0.929068 *  0.079638 *  -3.33043    1.000000    
    222 O2    s    0.070233 *  0.929393 *  0.418461 *  -2.87073    1.000000    
    223 O2    s    0.914886 *  0.203596 *  0.983177 *  -2.87073    1.000000    
    224 O2    s    0.796965 *  0.702456 *  0.317583 *  -2.87073    1.000000    
    225 O2    s    0.293789 *  0.088756 *  0.648995 *  -2.87073    1.000000    
    226 O2    s    0.091785 *  0.794944 *  0.483263 *  -2.87073    1.000000    
    227 O2    s    0.204277 *  0.298856 *  0.813222 *  -2.87073    1.000000    
    228 O3    s    0.696392 *  0.906214 *  0.150387 *  -3.33043    1.000000    
    229 O2    s    0.208209 *  0.907589 *  0.354888 *  -2.87073    1.000000    
    230 O2    s    0.706937 *  0.791554 *  0.015507 *  -2.87073    1.000000    
    231 O2    s    0.089405 *  0.294620 *  0.683932 *  -2.87073    1.000000    
    232 O2    s    0.794181 *  0.093864 *  0.849987 *  -2.87073    1.000000    
    233 O2    s    0.295141 *  0.204704 *  0.518637 *  -2.87073    1.000000    
    234 O2    s    0.914510 *  0.711282 *  0.185171 *  -2.87073    1.000000    
    235 O2    s    0.326728 *  0.653943 *  0.252489 *  -2.87073    1.000000    
    236 O2    s    0.343664 *  0.671882 *  0.583853 *  -2.87073    1.000000    
    237 O2    s    0.327165 *  0.671935 *  0.916182 *  -2.87073    1.000000    
    238 O2    s    0.671947 *  0.343297 *  0.748581 *  -2.87073    1.000000    
    239 O1    s    0.628409 *  0.314495 *  0.083171 *  -3.73396    1.000000    
    240 O2    s    0.673071 *  0.328158 *  0.418311 *  -2.87073    1.000000    
    241 O2    s    0.377359 *  0.340672 *  0.964431 *  -2.87073    1.000000    
    242 O2    s    0.663544 *  0.034694 *  0.304351 *  -2.87073    1.000000    
    243 O2    s    0.962189 *  0.621824 *  0.635107 *  -2.87073    1.000000    
    244 O2    s    0.622882 *  0.658251 *  0.469441 *  -2.87073    1.000000    
    245 O2    s    0.338200 *  0.964766 *  0.801777 *  -2.87073    1.000000    
    246 O2    s    0.038555 *  0.384925 *  0.134511 *  -2.87073    1.000000    
    247 O2    s    0.341001 *  0.374883 *  0.366190 *  -2.87073    1.000000    
    248 O2    s    0.037646 *  0.656955 *  0.032972 *  -2.87073    1.000000    
    249 O2    s    0.620356 *  0.962241 *  0.698517 *  -2.87073    1.000000    
    250 O2    s    0.659561 *  0.626772 *  0.861879 *  -2.87073    1.000000    
    251 O2    s    0.963270 *  0.339564 *  0.531737 *  -2.87073    1.000000    
    252 O2    s    0.380745 *  0.037252 *  0.203275 *  -2.87073    1.000000    
    253 O3    s    0.777001 *  0.296803 *  0.012600 *  -3.33043    1.000000    
    254 O2    s    0.691426 *  0.464933 *  0.348744 *  -2.87073    1.000000    
    255 O2    s    0.532006 *  0.220590 *  0.679819 *  -2.87073    1.000000    
    256 O2    s    0.223716 *  0.689047 *  0.514411 *  -2.87073    1.000000    
    257 O2    s    0.308877 *  0.536385 *  0.845572 *  -2.87073    1.000000    
    258 O2    s    0.465278 *  0.777940 *  0.183357 *  -2.87073    1.000000    
    259 O2    s    0.313900 *  0.775025 *  0.322937 *  -2.87073    1.000000    
    260 O2    s    0.467094 *  0.685532 *  0.985029 *  -2.87073    1.000000    
    261 O2    s    0.221672 *  0.533005 *  0.652960 *  -2.87073    1.000000    
    262 O2    s    0.689113 *  0.225590 *  0.818583 *  -2.87073    1.000000    
    263 O2    s    0.533396 *  0.310602 *  0.487482 *  -2.87073    1.000000    
    264 O3    s    0.776773 *  0.481373 *  0.155921 *  -3.33043    1.000000    
    265 O3    s    0.793935 *  0.543280 *  0.028569 *  -3.33043    1.000000    
    266 O2    s    0.469821 *  0.256630 *  0.365414 *  -2.87073    1.000000    
    267 O2    s    0.740949 *  0.208851 *  0.696337 *  -2.87073    1.000000    
    268 O2    s    0.210469 *  0.467608 *  0.531236 *  -2.87073    1.000000    
    269 O2    s    0.530881 *  0.744753 *  0.862973 *  -2.87073    1.000000    
    270 O2    s    0.257092 *  0.788891 *  0.201551 *  -2.87073    1.000000    
    271 O2    s    0.534565 *  0.786898 *  0.303641 *  -2.87073    1.000000    
    272 O2    s    0.255484 *  0.465774 *  0.967213 *  -2.87073    1.000000    
    273 O2    s    0.209257 *  0.741816 *  0.636187 *  -2.87073    1.000000    
    274 O2    s    0.467567 *  0.211941 *  0.801835 *  -2.87073    1.000000    
    275 O2    s    0.742597 *  0.531300 *  0.470876 *  -2.87073    1.000000    
    276 O3    s    0.794030 *  0.248901 *  0.140182 *  -3.33043    1.000000    
    277 O2    s    0.240327 *  0.334694 *  0.895843 *  -2.87073    1.000000    
    278 O2    s    0.671609 *  0.910669 *  0.233747 *  -2.87073    1.000000    
    279 O2    s    0.091598 *  0.757946 *  0.565881 *  -2.87073    1.000000    
    280 O2    s    0.760537 *  0.665182 *  0.400444 *  -2.87073    1.000000    
    281 O2    s    0.331117 *  0.091141 *  0.731992 *  -2.87073    1.000000    
    282 O2    s    0.902955 *  0.237338 *  0.067666 *  -2.87073    1.000000    
    283 O2    s    0.333032 *  0.240171 *  0.435643 *  -2.87073    1.000000    
    284 O2    s    0.903574 *  0.666404 *  0.100422 *  -2.87073    1.000000    
    285 O2    s    0.758012 *  0.093731 *  0.767190 *  -2.87073    1.000000    
    286 O2    s    0.667653 *  0.758308 *  0.932444 *  -2.87073    1.000000    
    287 O2    s    0.090694 *  0.332226 *  0.601244 *  -2.87073    1.000000    
    288 O2    s    0.244914 *  0.907106 *  0.272589 *  -2.87073    1.000000    
    289 O2    s    0.585524 *  0.557581 *  0.984366 *  -2.87073    1.000000    
    290 O2    s    0.445702 *  0.021073 *  0.324449 *  -2.87073    1.000000    
    291 O2    s    0.974971 *  0.416170 *  0.653941 *  -2.87073    1.000000    
    292 O2    s    0.416131 *  0.439922 *  0.488258 *  -2.87073    1.000000    
    293 O2    s    0.557415 *  0.978605 *  0.820244 *  -2.87073    1.000000    
    294 O2    s    0.019789 *  0.582719 *  0.151612 *  -2.87073    1.000000    
    295 O2    s    0.560476 *  0.580715 *  0.347723 *  -2.87073    1.000000    
    296 O2    s    0.019172 *  0.439364 *  0.017320 *  -2.87073    1.000000    
    297 O2    s    0.414046 *  0.974154 *  0.679671 *  -2.87073    1.000000    
    298 O2    s    0.440974 *  0.422285 *  0.842845 *  -2.87073    1.000000    
    299 O2    s    0.976871 *  0.558266 *  0.512999 *  -2.87073    1.000000    
    300 O2    s    0.585769 *  0.026463 *  0.182220 *  -2.87073    1.000000    
    301 O2    s    0.582803 *  0.154155 *  0.254142 *  -2.87073    1.000000    
    302 O2    s    0.845242 *  0.421699 *  0.583349 *  -2.87073    1.000000    
    303 O2    s    0.578269 *  0.425791 *  0.912249 *  -2.87073    1.000000    
    304 O2    s    0.419359 *  0.845540 *  0.750346 *  -2.87073    1.000000    
    305 O2    s    0.155585 *  0.580927 *  0.084062 *  -2.87073    1.000000    
    306 O2    s    0.422376 *  0.575039 *  0.417844 *  -2.87073    1.000000    
    307 F     s    0.452823 *  0.897987 *  0.252709 *  -1.56000    1.000000    
    308 F     s    0.096493 *  0.547855 *  0.583658 *  -1.56000    1.000000    
    309 F     s    0.448410 *  0.550580 *  0.914917 *  -1.56000    1.000000    
    310 F     s    0.547259 *  0.097548 *  0.749799 *  -1.56000    1.000000    
    311 F     s    0.847011 *  0.422094 *  0.086449 *  -1.56000    1.000000    
    312 F     s    0.548819 *  0.450164 *  0.418031 *  -1.56000    1.000000    
--------------------------------------------------------------------------------



********************************************************************************
*  General input information                                                   *
********************************************************************************

  Species output for all configurations : 

--------------------------------------------------------------------------------
  Species    Type    Atomic    Atomic    Charge       Radii (Angs)     Library
                     Number     Mass       (e)     Cova   Ionic  VDW   Symbol
--------------------------------------------------------------------------------
    Si       Core       14      28.09   4.000000   1.200  0.000  2.100          
    O1       Core        8      16.00   1.733957   0.730  0.000  1.360          
    O1       Shell       8       0.00  -3.733957   0.730  0.000  1.360          
    O2       Core        8      16.00   0.870733   0.730  0.000  1.360          
    O2       Shell       8       0.00  -2.870733   0.730  0.000  1.360          
    O3       Core        8      16.00   1.330431   0.730  0.000  1.360          
    O3       Shell       8       0.00  -3.330431   0.730  0.000  1.360          
    F        Core        9      19.00   0.560000   0.710  0.000  1.300          
    F        Shell       9       0.00  -1.560000   0.710  0.000  1.300          
    Ge       Core       32      72.61   4.000000   1.170  0.000  1.750          
--------------------------------------------------------------------------------


  Lattice summation method               =    Ewald          (3-D)
                                         =    Parry          (2-D)
                                         =    Saunders et al (1-D)
  Accuracy factor for lattice sums       =   12.000


  Time limit = Infinity

  Maximum range for interatomic potentials =        16.000000 Angstroms

  Taper potentials to zero over   1.0000 Angstroms using polynomial

  General interatomic potentials :

--------------------------------------------------------------------------------
Atom  Types   Potential         A         B         C         D     Cutoffs(Ang)
  1     2                                                            Min    Max 
--------------------------------------------------------------------------------
Si   c O1   s Buckingham    0.132E+04 0.318      10.1      0.00     0.000 16.000
Si   c O2   s Buckingham    0.132E+04 0.318      10.1      0.00     0.000 16.000
Si   c O3   s Buckingham    0.132E+04 0.318      10.1      0.00     0.000 16.000
Ge   c O1   s Buckingham    0.150E+04 0.326      16.8      0.00     0.000 16.000
Ge   c O2   s Buckingham    0.150E+04 0.326      16.8      0.00     0.000 16.000
Ge   c O3   s Buckingham    0.150E+04 0.326      16.8      0.00     0.000 16.000
O1   s O1   s Buckingham    0.228E+05 0.149      10.9      0.00     0.000 16.000
O1   s O2   s Buckingham    0.228E+05 0.149      10.9      0.00     0.000 16.000
O1   s O3   s Buckingham    0.228E+05 0.149      10.9      0.00     0.000 16.000
O2   s O2   s Buckingham    0.228E+05 0.149      10.9      0.00     0.000 16.000
O2   s O3   s Buckingham    0.228E+05 0.149      10.9      0.00     0.000 16.000
O3   s O3   s Buckingham    0.228E+05 0.149      10.9      0.00     0.000 16.000
Si   c F    s Buckingham     977.     0.282      0.00      0.00     0.000 16.000
Ge   c F    s Buckingham     681.     0.320      0.00      0.00     0.000 16.000
F    s F    s Buckingham     540.     0.262      0.00      0.00     0.000 16.000
O1   s F    s Buckingham    0.168E+04 0.268      0.00      0.00     0.000 16.000
O2   s F    s Buckingham    0.168E+04 0.268      0.00      0.00     0.000 16.000
O3   s F    s Buckingham    0.168E+04 0.268      0.00      0.00     0.000 16.000
O2   c O2   s Spring (c-s)   76.0      0.00      0.00      0.00     0.000  0.800
O3   c O3   s Spring (c-s)   128.      0.00      0.00      0.00     0.000  0.800
O1   c O1   s Spring (c-s)   180.      0.00      0.00      0.00     0.000  0.800
F    c F    s Spring (c-s)   33.5      0.00      0.00      0.00     0.000  0.800
--------------------------------------------------------------------------------

  General Three-body potentials :

  Harmonic form:

--------------------------------------------------------------------------------
Atom    Atom    Atom           Force Constants            Theta     Cutoffs  
  1       2       3     (eVrad**-2/eVrad**-3/eVrad**-4)   (deg)  1-2  1-3  2-3
--------------------------------------------------------------------------------
Si    c O1    s O1    s  1.261        0.0000    0.0000   109.470 0.00 0.00 0.00
                                                                 1.90 1.90 3.50
Si    c O1    s O2    s  1.261        0.0000    0.0000   109.470 0.00 0.00 0.00
                                                                 1.90 1.90 3.50
Si    c O2    s O2    s  1.261        0.0000    0.0000   109.470 0.00 0.00 0.00
                                                                 1.90 1.90 3.50
--------------------------------------------------------------------------------

********************************************************************************
*  Output for configuration   1                                                *
********************************************************************************


  Components of energy : 

--------------------------------------------------------------------------------
  Interatomic potentials     =        2060.43581913 eV
  Three-body potentials      =           0.45489075 eV
  Monopole - monopole (real) =       -6611.32899685 eV
  Monopole - monopole (recip)=       -3169.20907132 eV
  Monopole - monopole (total)=       -9780.53806817 eV
  Neutralising energy        =          -6.45497701 eV
--------------------------------------------------------------------------------
  Total lattice energy       =       -7726.10233530 eV
--------------------------------------------------------------------------------
  Total lattice energy       =         -745450.7711 kJ/(mole unit cells)
--------------------------------------------------------------------------------


  Number of variables =      939

  Maximum number of calculations  =          5000
  Maximum Hessian update interval =            10
  Maximum step size               =   0.100000000
  Maximum parameter tolerance     =   0.000010000
  Maximum function  tolerance     =   0.000010000
  Maximum gradient  tolerance     =   0.001000000
  Maximum gradient  component     =   0.010000000

  Symmetry not applied to optimisation

  Cell parameters to be optimised using strains

  Newton-Raphson optimiser to be used

  BFGS hessian update to be used

  Dumpfile to be written after every cycle

  Start of bulk optimisation :

  Cycle:      0 Energy:     -7726.102335  Gnorm:      0.004414  CPU:    2.007
  ** Hessian calculated **
  Cycle:      1 Energy:     -7726.102374  Gnorm:      0.001720  CPU:    5.232
  Cycle:      2 Energy:     -7726.102384  Gnorm:      0.001089  CPU:    8.080
  Cycle:      3 Energy:     -7726.102392  Gnorm:      0.000721  CPU:   10.928
  Cycle:      4 Energy:     -7726.102401  Gnorm:      0.000536  CPU:   13.776
  Cycle:      5 Energy:     -7726.102414  Gnorm:      0.000589  CPU:   16.625
  Cycle:      6 Energy:     -7726.102431  Gnorm:      0.000841  CPU:   19.481
  Cycle:      7 Energy:     -7726.102500  Gnorm:      0.002229  CPU:   24.392
  Cycle:      8 Energy:     -7726.102587  Gnorm:      0.003886  CPU:   28.619
  Cycle:      9 Energy:     -7726.102690  Gnorm:      0.005772  CPU:   32.843
  Cycle:     10 Energy:     -7726.102803  Gnorm:      0.007774  CPU:   37.068
  ** Hessian calculated **
  Cycle:     11 Energy:     -7726.102923  Gnorm:      0.003275  CPU:   41.608
  Cycle:     12 Energy:     -7726.102954  Gnorm:      0.002014  CPU:   44.459
  Cycle:     13 Energy:     -7726.102974  Gnorm:      0.001350  CPU:   47.311
  Cycle:     14 Energy:     -7726.102991  Gnorm:      0.000943  CPU:   50.164
  Cycle:     15 Energy:     -7726.103018  Gnorm:      0.000916  CPU:   53.701
  Cycle:     16 Energy:     -7726.103038  Gnorm:      0.001074  CPU:   56.552
  Cycle:     17 Energy:     -7726.103057  Gnorm:      0.001262  CPU:   59.404
  Cycle:     18 Energy:     -7726.103074  Gnorm:      0.001435  CPU:   62.255
  Cycle:     19 Energy:     -7726.103093  Gnorm:      0.001484  CPU:   65.105
  Cycle:     20 Energy:     -7726.103134  Gnorm:      0.001633  CPU:   69.330
  ** Hessian calculated **
  Cycle:     21 Energy:     -7726.103146  Gnorm:      0.000873  CPU:   73.871
  Cycle:     22 Energy:     -7726.103154  Gnorm:      0.000655  CPU:   76.721
  Cycle:     23 Energy:     -7726.103163  Gnorm:      0.000603  CPU:   79.574
  Cycle:     24 Energy:     -7726.103175  Gnorm:      0.000602  CPU:   82.427
  Cycle:     25 Energy:     -7726.103201  Gnorm:      0.000775  CPU:   85.963
  Cycle:     26 Energy:     -7726.103223  Gnorm:      0.000859  CPU:   88.816
  Cycle:     27 Energy:     -7726.103242  Gnorm:      0.000949  CPU:   91.665
  Cycle:     28 Energy:     -7726.103261  Gnorm:      0.001107  CPU:   94.516
  Cycle:     29 Energy:     -7726.103304  Gnorm:      0.001520  CPU:   98.741
  Cycle:     30 Energy:     -7726.103348  Gnorm:      0.001581  CPU:  102.277
  ** Hessian calculated **
  Cycle:     31 Energy:     -7726.103366  Gnorm:      0.001209  CPU:  106.819
  Cycle:     32 Energy:     -7726.103383  Gnorm:      0.001071  CPU:  109.672
  Cycle:     33 Energy:     -7726.103411  Gnorm:      0.000937  CPU:  113.211
  Cycle:     34 Energy:     -7726.103446  Gnorm:      0.000827  CPU:  116.748
  Cycle:     35 Energy:     -7726.103468  Gnorm:      0.000627  CPU:  119.601
  Cycle:     36 Energy:     -7726.103482  Gnorm:      0.000590  CPU:  122.452
  Cycle:     37 Energy:     -7726.103493  Gnorm:      0.000575  CPU:  125.302
  Cycle:     38 Energy:     -7726.103504  Gnorm:      0.000614  CPU:  128.154
  Cycle:     39 Energy:     -7726.103517  Gnorm:      0.000666  CPU:  131.003
  Cycle:     40 Energy:     -7726.103545  Gnorm:      0.000785  CPU:  134.538
  ** Hessian calculated **
  Cycle:     41 Energy:     -7726.103552  Gnorm:      0.000676  CPU:  139.070
  Cycle:     42 Energy:     -7726.103558  Gnorm:      0.000635  CPU:  141.918
  Cycle:     43 Energy:     -7726.103566  Gnorm:      0.000603  CPU:  144.766
  Cycle:     44 Energy:     -7726.103576  Gnorm:      0.000567  CPU:  147.619
  Cycle:     45 Energy:     -7726.103591  Gnorm:      0.000526  CPU:  150.472
  Cycle:     46 Energy:     -7726.103618  Gnorm:      0.000613  CPU:  154.007
  Cycle:     47 Energy:     -7726.103639  Gnorm:      0.000622  CPU:  156.858
  Cycle:     48 Energy:     -7726.103656  Gnorm:      0.000699  CPU:  159.709
  Cycle:     49 Energy:     -7726.103671  Gnorm:      0.000798  CPU:  162.561
  Cycle:     50 Energy:     -7726.103700  Gnorm:      0.001000  CPU:  166.099
  ** Hessian calculated **
  Cycle:     51 Energy:     -7726.103709  Gnorm:      0.000883  CPU:  170.640
  Cycle:     52 Energy:     -7726.103718  Gnorm:      0.000822  CPU:  173.492
  Cycle:     53 Energy:     -7726.103728  Gnorm:      0.000764  CPU:  176.342
  Cycle:     54 Energy:     -7726.103742  Gnorm:      0.000688  CPU:  179.194
  Cycle:     55 Energy:     -7726.103767  Gnorm:      0.000585  CPU:  182.732
  Cycle:     56 Energy:     -7726.103784  Gnorm:      0.000578  CPU:  185.581
  Cycle:     57 Energy:     -7726.103798  Gnorm:      0.000524  CPU:  188.434
  Cycle:     58 Energy:     -7726.103810  Gnorm:      0.000564  CPU:  191.284
  Cycle:     59 Energy:     -7726.103822  Gnorm:      0.000634  CPU:  194.135
  Cycle:     60 Energy:     -7726.103838  Gnorm:      0.000703  CPU:  196.985
  ** Hessian calculated **
  Cycle:     61 Energy:     -7726.103844  Gnorm:      0.000646  CPU:  201.528
  Cycle:     62 Energy:     -7726.103849  Gnorm:      0.000615  CPU:  204.379
  Cycle:     63 Energy:     -7726.103856  Gnorm:      0.000584  CPU:  207.229
  Cycle:     64 Energy:     -7726.103865  Gnorm:      0.000547  CPU:  210.080
  Cycle:     65 Energy:     -7726.103878  Gnorm:      0.000505  CPU:  212.932
  Cycle:     66 Energy:     -7726.103893  Gnorm:      0.000496  CPU:  215.783
  Cycle:     67 Energy:     -7726.103919  Gnorm:      0.000701  CPU:  219.321
  Cycle:     68 Energy:     -7726.103940  Gnorm:      0.000676  CPU:  222.172
  Cycle:     69 Energy:     -7726.103955  Gnorm:      0.000774  CPU:  225.025
  Cycle:     70 Energy:     -7726.103972  Gnorm:      0.000881  CPU:  227.878
  ** Hessian calculated **
  Cycle:     71 Energy:     -7726.103979  Gnorm:      0.000810  CPU:  232.420
  Cycle:     72 Energy:     -7726.103986  Gnorm:      0.000761  CPU:  235.269
  Cycle:     73 Energy:     -7726.103995  Gnorm:      0.000708  CPU:  238.122
  Cycle:     74 Energy:     -7726.104006  Gnorm:      0.000648  CPU:  240.972
  Cycle:     75 Energy:     -7726.104021  Gnorm:      0.000559  CPU:  243.822
  Cycle:     76 Energy:     -7726.104035  Gnorm:      0.000522  CPU:  246.675
  Cycle:     77 Energy:     -7726.104050  Gnorm:      0.000525  CPU:  249.526
  Cycle:     78 Energy:     -7726.104063  Gnorm:      0.000517  CPU:  252.376
  Cycle:     79 Energy:     -7726.104076  Gnorm:      0.000589  CPU:  255.228
  Cycle:     80 Energy:     -7726.104092  Gnorm:      0.000654  CPU:  258.080
  ** Hessian calculated **
  Cycle:     81 Energy:     -7726.104096  Gnorm:      0.000606  CPU:  262.620
  Cycle:     82 Energy:     -7726.104101  Gnorm:      0.000580  CPU:  265.470
  Cycle:     83 Energy:     -7726.104106  Gnorm:      0.000555  CPU:  268.323
  Cycle:     84 Energy:     -7726.104114  Gnorm:      0.000524  CPU:  271.174
  Cycle:     85 Energy:     -7726.104125  Gnorm:      0.000491  CPU:  274.024
  Cycle:     86 Energy:     -7726.104139  Gnorm:      0.000490  CPU:  276.876
  Cycle:     87 Energy:     -7726.104166  Gnorm:      0.000696  CPU:  280.413
  Cycle:     88 Energy:     -7726.104186  Gnorm:      0.000682  CPU:  283.264
  Cycle:     89 Energy:     -7726.104202  Gnorm:      0.000795  CPU:  286.116
  Cycle:     90 Energy:     -7726.104219  Gnorm:      0.000902  CPU:  288.969
  ** Hessian calculated **
  Cycle:     91 Energy:     -7726.104227  Gnorm:      0.000828  CPU:  293.509
  Cycle:     92 Energy:     -7726.104234  Gnorm:      0.000775  CPU:  296.359
  Cycle:     93 Energy:     -7726.104243  Gnorm:      0.000716  CPU:  299.210
  Cycle:     94 Energy:     -7726.104255  Gnorm:      0.000649  CPU:  302.061
  Cycle:     95 Energy:     -7726.104269  Gnorm:      0.000554  CPU:  304.911
  Cycle:     96 Energy:     -7726.104282  Gnorm:      0.000512  CPU:  307.764
  Cycle:     97 Energy:     -7726.104294  Gnorm:      0.000519  CPU:  310.615
  Cycle:     98 Energy:     -7726.104307  Gnorm:      0.000497  CPU:  313.465
  Cycle:     99 Energy:     -7726.104318  Gnorm:      0.000557  CPU:  316.317
  Cycle:    100 Energy:     -7726.104331  Gnorm:      0.000631  CPU:  319.169
  ** Hessian calculated **
  Cycle:    101 Energy:     -7726.104335  Gnorm:      0.000581  CPU:  323.709
  Cycle:    102 Energy:     -7726.104339  Gnorm:      0.000556  CPU:  326.560
  Cycle:    103 Energy:     -7726.104344  Gnorm:      0.000536  CPU:  329.412
  Cycle:    104 Energy:     -7726.104351  Gnorm:      0.000509  CPU:  332.263
  Cycle:    105 Energy:     -7726.104360  Gnorm:      0.000484  CPU:  335.114
  Cycle:    106 Energy:     -7726.104373  Gnorm:      0.000492  CPU:  337.966
  Cycle:    107 Energy:     -7726.104400  Gnorm:      0.000657  CPU:  341.503
  Cycle:    108 Energy:     -7726.104419  Gnorm:      0.000690  CPU:  344.353
  Cycle:    109 Energy:     -7726.104436  Gnorm:      0.000818  CPU:  347.204
  Cycle:    110 Energy:     -7726.104454  Gnorm:      0.000915  CPU:  350.057
  ** Hessian calculated **
  Cycle:    111 Energy:     -7726.104462  Gnorm:      0.000839  CPU:  354.596
  Cycle:    112 Energy:     -7726.104470  Gnorm:      0.000784  CPU:  357.447
  Cycle:    113 Energy:     -7726.104479  Gnorm:      0.000721  CPU:  360.298
  Cycle:    114 Energy:     -7726.104491  Gnorm:      0.000649  CPU:  363.148
  Cycle:    115 Energy:     -7726.104504  Gnorm:      0.000553  CPU:  365.999
  Cycle:    116 Energy:     -7726.104516  Gnorm:      0.000507  CPU:  368.850
  Cycle:    117 Energy:     -7726.104528  Gnorm:      0.000502  CPU:  371.700
  Cycle:    118 Energy:     -7726.104538  Gnorm:      0.000491  CPU:  374.551
  Cycle:    119 Energy:     -7726.104548  Gnorm:      0.000554  CPU:  377.402
  Cycle:    120 Energy:     -7726.104561  Gnorm:      0.000602  CPU:  380.254
  ** Hessian calculated **
  Cycle:    121 Energy:     -7726.104565  Gnorm:      0.000568  CPU:  384.791
  Cycle:    122 Energy:     -7726.104568  Gnorm:      0.000547  CPU:  387.642
  Cycle:    123 Energy:     -7726.104573  Gnorm:      0.000527  CPU:  390.495
  Cycle:    124 Energy:     -7726.104579  Gnorm:      0.000502  CPU:  393.344
  Cycle:    125 Energy:     -7726.104588  Gnorm:      0.000476  CPU:  396.196
  Cycle:    126 Energy:     -7726.104600  Gnorm:      0.000470  CPU:  399.046
  Cycle:    127 Energy:     -7726.104625  Gnorm:      0.000656  CPU:  402.583
  Cycle:    128 Energy:     -7726.104646  Gnorm:      0.000654  CPU:  405.434
  Cycle:    129 Energy:     -7726.104662  Gnorm:      0.000764  CPU:  408.287
  Cycle:    130 Energy:     -7726.104680  Gnorm:      0.000919  CPU:  411.139
  ** Hessian calculated **
  Cycle:    131 Energy:     -7726.104688  Gnorm:      0.000821  CPU:  415.676
  Cycle:    132 Energy:     -7726.104695  Gnorm:      0.000761  CPU:  418.528
  Cycle:    133 Energy:     -7726.104704  Gnorm:      0.000703  CPU:  421.378
  Cycle:    134 Energy:     -7726.104715  Gnorm:      0.000627  CPU:  424.228
  Cycle:    135 Energy:     -7726.104727  Gnorm:      0.000542  CPU:  427.079
  Cycle:    136 Energy:     -7726.104739  Gnorm:      0.000516  CPU:  429.929
  Cycle:    137 Energy:     -7726.104750  Gnorm:      0.000485  CPU:  432.780
  Cycle:    138 Energy:     -7726.104759  Gnorm:      0.000495  CPU:  435.631
  Cycle:    139 Energy:     -7726.104769  Gnorm:      0.000550  CPU:  438.484
  Cycle:    140 Energy:     -7726.104780  Gnorm:      0.000605  CPU:  441.335
  ** Hessian calculated **
  Cycle:    141 Energy:     -7726.104784  Gnorm:      0.000567  CPU:  445.873
  Cycle:    142 Energy:     -7726.104788  Gnorm:      0.000545  CPU:  448.724
  Cycle:    143 Energy:     -7726.104792  Gnorm:      0.000525  CPU:  451.575
  Cycle:    144 Energy:     -7726.104798  Gnorm:      0.000498  CPU:  454.425
  Cycle:    145 Energy:     -7726.104807  Gnorm:      0.000474  CPU:  457.277
  Cycle:    146 Energy:     -7726.104819  Gnorm:      0.000478  CPU:  460.127
  Cycle:    147 Energy:     -7726.104834  Gnorm:      0.000518  CPU:  462.978
  Cycle:    148 Energy:     -7726.104851  Gnorm:      0.000579  CPU:  465.829
  Cycle:    149 Energy:     -7726.104867  Gnorm:      0.000668  CPU:  468.681
  Cycle:    150 Energy:     -7726.104885  Gnorm:      0.000799  CPU:  471.533
  ** Hessian calculated **
  Cycle:    151 Energy:     -7726.104891  Gnorm:      0.000725  CPU:  476.071
  Cycle:    152 Energy:     -7726.104897  Gnorm:      0.000680  CPU:  478.924
  Cycle:    153 Energy:     -7726.104903  Gnorm:      0.000634  CPU:  481.774
  Cycle:    154 Energy:     -7726.104912  Gnorm:      0.000579  CPU:  484.624
  Cycle:    155 Energy:     -7726.104923  Gnorm:      0.000518  CPU:  487.476
  Cycle:    156 Energy:     -7726.104934  Gnorm:      0.000490  CPU:  490.326
  Cycle:    157 Energy:     -7726.104945  Gnorm:      0.000486  CPU:  493.177
  Cycle:    158 Energy:     -7726.104956  Gnorm:      0.000516  CPU:  496.028
  Cycle:    159 Energy:     -7726.104967  Gnorm:      0.000580  CPU:  498.881
  Cycle:    160 Energy:     -7726.104980  Gnorm:      0.000647  CPU:  501.732
  ** Hessian calculated **
  Cycle:    161 Energy:     -7726.104984  Gnorm:      0.000601  CPU:  506.271
  Cycle:    162 Energy:     -7726.104988  Gnorm:      0.000573  CPU:  509.124
  Cycle:    163 Energy:     -7726.104993  Gnorm:      0.000547  CPU:  511.974
  Cycle:    164 Energy:     -7726.105000  Gnorm:      0.000510  CPU:  514.824
  Cycle:    165 Energy:     -7726.105009  Gnorm:      0.000478  CPU:  517.675
  Cycle:    166 Energy:     -7726.105021  Gnorm:      0.000476  CPU:  520.525
  Cycle:    167 Energy:     -7726.105034  Gnorm:      0.000507  CPU:  523.375
  Cycle:    168 Energy:     -7726.105047  Gnorm:      0.000561  CPU:  526.227
  Cycle:    169 Energy:     -7726.105060  Gnorm:      0.000638  CPU:  529.079
  Cycle:    170 Energy:     -7726.105076  Gnorm:      0.000757  CPU:  531.930
  ** Hessian calculated **
  Cycle:    171 Energy:     -7726.105081  Gnorm:      0.000689  CPU:  536.469
  Cycle:    172 Energy:     -7726.105085  Gnorm:      0.000648  CPU:  539.320
  Cycle:    173 Energy:     -7726.105091  Gnorm:      0.000609  CPU:  542.170
  Cycle:    174 Energy:     -7726.105099  Gnorm:      0.000558  CPU:  545.020
  Cycle:    175 Energy:     -7726.105109  Gnorm:      0.000502  CPU:  547.872
  Cycle:    176 Energy:     -7726.105120  Gnorm:      0.000489  CPU:  550.722
  Cycle:    177 Energy:     -7726.105132  Gnorm:      0.000496  CPU:  553.572
  Cycle:    178 Energy:     -7726.105143  Gnorm:      0.000517  CPU:  556.423
  Cycle:    179 Energy:     -7726.105155  Gnorm:      0.000602  CPU:  559.275
  Cycle:    180 Energy:     -7726.105168  Gnorm:      0.000667  CPU:  562.126
  ** Hessian calculated **
  Cycle:    181 Energy:     -7726.105173  Gnorm:      0.000619  CPU:  566.664
  Cycle:    182 Energy:     -7726.105178  Gnorm:      0.000589  CPU:  569.516
  Cycle:    183 Energy:     -7726.105183  Gnorm:      0.000557  CPU:  572.366
  Cycle:    184 Energy:     -7726.105190  Gnorm:      0.000517  CPU:  575.216
  Cycle:    185 Energy:     -7726.105200  Gnorm:      0.000476  CPU:  578.068
  Cycle:    186 Energy:     -7726.105211  Gnorm:      0.000476  CPU:  580.918
  Cycle:    187 Energy:     -7726.105223  Gnorm:      0.000508  CPU:  583.769
  Cycle:    188 Energy:     -7726.105235  Gnorm:      0.000535  CPU:  586.620
  Cycle:    189 Energy:     -7726.105246  Gnorm:      0.000620  CPU:  589.473
  Cycle:    190 Energy:     -7726.105260  Gnorm:      0.000729  CPU:  592.324
  ** Hessian calculated **
  Cycle:    191 Energy:     -7726.105265  Gnorm:      0.000667  CPU:  596.862
  Cycle:    192 Energy:     -7726.105269  Gnorm:      0.000630  CPU:  599.713
  Cycle:    193 Energy:     -7726.105275  Gnorm:      0.000593  CPU:  602.563
  Cycle:    194 Energy:     -7726.105282  Gnorm:      0.000550  CPU:  605.412
  Cycle:    195 Energy:     -7726.105292  Gnorm:      0.000498  CPU:  608.266
  Cycle:    196 Energy:     -7726.105302  Gnorm:      0.000485  CPU:  611.116
  Cycle:    197 Energy:     -7726.105314  Gnorm:      0.000487  CPU:  613.965
  Cycle:    198 Energy:     -7726.105325  Gnorm:      0.000517  CPU:  616.818
  Cycle:    199 Energy:     -7726.105337  Gnorm:      0.000608  CPU:  619.670
  Cycle:    200 Energy:     -7726.105352  Gnorm:      0.000679  CPU:  622.521
  ** Hessian calculated **
  Cycle:    201 Energy:     -7726.105357  Gnorm:      0.000629  CPU:  627.060
  Cycle:    202 Energy:     -7726.105361  Gnorm:      0.000595  CPU:  629.914
  Cycle:    203 Energy:     -7726.105367  Gnorm:      0.000562  CPU:  632.764
  Cycle:    204 Energy:     -7726.105374  Gnorm:      0.000521  CPU:  635.613
  Cycle:    205 Energy:     -7726.105384  Gnorm:      0.000475  CPU:  638.466
  Cycle:    206 Energy:     -7726.105394  Gnorm:      0.000469  CPU:  641.316
  Cycle:    207 Energy:     -7726.105406  Gnorm:      0.000495  CPU:  644.166
  Cycle:    208 Energy:     -7726.105417  Gnorm:      0.000526  CPU:  647.018
  Cycle:    209 Energy:     -7726.105428  Gnorm:      0.000597  CPU:  649.870
  Cycle:    210 Energy:     -7726.105442  Gnorm:      0.000720  CPU:  652.723
  ** Hessian calculated **
  Cycle:    211 Energy:     -7726.105446  Gnorm:      0.000648  CPU:  657.263
  Cycle:    212 Energy:     -7726.105450  Gnorm:      0.000614  CPU:  660.114
  Cycle:    213 Energy:     -7726.105455  Gnorm:      0.000579  CPU:  662.965
  Cycle:    214 Energy:     -7726.105462  Gnorm:      0.000542  CPU:  665.814
  Cycle:    215 Energy:     -7726.105471  Gnorm:      0.000497  CPU:  668.667
  Cycle:    216 Energy:     -7726.105482  Gnorm:      0.000490  CPU:  671.518
  Cycle:    217 Energy:     -7726.105494  Gnorm:      0.000485  CPU:  674.368
  Cycle:    218 Energy:     -7726.105505  Gnorm:      0.000525  CPU:  677.219
  Cycle:    219 Energy:     -7726.105517  Gnorm:      0.000605  CPU:  680.072
  Cycle:    220 Energy:     -7726.105532  Gnorm:      0.000693  CPU:  682.924
  ** Hessian calculated **
  Cycle:    221 Energy:     -7726.105537  Gnorm:      0.000633  CPU:  687.465
  Cycle:    222 Energy:     -7726.105541  Gnorm:      0.000598  CPU:  690.315
  Cycle:    223 Energy:     -7726.105547  Gnorm:      0.000564  CPU:  693.166
  Cycle:    224 Energy:     -7726.105554  Gnorm:      0.000519  CPU:  696.016
  Cycle:    225 Energy:     -7726.105564  Gnorm:      0.000479  CPU:  698.868
  Cycle:    226 Energy:     -7726.105575  Gnorm:      0.000490  CPU:  701.720
  Cycle:    227 Energy:     -7726.105586  Gnorm:      0.000488  CPU:  704.570
  Cycle:    228 Energy:     -7726.105596  Gnorm:      0.000531  CPU:  707.423
  Cycle:    229 Energy:     -7726.105606  Gnorm:      0.000605  CPU:  710.275
  Cycle:    230 Energy:     -7726.105619  Gnorm:      0.000707  CPU:  713.125
  ** Hessian calculated **
  Cycle:    231 Energy:     -7726.105624  Gnorm:      0.000648  CPU:  717.666
  Cycle:    232 Energy:     -7726.105628  Gnorm:      0.000613  CPU:  720.516
  Cycle:    233 Energy:     -7726.105633  Gnorm:      0.000580  CPU:  723.368
  Cycle:    234 Energy:     -7726.105639  Gnorm:      0.000540  CPU:  726.218
  Cycle:    235 Energy:     -7726.105648  Gnorm:      0.000494  CPU:  729.070
  Cycle:    236 Energy:     -7726.105659  Gnorm:      0.000478  CPU:  731.922
  Cycle:    237 Energy:     -7726.105671  Gnorm:      0.000482  CPU:  734.771
  Cycle:    238 Energy:     -7726.105682  Gnorm:      0.000521  CPU:  737.624
  Cycle:    239 Energy:     -7726.105694  Gnorm:      0.000605  CPU:  740.476
  Cycle:    240 Energy:     -7726.105708  Gnorm:      0.000687  CPU:  743.327
  ** Hessian calculated **
  Cycle:    241 Energy:     -7726.105713  Gnorm:      0.000633  CPU:  747.869
  Cycle:    242 Energy:     -7726.105718  Gnorm:      0.000597  CPU:  750.721
  Cycle:    243 Energy:     -7726.105723  Gnorm:      0.000563  CPU:  753.573
  Cycle:    244 Energy:     -7726.105731  Gnorm:      0.000519  CPU:  756.425
  Cycle:    245 Energy:     -7726.105740  Gnorm:      0.000475  CPU:  759.276
  Cycle:    246 Energy:     -7726.105751  Gnorm:      0.000471  CPU:  762.127
  Cycle:    247 Energy:     -7726.105761  Gnorm:      0.000491  CPU:  764.977
  Cycle:    248 Energy:     -7726.105772  Gnorm:      0.000531  CPU:  767.831
  Cycle:    249 Energy:     -7726.105783  Gnorm:      0.000608  CPU:  770.682
  Cycle:    250 Energy:     -7726.105796  Gnorm:      0.000716  CPU:  773.533
  ** Hessian calculated **
  Cycle:    251 Energy:     -7726.105800  Gnorm:      0.000655  CPU:  778.075
  Cycle:    252 Energy:     -7726.105804  Gnorm:      0.000619  CPU:  780.925
  Cycle:    253 Energy:     -7726.105809  Gnorm:      0.000584  CPU:  783.776
  Cycle:    254 Energy:     -7726.105816  Gnorm:      0.000540  CPU:  786.626
  Cycle:    255 Energy:     -7726.105825  Gnorm:      0.000493  CPU:  789.478
  Cycle:    256 Energy:     -7726.105836  Gnorm:      0.000484  CPU:  792.329
  Cycle:    257 Energy:     -7726.105847  Gnorm:      0.000491  CPU:  795.178
  Cycle:    258 Energy:     -7726.105858  Gnorm:      0.000518  CPU:  798.032
  Cycle:    259 Energy:     -7726.105870  Gnorm:      0.000604  CPU:  800.886
  Cycle:    260 Energy:     -7726.105884  Gnorm:      0.000686  CPU:  803.736
  ** Hessian calculated **
  Cycle:    261 Energy:     -7726.105889  Gnorm:      0.000630  CPU:  808.278
  Cycle:    262 Energy:     -7726.105893  Gnorm:      0.000593  CPU:  811.130
  Cycle:    263 Energy:     -7726.105899  Gnorm:      0.000561  CPU:  813.980
  Cycle:    264 Energy:     -7726.105906  Gnorm:      0.000516  CPU:  816.833
  Cycle:    265 Energy:     -7726.105915  Gnorm:      0.000474  CPU:  819.684
  Cycle:    266 Energy:     -7726.105925  Gnorm:      0.000471  CPU:  822.536
  Cycle:    267 Energy:     -7726.105936  Gnorm:      0.000516  CPU:  825.385
  Cycle:    268 Energy:     -7726.105947  Gnorm:      0.000533  CPU:  828.241
  Cycle:    269 Energy:     -7726.105957  Gnorm:      0.000605  CPU:  831.093
  Cycle:    270 Energy:     -7726.105970  Gnorm:      0.000717  CPU:  833.944
  ** Hessian calculated **
  Cycle:    271 Energy:     -7726.105974  Gnorm:      0.000650  CPU:  838.486
  Cycle:    272 Energy:     -7726.105978  Gnorm:      0.000614  CPU:  841.338
  Cycle:    273 Energy:     -7726.105983  Gnorm:      0.000580  CPU:  844.189
  Cycle:    274 Energy:     -7726.105990  Gnorm:      0.000536  CPU:  847.040
  Cycle:    275 Energy:     -7726.105999  Gnorm:      0.000491  CPU:  849.892
  Cycle:    276 Energy:     -7726.106009  Gnorm:      0.000479  CPU:  852.744
  Cycle:    277 Energy:     -7726.106020  Gnorm:      0.000492  CPU:  855.594
  Cycle:    278 Energy:     -7726.106031  Gnorm:      0.000528  CPU:  858.450
  Cycle:    279 Energy:     -7726.106044  Gnorm:      0.000620  CPU:  861.302
  Cycle:    280 Energy:     -7726.106058  Gnorm:      0.000690  CPU:  864.152
  ** Hessian calculated **
  Cycle:    281 Energy:     -7726.106063  Gnorm:      0.000638  CPU:  868.696
  Cycle:    282 Energy:     -7726.106067  Gnorm:      0.000603  CPU:  871.550
  Cycle:    283 Energy:     -7726.106073  Gnorm:      0.000566  CPU:  874.401
  Cycle:    284 Energy:     -7726.106080  Gnorm:      0.000524  CPU:  877.252
  Cycle:    285 Energy:     -7726.106090  Gnorm:      0.000476  CPU:  880.103
  Cycle:    286 Energy:     -7726.106100  Gnorm:      0.000469  CPU:  882.955
  Cycle:    287 Energy:     -7726.106110  Gnorm:      0.000497  CPU:  885.808
  Cycle:    288 Energy:     -7726.106120  Gnorm:      0.000530  CPU:  888.662
  Cycle:    289 Energy:     -7726.106131  Gnorm:      0.000619  CPU:  891.514
  Cycle:    290 Energy:     -7726.106143  Gnorm:      0.000702  CPU:  894.365
  ** Hessian calculated **
  Cycle:    291 Energy:     -7726.106148  Gnorm:      0.000654  CPU:  898.907
  Cycle:    292 Energy:     -7726.106152  Gnorm:      0.000621  CPU:  901.759
  Cycle:    293 Energy:     -7726.106157  Gnorm:      0.000584  CPU:  904.609
  Cycle:    294 Energy:     -7726.106163  Gnorm:      0.000543  CPU:  907.462
  Cycle:    295 Energy:     -7726.106172  Gnorm:      0.000489  CPU:  910.313
  Cycle:    296 Energy:     -7726.106182  Gnorm:      0.000467  CPU:  913.165
  Cycle:    297 Energy:     -7726.106193  Gnorm:      0.000499  CPU:  916.019
  Cycle:    298 Energy:     -7726.106206  Gnorm:      0.000509  CPU:  918.872
  Cycle:    299 Energy:     -7726.106217  Gnorm:      0.000580  CPU:  921.724
  Cycle:    300 Energy:     -7726.106231  Gnorm:      0.000694  CPU:  924.575
  ** Hessian calculated **
  Cycle:    301 Energy:     -7726.106236  Gnorm:      0.000624  CPU:  929.117
  Cycle:    302 Energy:     -7726.106240  Gnorm:      0.000587  CPU:  931.969
  Cycle:    303 Energy:     -7726.106245  Gnorm:      0.000555  CPU:  934.819
  Cycle:    304 Energy:     -7726.106252  Gnorm:      0.000516  CPU:  937.673
  Cycle:    305 Energy:     -7726.106262  Gnorm:      0.000479  CPU:  940.524
  Cycle:    306 Energy:     -7726.106272  Gnorm:      0.000484  CPU:  943.376
  Cycle:    307 Energy:     -7726.106282  Gnorm:      0.000498  CPU:  946.229
  Cycle:    308 Energy:     -7726.106292  Gnorm:      0.000552  CPU:  949.082
  Cycle:    309 Energy:     -7726.106303  Gnorm:      0.000631  CPU:  951.934
  Cycle:    310 Energy:     -7726.106315  Gnorm:      0.000714  CPU:  954.784
  ** Hessian calculated **
  Cycle:    311 Energy:     -7726.106320  Gnorm:      0.000665  CPU:  959.326
  Cycle:    312 Energy:     -7726.106324  Gnorm:      0.000630  CPU:  962.179
  Cycle:    313 Energy:     -7726.106329  Gnorm:      0.000591  CPU:  965.028
  Cycle:    314 Energy:     -7726.106336  Gnorm:      0.000549  CPU:  967.882
  Cycle:    315 Energy:     -7726.106345  Gnorm:      0.000494  CPU:  970.734
  Cycle:    316 Energy:     -7726.106355  Gnorm:      0.000474  CPU:  973.585
  Cycle:    317 Energy:     -7726.106366  Gnorm:      0.000489  CPU:  976.438
  Cycle:    318 Energy:     -7726.106377  Gnorm:      0.000517  CPU:  979.292
  Cycle:    319 Energy:     -7726.106388  Gnorm:      0.000589  CPU:  982.144
  Cycle:    320 Energy:     -7726.106401  Gnorm:      0.000674  CPU:  984.994
  ** Hessian calculated **
  Cycle:    321 Energy:     -7726.106405  Gnorm:      0.000624  CPU:  989.541
  Cycle:    322 Energy:     -7726.106410  Gnorm:      0.000592  CPU:  992.394
  Cycle:    323 Energy:     -7726.106415  Gnorm:      0.000559  CPU:  995.243
  Cycle:    324 Energy:     -7726.106422  Gnorm:      0.000516  CPU:  998.096
  Cycle:    325 Energy:     -7726.106431  Gnorm:      0.000474  CPU: 1000.948
  Cycle:    326 Energy:     -7726.106441  Gnorm:      0.000464  CPU: 1003.799
  Cycle:    327 Energy:     -7726.106451  Gnorm:      0.000514  CPU: 1006.651
  Cycle:    328 Energy:     -7726.106463  Gnorm:      0.000537  CPU: 1009.504
  Cycle:    329 Energy:     -7726.106474  Gnorm:      0.000610  CPU: 1012.356
  Cycle:    330 Energy:     -7726.106486  Gnorm:      0.000715  CPU: 1015.207
  ** Hessian calculated **
  Cycle:    331 Energy:     -7726.106490  Gnorm:      0.000657  CPU: 1019.748
  Cycle:    332 Energy:     -7726.106494  Gnorm:      0.000621  CPU: 1022.600
  Cycle:    333 Energy:     -7726.106499  Gnorm:      0.000587  CPU: 1025.451
  Cycle:    334 Energy:     -7726.106506  Gnorm:      0.000542  CPU: 1028.303
  Cycle:    335 Energy:     -7726.106515  Gnorm:      0.000491  CPU: 1031.157
  Cycle:    336 Energy:     -7726.106525  Gnorm:      0.000478  CPU: 1034.008
  Cycle:    337 Energy:     -7726.106536  Gnorm:      0.000482  CPU: 1036.860
  Cycle:    338 Energy:     -7726.106547  Gnorm:      0.000524  CPU: 1039.714
  Cycle:    339 Energy:     -7726.106558  Gnorm:      0.000603  CPU: 1042.566
  Cycle:    340 Energy:     -7726.106572  Gnorm:      0.000690  CPU: 1045.417
  ** Hessian calculated **
  Cycle:    341 Energy:     -7726.106577  Gnorm:      0.000632  CPU: 1049.959
  Cycle:    342 Energy:     -7726.106581  Gnorm:      0.000596  CPU: 1052.811
  Cycle:    343 Energy:     -7726.106586  Gnorm:      0.000564  CPU: 1055.661
  Cycle:    344 Energy:     -7726.106593  Gnorm:      0.000518  CPU: 1058.514
  Cycle:    345 Energy:     -7726.106603  Gnorm:      0.000475  CPU: 1061.367
  Cycle:    346 Energy:     -7726.106612  Gnorm:      0.000467  CPU: 1064.217
  Cycle:    347 Energy:     -7726.106622  Gnorm:      0.000511  CPU: 1067.070
  Cycle:    348 Energy:     -7726.106633  Gnorm:      0.000534  CPU: 1069.923
  Cycle:    349 Energy:     -7726.106644  Gnorm:      0.000614  CPU: 1072.775
  Cycle:    350 Energy:     -7726.106657  Gnorm:      0.000732  CPU: 1075.626
  ** Hessian calculated **
  Cycle:    351 Energy:     -7726.106662  Gnorm:      0.000661  CPU: 1080.168
  Cycle:    352 Energy:     -7726.106666  Gnorm:      0.000623  CPU: 1083.020
  Cycle:    353 Energy:     -7726.106671  Gnorm:      0.000590  CPU: 1085.870
  Cycle:    354 Energy:     -7726.106678  Gnorm:      0.000539  CPU: 1088.723
  Cycle:    355 Energy:     -7726.106687  Gnorm:      0.000494  CPU: 1091.576
  Cycle:    356 Energy:     -7726.106697  Gnorm:      0.000491  CPU: 1094.425
  Cycle:    357 Energy:     -7726.106708  Gnorm:      0.000484  CPU: 1097.278
  Cycle:    358 Energy:     -7726.106718  Gnorm:      0.000526  CPU: 1100.131
  Cycle:    359 Energy:     -7726.106729  Gnorm:      0.000610  CPU: 1102.982
  Cycle:    360 Energy:     -7726.106743  Gnorm:      0.000685  CPU: 1105.834
  ** Hessian calculated **
  Cycle:    361 Energy:     -7726.106748  Gnorm:      0.000633  CPU: 1110.381
  Cycle:    362 Energy:     -7726.106752  Gnorm:      0.000598  CPU: 1113.234
  Cycle:    363 Energy:     -7726.106757  Gnorm:      0.000564  CPU: 1116.086
  Cycle:    364 Energy:     -7726.106764  Gnorm:      0.000521  CPU: 1118.937
  Cycle:    365 Energy:     -7726.106774  Gnorm:      0.000476  CPU: 1121.790
  Cycle:    366 Energy:     -7726.106783  Gnorm:      0.000467  CPU: 1124.640
  Cycle:    367 Energy:     -7726.106794  Gnorm:      0.000515  CPU: 1127.493
  Cycle:    368 Energy:     -7726.106805  Gnorm:      0.000542  CPU: 1130.346
  Cycle:    369 Energy:     -7726.106816  Gnorm:      0.000623  CPU: 1133.198
  Cycle:    370 Energy:     -7726.106828  Gnorm:      0.000727  CPU: 1136.048
  ** Hessian calculated **
  Cycle:    371 Energy:     -7726.106833  Gnorm:      0.000667  CPU: 1140.589
  Cycle:    372 Energy:     -7726.106837  Gnorm:      0.000629  CPU: 1143.442
  Cycle:    373 Energy:     -7726.106842  Gnorm:      0.000593  CPU: 1146.294
  Cycle:    374 Energy:     -7726.106849  Gnorm:      0.000544  CPU: 1149.145
  Cycle:    375 Energy:     -7726.106858  Gnorm:      0.000493  CPU: 1151.998
  Cycle:    376 Energy:     -7726.106868  Gnorm:      0.000482  CPU: 1154.847
  Cycle:    377 Energy:     -7726.106879  Gnorm:      0.000494  CPU: 1157.708
  Cycle:    378 Energy:     -7726.106889  Gnorm:      0.000523  CPU: 1160.567
  Cycle:    379 Energy:     -7726.106901  Gnorm:      0.000608  CPU: 1163.419
  Cycle:    380 Energy:     -7726.106914  Gnorm:      0.000684  CPU: 1166.272
  ** Hessian calculated **
  Cycle:    381 Energy:     -7726.106919  Gnorm:      0.000635  CPU: 1170.811
  Cycle:    382 Energy:     -7726.106923  Gnorm:      0.000599  CPU: 1173.664
  Cycle:    383 Energy:     -7726.106929  Gnorm:      0.000564  CPU: 1176.517
  Cycle:    384 Energy:     -7726.106936  Gnorm:      0.000525  CPU: 1179.367
  Cycle:    385 Energy:     -7726.106945  Gnorm:      0.000477  CPU: 1182.219
  Cycle:    386 Energy:     -7726.106955  Gnorm:      0.000474  CPU: 1185.070
  Cycle:    387 Energy:     -7726.106965  Gnorm:      0.000511  CPU: 1187.924
  Cycle:    388 Energy:     -7726.106976  Gnorm:      0.000540  CPU: 1190.776
  Cycle:    389 Energy:     -7726.106986  Gnorm:      0.000616  CPU: 1193.627
  Cycle:    390 Energy:     -7726.106999  Gnorm:      0.000727  CPU: 1196.479
  ** Hessian calculated **
  Cycle:    391 Energy:     -7726.107004  Gnorm:      0.000661  CPU: 1201.018
  Cycle:    392 Energy:     -7726.107008  Gnorm:      0.000625  CPU: 1203.870
  Cycle:    393 Energy:     -7726.107013  Gnorm:      0.000591  CPU: 1206.722
  Cycle:    394 Energy:     -7726.107020  Gnorm:      0.000543  CPU: 1209.575
  Cycle:    395 Energy:     -7726.107029  Gnorm:      0.000497  CPU: 1212.428
  Cycle:    396 Energy:     -7726.107039  Gnorm:      0.000499  CPU: 1215.278
  Cycle:    397 Energy:     -7726.107050  Gnorm:      0.000483  CPU: 1218.132
  Cycle:    398 Energy:     -7726.107060  Gnorm:      0.000522  CPU: 1220.983
  Cycle:    399 Energy:     -7726.107071  Gnorm:      0.000605  CPU: 1223.835
  Cycle:    400 Energy:     -7726.107085  Gnorm:      0.000694  CPU: 1226.688
  ** Hessian calculated **
  Cycle:    401 Energy:     -7726.107090  Gnorm:      0.000635  CPU: 1231.234
  Cycle:    402 Energy:     -7726.107094  Gnorm:      0.000597  CPU: 1234.084
  Cycle:    403 Energy:     -7726.107100  Gnorm:      0.000563  CPU: 1236.936
  Cycle:    404 Energy:     -7726.107107  Gnorm:      0.000522  CPU: 1239.788
  Cycle:    405 Energy:     -7726.107116  Gnorm:      0.000480  CPU: 1242.638
  Cycle:    406 Energy:     -7726.107126  Gnorm:      0.000484  CPU: 1245.489
  Cycle:    407 Energy:     -7726.107137  Gnorm:      0.000508  CPU: 1248.341
  Cycle:    408 Energy:     -7726.107147  Gnorm:      0.000549  CPU: 1251.192
  Cycle:    409 Energy:     -7726.107157  Gnorm:      0.000629  CPU: 1254.041
  Cycle:    410 Energy:     -7726.107170  Gnorm:      0.000727  CPU: 1256.892
  ** Hessian calculated **
  Cycle:    411 Energy:     -7726.107174  Gnorm:      0.000668  CPU: 1261.430
  Cycle:    412 Energy:     -7726.107179  Gnorm:      0.000630  CPU: 1264.281
  Cycle:    413 Energy:     -7726.107184  Gnorm:      0.000594  CPU: 1267.131
  Cycle:    414 Energy:     -7726.107191  Gnorm:      0.000547  CPU: 1269.982
  Cycle:    415 Energy:     -7726.107200  Gnorm:      0.000495  CPU: 1272.832
  Cycle:    416 Energy:     -7726.107210  Gnorm:      0.000488  CPU: 1275.682
  Cycle:    417 Energy:     -7726.107221  Gnorm:      0.000488  CPU: 1278.535
  Cycle:    418 Energy:     -7726.107231  Gnorm:      0.000524  CPU: 1281.385
  Cycle:    419 Energy:     -7726.107242  Gnorm:      0.000615  CPU: 1284.238
  Cycle:    420 Energy:     -7726.107256  Gnorm:      0.000691  CPU: 1287.089
  ** Hessian calculated **
  Cycle:    421 Energy:     -7726.107261  Gnorm:      0.000640  CPU: 1291.627
  Cycle:    422 Energy:     -7726.107265  Gnorm:      0.000605  CPU: 1294.477
  Cycle:    423 Energy:     -7726.107271  Gnorm:      0.000569  CPU: 1297.331
  Cycle:    424 Energy:     -7726.107278  Gnorm:      0.000527  CPU: 1300.182
  Cycle:    425 Energy:     -7726.107287  Gnorm:      0.000481  CPU: 1303.032
  Cycle:    426 Energy:     -7726.107297  Gnorm:      0.000470  CPU: 1305.883
  Cycle:    427 Energy:     -7726.107307  Gnorm:      0.000512  CPU: 1308.736
  Cycle:    428 Energy:     -7726.107318  Gnorm:      0.000536  CPU: 1311.586
  Cycle:    429 Energy:     -7726.107329  Gnorm:      0.000613  CPU: 1314.437
  Cycle:    430 Energy:     -7726.107341  Gnorm:      0.000732  CPU: 1317.288
  ** Hessian calculated **
  Cycle:    431 Energy:     -7726.107346  Gnorm:      0.000660  CPU: 1321.826
  Cycle:    432 Energy:     -7726.107350  Gnorm:      0.000623  CPU: 1324.676
  Cycle:    433 Energy:     -7726.107355  Gnorm:      0.000587  CPU: 1327.527
  Cycle:    434 Energy:     -7726.107362  Gnorm:      0.000544  CPU: 1330.383
  Cycle:    435 Energy:     -7726.107371  Gnorm:      0.000496  CPU: 1333.232
  Cycle:    436 Energy:     -7726.107381  Gnorm:      0.000496  CPU: 1336.082
  Cycle:    437 Energy:     -7726.107392  Gnorm:      0.000495  CPU: 1338.935
  Cycle:    438 Energy:     -7726.107402  Gnorm:      0.000538  CPU: 1341.785
  Cycle:    439 Energy:     -7726.107414  Gnorm:      0.000620  CPU: 1344.635
  Cycle:    440 Energy:     -7726.107428  Gnorm:      0.000702  CPU: 1347.486
  ** Hessian calculated **
  Cycle:    441 Energy:     -7726.107433  Gnorm:      0.000650  CPU: 1352.029
  Cycle:    442 Energy:     -7726.107437  Gnorm:      0.000612  CPU: 1354.880
  Cycle:    443 Energy:     -7726.107443  Gnorm:      0.000572  CPU: 1357.731
  Cycle:    444 Energy:     -7726.107450  Gnorm:      0.000533  CPU: 1360.581
  Cycle:    445 Energy:     -7726.107460  Gnorm:      0.000483  CPU: 1363.431
  Cycle:    446 Energy:     -7726.107470  Gnorm:      0.000477  CPU: 1366.281
  Cycle:    447 Energy:     -7726.107480  Gnorm:      0.000523  CPU: 1369.135
  Cycle:    448 Energy:     -7726.107490  Gnorm:      0.000551  CPU: 1371.984
  Cycle:    449 Energy:     -7726.107500  Gnorm:      0.000627  CPU: 1374.835
  Cycle:    450 Energy:     -7726.107513  Gnorm:      0.000719  CPU: 1377.685
  ** Hessian calculated **
  Cycle:    451 Energy:     -7726.107517  Gnorm:      0.000669  CPU: 1382.222
  Cycle:    452 Energy:     -7726.107521  Gnorm:      0.000636  CPU: 1385.072
  Cycle:    453 Energy:     -7726.107526  Gnorm:      0.000597  CPU: 1387.922
  Cycle:    454 Energy:     -7726.107533  Gnorm:      0.000552  CPU: 1390.772
  Cycle:    455 Energy:     -7726.107543  Gnorm:      0.000498  CPU: 1393.623
  Cycle:    456 Energy:     -7726.107552  Gnorm:      0.000482  CPU: 1396.472
  Cycle:    457 Energy:     -7726.107563  Gnorm:      0.000513  CPU: 1399.325
  Cycle:    458 Energy:     -7726.107575  Gnorm:      0.000522  CPU: 1402.176
  Cycle:    459 Energy:     -7726.107586  Gnorm:      0.000601  CPU: 1405.026
  Cycle:    460 Energy:     -7726.107599  Gnorm:      0.000697  CPU: 1407.876
  ** Hessian calculated **
  Cycle:    461 Energy:     -7726.107604  Gnorm:      0.000638  CPU: 1412.414
  Cycle:    462 Energy:     -7726.107608  Gnorm:      0.000600  CPU: 1415.265
  Cycle:    463 Energy:     -7726.107614  Gnorm:      0.000565  CPU: 1418.115
  Cycle:    464 Energy:     -7726.107621  Gnorm:      0.000528  CPU: 1420.966
  Cycle:    465 Energy:     -7726.107630  Gnorm:      0.000483  CPU: 1423.815
  Cycle:    466 Energy:     -7726.107640  Gnorm:      0.000486  CPU: 1426.666
  Cycle:    467 Energy:     -7726.107650  Gnorm:      0.000511  CPU: 1429.519
  Cycle:    468 Energy:     -7726.107660  Gnorm:      0.000563  CPU: 1432.369
  Cycle:    469 Energy:     -7726.107671  Gnorm:      0.000651  CPU: 1435.218
  Cycle:    470 Energy:     -7726.107684  Gnorm:      0.000733  CPU: 1438.069
  ** Hessian calculated **
  Cycle:    471 Energy:     -7726.107689  Gnorm:      0.000680  CPU: 1442.607
  Cycle:    472 Energy:     -7726.107693  Gnorm:      0.000646  CPU: 1445.456
  Cycle:    473 Energy:     -7726.107698  Gnorm:      0.000604  CPU: 1448.307
  Cycle:    474 Energy:     -7726.107705  Gnorm:      0.000560  CPU: 1451.158
  Cycle:    475 Energy:     -7726.107715  Gnorm:      0.000501  CPU: 1454.007
  Cycle:    476 Energy:     -7726.107725  Gnorm:      0.000481  CPU: 1456.857
  Cycle:    477 Energy:     -7726.107735  Gnorm:      0.000497  CPU: 1459.710
  Cycle:    478 Energy:     -7726.107746  Gnorm:      0.000522  CPU: 1462.560
  Cycle:    479 Energy:     -7726.107757  Gnorm:      0.000604  CPU: 1465.410
  Cycle:    480 Energy:     -7726.107770  Gnorm:      0.000688  CPU: 1468.263
  ** Hessian calculated **
  Cycle:    481 Energy:     -7726.107775  Gnorm:      0.000639  CPU: 1472.805
  Cycle:    482 Energy:     -7726.107779  Gnorm:      0.000605  CPU: 1475.655
  Cycle:    483 Energy:     -7726.107784  Gnorm:      0.000569  CPU: 1478.506
  Cycle:    484 Energy:     -7726.107791  Gnorm:      0.000529  CPU: 1481.356
  Cycle:    485 Energy:     -7726.107801  Gnorm:      0.000482  CPU: 1484.205
  Cycle:    486 Energy:     -7726.107811  Gnorm:      0.000478  CPU: 1487.056
  Cycle:    487 Energy:     -7726.107821  Gnorm:      0.000526  CPU: 1489.908
  Cycle:    488 Energy:     -7726.107832  Gnorm:      0.000552  CPU: 1492.759
  Cycle:    489 Energy:     -7726.107843  Gnorm:      0.000637  CPU: 1495.609
  Cycle:    490 Energy:     -7726.107856  Gnorm:      0.000739  CPU: 1498.461
  ** Hessian calculated **
  Cycle:    491 Energy:     -7726.107861  Gnorm:      0.000677  CPU: 1503.001
  Cycle:    492 Energy:     -7726.107865  Gnorm:      0.000640  CPU: 1505.852
  Cycle:    493 Energy:     -7726.107870  Gnorm:      0.000602  CPU: 1508.703
  Cycle:    494 Energy:     -7726.107877  Gnorm:      0.000555  CPU: 1511.553
  Cycle:    495 Energy:     -7726.107886  Gnorm:      0.000501  CPU: 1514.404
  Cycle:    496 Energy:     -7726.107896  Gnorm:      0.000496  CPU: 1517.253
  Cycle:    497 Energy:     -7726.107907  Gnorm:      0.000493  CPU: 1520.106
  Cycle:    498 Energy:     -7726.107917  Gnorm:      0.000532  CPU: 1522.956
  Cycle:    499 Energy:     -7726.107929  Gnorm:      0.000619  CPU: 1525.806
  Cycle:    500 Energy:     -7726.107942  Gnorm:      0.000692  CPU: 1528.657
  ** Hessian calculated **
  Cycle:    501 Energy:     -7726.107947  Gnorm:      0.000643  CPU: 1533.195
  Cycle:    502 Energy:     -7726.107951  Gnorm:      0.000608  CPU: 1536.046
  Cycle:    503 Energy:     -7726.107956  Gnorm:      0.000571  CPU: 1538.897
  Cycle:    504 Energy:     -7726.107963  Gnorm:      0.000533  CPU: 1541.747
  Cycle:    505 Energy:     -7726.107973  Gnorm:      0.000485  CPU: 1544.597
  Cycle:    506 Energy:     -7726.107983  Gnorm:      0.000475  CPU: 1547.449
  Cycle:    507 Energy:     -7726.107993  Gnorm:      0.000516  CPU: 1550.301
  Cycle:    508 Energy:     -7726.108004  Gnorm:      0.000549  CPU: 1553.151
  Cycle:    509 Energy:     -7726.108015  Gnorm:      0.000634  CPU: 1556.001
  Cycle:    510 Energy:     -7726.108028  Gnorm:      0.000738  CPU: 1558.852
  ** Hessian calculated **
  Cycle:    511 Energy:     -7726.108033  Gnorm:      0.000680  CPU: 1563.391
  Cycle:    512 Energy:     -7726.108037  Gnorm:      0.000642  CPU: 1566.241
  Cycle:    513 Energy:     -7726.108042  Gnorm:      0.000605  CPU: 1569.092
  Cycle:    514 Energy:     -7726.108049  Gnorm:      0.000555  CPU: 1571.943
  Cycle:    515 Energy:     -7726.108059  Gnorm:      0.000500  CPU: 1574.793
  Cycle:    516 Energy:     -7726.108069  Gnorm:      0.000494  CPU: 1577.645
  Cycle:    517 Energy:     -7726.108080  Gnorm:      0.000499  CPU: 1580.497
  Cycle:    518 Energy:     -7726.108090  Gnorm:      0.000530  CPU: 1583.348
  Cycle:    519 Energy:     -7726.108101  Gnorm:      0.000606  CPU: 1586.199
  Cycle:    520 Energy:     -7726.108115  Gnorm:      0.000698  CPU: 1589.054
  ** Hessian calculated **
  Cycle:    521 Energy:     -7726.108119  Gnorm:      0.000644  CPU: 1593.593
  Cycle:    522 Energy:     -7726.108124  Gnorm:      0.000606  CPU: 1596.442
  Cycle:    523 Energy:     -7726.108129  Gnorm:      0.000572  CPU: 1599.292
  Cycle:    524 Energy:     -7726.108136  Gnorm:      0.000529  CPU: 1602.143
  Cycle:    525 Energy:     -7726.108146  Gnorm:      0.000486  CPU: 1604.993
  Cycle:    526 Energy:     -7726.108155  Gnorm:      0.000485  CPU: 1607.845
  Cycle:    527 Energy:     -7726.108166  Gnorm:      0.000513  CPU: 1610.697
  Cycle:    528 Energy:     -7726.108176  Gnorm:      0.000555  CPU: 1613.546
  Cycle:    529 Energy:     -7726.108187  Gnorm:      0.000641  CPU: 1616.397
  Cycle:    530 Energy:     -7726.108201  Gnorm:      0.000742  CPU: 1619.247
  ** Hessian calculated **
  Cycle:    531 Energy:     -7726.108206  Gnorm:      0.000683  CPU: 1623.785
  Cycle:    532 Energy:     -7726.108210  Gnorm:      0.000646  CPU: 1626.634
  Cycle:    533 Energy:     -7726.108215  Gnorm:      0.000607  CPU: 1629.485
  Cycle:    534 Energy:     -7726.108222  Gnorm:      0.000557  CPU: 1632.335
  Cycle:    535 Energy:     -7726.108232  Gnorm:      0.000502  CPU: 1635.185
  Cycle:    536 Energy:     -7726.108242  Gnorm:      0.000493  CPU: 1638.037
  Cycle:    537 Energy:     -7726.108253  Gnorm:      0.000509  CPU: 1640.888
  Cycle:    538 Energy:     -7726.108263  Gnorm:      0.000529  CPU: 1643.738
  Cycle:    539 Energy:     -7726.108274  Gnorm:      0.000608  CPU: 1646.588
  Cycle:    540 Energy:     -7726.108287  Gnorm:      0.000699  CPU: 1649.439
  ** Hessian calculated **
  Cycle:    541 Energy:     -7726.108292  Gnorm:      0.000640  CPU: 1653.977
  Cycle:    542 Energy:     -7726.108296  Gnorm:      0.000602  CPU: 1656.826
  Cycle:    543 Energy:     -7726.108301  Gnorm:      0.000566  CPU: 1659.677
  Cycle:    544 Energy:     -7726.108308  Gnorm:      0.000531  CPU: 1662.527
  Cycle:    545 Energy:     -7726.108318  Gnorm:      0.000490  CPU: 1665.377
  Cycle:    546 Energy:     -7726.108328  Gnorm:      0.000493  CPU: 1668.230
  Cycle:    547 Energy:     -7726.108339  Gnorm:      0.000510  CPU: 1671.080
  Cycle:    548 Energy:     -7726.108348  Gnorm:      0.000564  CPU: 1673.930
  Cycle:    549 Energy:     -7726.108360  Gnorm:      0.000662  CPU: 1676.781
  Cycle:    550 Energy:     -7726.108373  Gnorm:      0.000744  CPU: 1679.632
  ** Hessian calculated **
  Cycle:    551 Energy:     -7726.108378  Gnorm:      0.000693  CPU: 1684.171
  Cycle:    552 Energy:     -7726.108383  Gnorm:      0.000655  CPU: 1687.021
  Cycle:    553 Energy:     -7726.108388  Gnorm:      0.000612  CPU: 1689.872
  Cycle:    554 Energy:     -7726.108395  Gnorm:      0.000567  CPU: 1692.722
  Cycle:    555 Energy:     -7726.108405  Gnorm:      0.000506  CPU: 1695.572
  Cycle:    556 Energy:     -7726.108415  Gnorm:      0.000493  CPU: 1698.425
  Cycle:    557 Energy:     -7726.108426  Gnorm:      0.000497  CPU: 1701.275
  Cycle:    558 Energy:     -7726.108436  Gnorm:      0.000522  CPU: 1704.126
  Cycle:    559 Energy:     -7726.108446  Gnorm:      0.000600  CPU: 1706.976
  Cycle:    560 Energy:     -7726.108459  Gnorm:      0.000694  CPU: 1709.832
  ** Hessian calculated **
  Cycle:    561 Energy:     -7726.108464  Gnorm:      0.000637  CPU: 1714.371
  Cycle:    562 Energy:     -7726.108468  Gnorm:      0.000600  CPU: 1717.221
  Cycle:    563 Energy:     -7726.108473  Gnorm:      0.000566  CPU: 1720.073
  Cycle:    564 Energy:     -7726.108480  Gnorm:      0.000529  CPU: 1722.922
[...]
     59 Si    c      -0.000005      0.000076     -0.001125      0.000000
     60 Si    c      -0.000185     -0.000730      0.001759      0.000000
     61 O2    c       0.000330     -0.000591      0.000428      0.000000
     62 O2    c      -0.000177      0.000027     -0.000202      0.000000
     63 O2    c       0.000098      0.000251      0.000023      0.000000
     64 O2    c      -0.000160     -0.000112     -0.000184      0.000000
     65 O2    c       0.000045      0.000019     -0.000150      0.000000
     66 O3    c       0.000230      0.001012     -0.000721      0.000000
     67 O2    c      -0.000101     -0.000218     -0.000267      0.000000
     68 O2    c       0.000077      0.000305     -0.000003      0.000000
     69 O2    c      -0.000058     -0.000127     -0.000340      0.000000
     70 O2    c      -0.000096      0.000074      0.000441      0.000000
     71 O3    c       0.000859      0.000559     -0.001764      0.000000
     72 O2    c      -0.000014     -0.000041      0.000208      0.000000
     73 O3    c      -0.000154     -0.000263      0.000873      0.000000
     74 O2    c       0.000122      0.000053      0.000060      0.000000
     75 O2    c      -0.000093     -0.000182     -0.000012      0.000000
     76 O2    c       0.000027     -0.000004     -0.000540      0.000000
     77 O2    c      -0.000324      0.000047     -0.000652      0.000000
     78 O2    c       0.000036      0.000031     -0.000280      0.000000
     79 O2    c       0.000127      0.000157      0.000077      0.000000
     80 O2    c       0.000046     -0.000242     -0.000050      0.000000
     81 O2    c       0.000092      0.000130      0.000085      0.000000
     82 O2    c      -0.000064     -0.000050      0.000073      0.000000
     83 O2    c       0.000108     -0.000093     -0.000019      0.000000
     84 O3    c      -0.000214      0.000503     -0.000070      0.000000
     85 O2    c      -0.000135      0.000023     -0.000309      0.000000
     86 O2    c       0.000129     -0.000547     -0.000898      0.000000
     87 O2    c       0.000090      0.000122     -0.000111      0.000000
     88 O2    c      -0.000139     -0.000017     -0.000110      0.000000
     89 O2    c      -0.000119     -0.000018      0.000013      0.000000
     90 O2    c      -0.000043     -0.000127     -0.000426      0.000000
     91 O2    c      -0.000405      0.000158      0.001776      0.000000
     92 O2    c       0.000012      0.000099     -0.000188      0.000000
     93 O2    c      -0.000088     -0.000351     -0.002453      0.000000
     94 O2    c      -0.000015      0.000048     -0.000469      0.000000
     95 O3    c       0.000136      0.000274      0.001356      0.000000
     96 O2    c      -0.000146     -0.000062      0.000258      0.000000
     97 O2    c      -0.000829      0.000609     -0.000289      0.000000
     98 O2    c      -0.000248     -0.000038      0.000125      0.000000
     99 O2    c       0.000270      0.000043     -0.000104      0.000000
    100 O2    c      -0.000234      0.000144     -0.000295      0.000000
    101 O2    c       0.000045      0.000053      0.000145      0.000000
    102 O3    c      -0.000721      0.000016     -0.000450      0.000000
    103 O2    c      -0.000253     -0.000184     -0.000405      0.000000
    104 O2    c      -0.000158     -0.000134     -0.000388      0.000000
    105 O2    c       0.000065      0.000158      0.000165      0.000000
    106 O2    c      -0.000078      0.000071      0.000064      0.000000
    107 O2    c       0.000003      0.000164     -0.000178      0.000000
    108 O2    c      -0.000148     -0.000741     -0.001059      0.000000
    109 O2    c      -0.000179     -0.000136     -0.000447      0.000000
    110 O2    c      -0.000003      0.000069     -0.000538      0.000000
    111 O2    c       0.000037     -0.000019     -0.000366      0.000000
    112 O2    c       0.000009     -0.000018      0.000041      0.000000
    113 O1    c      -0.002026     -0.001706      0.002849      0.000000
    114 O2    c      -0.000095      0.000003      0.000152      0.000000
    115 O2    c      -0.000189      0.000030      0.000007      0.000000
    116 O2    c      -0.000196     -0.000044     -0.000086      0.000000
    117 O2    c       0.000107      0.000040      0.000239      0.000000
    118 O2    c      -0.000188     -0.000108     -0.000095      0.000000
    119 O2    c       0.000017      0.000080      0.000023      0.000000
    120 O2    c      -0.000120      0.000154     -0.000351      0.000000
    121 O2    c      -0.000081     -0.000045     -0.000161      0.000000
    122 O2    c      -0.000239      0.000041     -0.000830      0.000000
    123 O2    c      -0.000025      0.000230     -0.000406      0.000000
    124 O2    c      -0.000045      0.000146     -0.000269      0.000000
    125 O2    c      -0.000143      0.000044     -0.000131      0.000000
    126 O2    c      -0.000385     -0.000121      0.000029      0.000000
    127 O3    c       0.000729     -0.001284     -0.001911      0.000000
    128 O2    c      -0.000169     -0.000052     -0.000065      0.000000
    129 O2    c       0.000026      0.000064     -0.000218      0.000000
    130 O2    c       0.000166     -0.000127     -0.000225      0.000000
    131 O2    c      -0.000046      0.000132     -0.000268      0.000000
    132 O2    c      -0.000272     -0.000027     -0.000278      0.000000
    133 O2    c      -0.000201     -0.000422     -0.000074      0.000000
    134 O2    c      -0.000211      0.000015     -0.000029      0.000000
    135 O2    c       0.000058      0.000150      0.000076      0.000000
    136 O2    c       0.000044     -0.000167     -0.000013      0.000000
    137 O2    c      -0.000128      0.000136      0.000059      0.000000
    138 O3    c      -0.000699     -0.000056      0.001015      0.000000
    139 O3    c       0.000231      0.001812     -0.001228      0.000000
    140 O2    c      -0.000056     -0.000040     -0.000129      0.000000
    141 O2    c       0.000119     -0.000038     -0.000204      0.000000
    142 O2    c      -0.000083      0.000047     -0.000352      0.000000
    143 O2    c       0.000019      0.000095     -0.000239      0.000000
    144 O2    c      -0.000099     -0.000323     -0.000008      0.000000
    145 O2    c      -0.000273     -0.000116     -0.000142      0.000000
    146 O2    c       0.000023      0.000105      0.000145      0.000000
    147 O2    c       0.000050      0.000055      0.000047      0.000000
    148 O2    c      -0.000075     -0.000080      0.000147      0.000000
    149 O2    c      -0.000081      0.000003      0.000146      0.000000
    150 O3    c      -0.000484     -0.001155      0.001420      0.000000
    151 O2    c      -0.000102     -0.000016     -0.000050      0.000000
    152 O2    c      -0.000055     -0.000024     -0.000419      0.000000
    153 O2    c      -0.000009      0.000018      0.000144      0.000000
    154 O2    c      -0.000163     -0.000084     -0.000368      0.000000
    155 O2    c       0.000095      0.000022      0.000052      0.000000
    156 O2    c      -0.000316     -0.000382     -0.001254      0.000000
    157 O2    c      -0.000066      0.000137      0.000147      0.000000
    158 O2    c      -0.000473      0.000321     -0.000845      0.000000
    159 O2    c      -0.000077      0.000114     -0.000460      0.000000
    160 O2    c       0.000034      0.000097     -0.000381      0.000000
    161 O2    c      -0.000011      0.000042     -0.000152      0.000000
    162 O2    c      -0.000235     -0.000068     -0.000224      0.000000
    163 O2    c      -0.000142      0.000596      0.000402      0.000000
    164 O2    c      -0.000164     -0.000074      0.000163      0.000000
    165 O2    c       0.000018      0.000172      0.000177      0.000000
    166 O2    c      -0.000005     -0.000035     -0.000260      0.000000
    167 O2    c      -0.000101      0.000062     -0.000096      0.000000
    168 O2    c      -0.000107     -0.000106     -0.000077      0.000000
    169 O2    c      -0.000122     -0.000187     -0.000089      0.000000
    170 O2    c       0.000071      0.000049     -0.000469      0.000000
    171 O2    c       0.000188      0.000025     -0.000181      0.000000
    172 O2    c       0.000057     -0.000094     -0.000226      0.000000
    173 O2    c      -0.000070     -0.000117     -0.000225      0.000000
    174 O2    c      -0.000144      0.000243     -0.000076      0.000000
    175 O2    c      -0.000036     -0.000138      0.000027      0.000000
    176 O2    c       0.000001     -0.000029      0.000265      0.000000
    177 O2    c      -0.000028      0.000053      0.000663      0.000000
    178 O2    c      -0.000006      0.000074     -0.000562      0.000000
    179 O2    c       0.000053     -0.000078     -0.000638      0.000000
    180 O2    c       0.000003     -0.000149     -0.000359      0.000000
    181 F     c      -0.000089     -0.000034     -0.000166      0.000000
    182 F     c       0.000016      0.000020      0.000007      0.000000
    183 F     c      -0.000163      0.000157     -0.000096      0.000000
    184 F     c       0.000044      0.000024     -0.000024      0.000000
    185 F     c      -0.001549     -0.000797      0.003466      0.000000
    186 F     c      -0.000081      0.000030     -0.000061      0.000000
    187 O2    s       0.000435     -0.000079      0.000066      0.000000
    188 O2    s      -0.000320     -0.000248     -0.000256      0.000000
    189 O2    s      -0.000133      0.000044      0.000130      0.000000
    190 O2    s       0.000010      0.000040     -0.000276      0.000000
    191 O2    s      -0.000253     -0.000179     -0.000045      0.000000
    192 O3    s      -0.000405      0.000309      0.000252      0.000000
    193 O2    s      -0.000152     -0.000235      0.000006      0.000000
    194 O2    s       0.000059      0.000297     -0.000153      0.000000
    195 O2    s      -0.000177      0.000163     -0.000735      0.000000
    196 O2    s      -0.000085      0.000043      0.000409      0.000000
    197 O3    s      -0.001588     -0.000275      0.001302      0.000000
    198 O2    s      -0.000138     -0.000013      0.000046      0.000000
    199 O3    s       0.000289      0.000159      0.000167      0.000000
    200 O2    s       0.000137      0.000109      0.000132      0.000000
    201 O2    s      -0.000231     -0.000135      0.000307      0.000000
    202 O2    s      -0.000033      0.000010     -0.000645      0.000000
    203 O2    s      -0.000556      0.000052     -0.000923      0.000000
    204 O2    s       0.000014     -0.000189     -0.000111      0.000000
    205 O2    s       0.000022      0.000036     -0.000252      0.000000
    206 O2    s      -0.000067     -0.000341      0.000092      0.000000
    207 O2    s       0.000061      0.000155     -0.000015      0.000000
    208 O2    s       0.000008     -0.000069     -0.000064      0.000000
    209 O2    s       0.000069     -0.000023     -0.000342      0.000000
    210 O3    s      -0.000713      0.000912     -0.000914      0.000000
    211 O2    s      -0.000069     -0.000082     -0.000175      0.000000
    212 O2    s       0.000209     -0.000922     -0.000677      0.000000
    213 O2    s       0.000261      0.000208     -0.000083      0.000000
    214 O2    s      -0.000039      0.000302     -0.000416      0.000000
    215 O2    s      -0.000152      0.000045     -0.000207      0.000000
    216 O2    s       0.000320     -0.000336     -0.000085      0.000000
    217 O2    s      -0.000291     -0.000223      0.000966      0.000000
    218 O2    s       0.000014     -0.000223      0.000347      0.000000
    219 O2    s       0.000094     -0.000198     -0.001687      0.000000
    220 O2    s       0.000074      0.000007      0.000073      0.000000
    221 O3    s      -0.000583     -0.000120     -0.000450      0.000000
    222 O2    s      -0.000141     -0.000241      0.000423      0.000000
    223 O2    s      -0.000813      0.001308      0.000651      0.000000
    224 O2    s      -0.000170      0.000055      0.000189      0.000000
    225 O2    s       0.000355      0.000136      0.000227      0.000000
    226 O2    s      -0.000298      0.000264     -0.000484      0.000000
    227 O2    s       0.000013     -0.000140     -0.000042      0.000000
    228 O3    s      -0.000241      0.000285     -0.000936      0.000000
    229 O2    s      -0.000324     -0.000104     -0.000033      0.000000
    230 O2    s      -0.000098      0.000102     -0.000335      0.000000
    231 O2    s       0.000039      0.000076      0.000004      0.000000
    232 O2    s      -0.000199      0.000074     -0.000569      0.000000
    233 O2    s      -0.000098     -0.000087     -0.000412      0.000000
    234 O2    s       0.000131     -0.000691     -0.001556      0.000000
    235 O2    s      -0.000250     -0.000085     -0.000496      0.000000
    236 O2    s      -0.000003      0.000107     -0.000394      0.000000
    237 O2    s      -0.000103     -0.000089      0.000336      0.000000
    238 O2    s       0.000047      0.000208      0.000256      0.000000
    239 O1    s       0.001029      0.000855     -0.002578      0.000000
    240 O2    s      -0.000150     -0.000004      0.000133      0.000000
    241 O2    s       0.000227      0.000138     -0.000031      0.000000
    242 O2    s      -0.000260     -0.000078      0.000042      0.000000
    243 O2    s      -0.000077     -0.000005      0.000233      0.000000
    244 O2    s      -0.000086      0.000040     -0.000335      0.000000
    245 O2    s       0.000022      0.000042     -0.000269      0.000000
    246 O2    s      -0.000188     -0.000406     -0.000790      0.000000
    247 O2    s      -0.000208      0.000026     -0.000151      0.000000
    248 O2    s      -0.000235     -0.000117     -0.000586      0.000000
    249 O2    s      -0.000147      0.000095     -0.000372      0.000000
    250 O2    s      -0.000060      0.000161     -0.000185      0.000000
    251 O2    s      -0.000069      0.000038     -0.000038      0.000000
    252 O2    s      -0.000798     -0.000255      0.000009      0.000000
    253 O3    s      -0.001060      0.000801     -0.000307      0.000000
    254 O2    s      -0.000187     -0.000071      0.000045      0.000000
    255 O2    s      -0.000046      0.000111     -0.000244      0.000000
    256 O2    s       0.000016     -0.000075     -0.000317      0.000000
    257 O2    s      -0.000076     -0.000022     -0.000521      0.000000
    258 O2    s      -0.000393     -0.000092     -0.000537      0.000000
    259 O2    s      -0.000156     -0.000251     -0.000143      0.000000
    260 O2    s       0.000035      0.000328     -0.000308      0.000000
    261 O2    s       0.000042      0.000143     -0.000084      0.000000
    262 O2    s       0.000172     -0.000121      0.000129      0.000000
    263 O2    s      -0.000366     -0.000026     -0.000098      0.000000
    264 O3    s      -0.000677     -0.000019     -0.002664      0.000000
    265 O3    s      -0.001154     -0.002008     -0.000621      0.000000
    266 O2    s      -0.000012     -0.000215      0.000033      0.000000
    267 O2    s       0.000234      0.000066      0.000110      0.000000
    268 O2    s      -0.000070      0.000107     -0.000342      0.000000
    269 O2    s      -0.000079      0.000011     -0.000264      0.000000
    270 O2    s      -0.000056     -0.000323     -0.000305      0.000000
    271 O2    s      -0.000400     -0.000188     -0.000336      0.000000
    272 O2    s      -0.000240     -0.000150     -0.000254      0.000000
    273 O2    s      -0.000047      0.000145     -0.000274      0.000000
    274 O2    s      -0.000124     -0.000033     -0.000082      0.000000
    275 O2    s      -0.000152     -0.000133     -0.000178      0.000000
    276 O3    s      -0.000175      0.000491     -0.003610      0.000000
    277 O2    s      -0.000101     -0.000101      0.000005      0.000000
    278 O2    s      -0.000227     -0.000085     -0.000382      0.000000
    279 O2    s      -0.000045      0.000147      0.000150      0.000000
    280 O2    s      -0.000114     -0.000130     -0.000205      0.000000
    281 O2    s       0.000028      0.000081      0.000209      0.000000
    282 O2    s       0.000650     -0.000515     -0.000643      0.000000
    283 O2    s      -0.000139     -0.000124      0.000050      0.000000
    284 O2    s       0.000068      0.000337     -0.000847      0.000000
    285 O2    s       0.000087      0.000109     -0.000773      0.000000
    286 O2    s      -0.000180      0.000218     -0.000597      0.000000
    287 O2    s      -0.000063      0.000078     -0.000262      0.000000
    288 O2    s      -0.000336     -0.000092      0.000229      0.000000
    289 O2    s      -0.000292      0.000322     -0.000018      0.000000
    290 O2    s      -0.000388     -0.000211      0.000360      0.000000
    291 O2    s       0.000027      0.000096      0.000165      0.000000
    292 O2    s      -0.000134     -0.000015     -0.000399      0.000000
    293 O2    s      -0.000025      0.000033     -0.000304      0.000000
    294 O2    s      -0.000068      0.000161     -0.000864      0.000000
    295 O2    s       0.000100     -0.000121     -0.000133      0.000000
    296 O2    s      -0.000529     -0.000072     -0.001011      0.000000
    297 O2    s       0.000208     -0.000024     -0.000164      0.000000
    298 O2    s       0.000032     -0.000257     -0.000347      0.000000
    299 O2    s      -0.000181      0.000014     -0.000110      0.000000
    300 O2    s      -0.000075     -0.000451     -0.000172      0.000000
    301 O2    s      -0.000240     -0.000041      0.000975      0.000000
    302 O2    s      -0.000072      0.000075      0.000227      0.000000
    303 O2    s      -0.000100      0.000036      0.000497      0.000000
    304 O2    s       0.000072      0.000163     -0.000352      0.000000
    305 O2    s      -0.000452      0.000352     -0.001083      0.000000
    306 O2    s      -0.000151     -0.000101     -0.000109      0.000000
    307 F     s      -0.000109     -0.000096     -0.000055      0.000000
    308 F     s       0.000044      0.000028      0.000012      0.000000
    309 F     s      -0.000280      0.000363     -0.000316      0.000000
    310 F     s       0.000031     -0.000021     -0.000042      0.000000
    311 F     s      -0.000200     -0.001095      0.009597      0.000000
    312 F     s      -0.000050     -0.000008     -0.000052      0.000000
--------------------------------------------------------------------------------
  Maximum abs         0.003202      0.002008      0.009597      0.000000
--------------------------------------------------------------------------------


  Time to end of optimisation =    3615.9219 seconds


  Peak dynamic memory used =      19.13 MB 


  Timing analysis for GULP :

--------------------------------------------------------------------------------
  Task / Subroutine                                          Time (Seconds)
--------------------------------------------------------------------------------
  Calculation of reciprocal space energy and derivatives         90.7591
  Calculation of real space energy and derivatives             3137.3709
  Calculation of three-body energy and derivatives              337.6701
  Calculation of matrix inversion                                44.3263
  Global summation overhead                                       0.0082
--------------------------------------------------------------------------------
  Total CPU time                                               3615.9219
--------------------------------------------------------------------------------


  Dump file written as out.res                                                 
  CIF file written as out.cif                                                 


  Job Finished at 12:34.31 28th October    2016                               

