********************************************************************************
*                       GENERAL UTILITY LATTICE PROGRAM                        *
*                                 Julian Gale                                  *
*                      Nanochemistry Research Institute                        *
*                           Department of Chemistry                            *
*                    Curtin University, Western Australia                      *
********************************************************************************
* Version = 4.2.0 * Last modified =  20th January 2014                         *
********************************************************************************
*  optimise     - perform optimisation run                                     *
*  conp         - constant pressure calculation                                *
*  qok          - running with non charge neutral cell is OK                   *
********************************************************************************

  Job Started  at 05:42.33 30th October    2016                               

  Number of CPUs =     1


  Total number of configurations input =   1

********************************************************************************
*  Input for Configuration =   1                                               *
********************************************************************************

  Formula = Ge3Si57O120F6                                               

  Number of irreducible atoms/shells =     312


  Total number atoms/shells =     312

  Dimensionality = 3               :  Bulk   


  Charge on solid   =  -6.000000 =>neutralising background added


  Cartesian lattice vectors (Angstroms) :

       11.931165    0.000000    0.000000
       -6.063595   10.404362    0.000000
       -0.037088   -0.284607   29.485205

  Cell parameters (Angstroms/Degrees):

  a =      11.9312    alpha =  90.4415
  b =      12.0423    beta  =  90.0721
  c =      29.4866    gamma = 120.2334

  Initial cell volume =        3660.180121 Angs**3

  Temperature of configuration =  0.000     K 

  Pressure of configuration =         0.000 GPa 

  Fractional coordinates of asymmetric unit :

--------------------------------------------------------------------------------
   No.  Atomic       x           y          z         Charge      Occupancy
        Label      (Frac)      (Frac)     (Frac)        (e)         (Frac)  
--------------------------------------------------------------------------------
      1 Ge    c    0.699600    0.375700    0.033890     4.00000    1.000000    
      2 Si    c    0.615792 *  0.324009 *  0.361921 *   4.00000    1.000000    
      3 Si    c    0.690272 *  0.306918 *  0.697033 *   4.00000    1.000000    
      4 Si    c    0.292634 *  0.619967 *  0.529759 *   4.00000    1.000000    
      5 Si    c    0.372508 *  0.672006 *  0.861424 *   4.00000    1.000000    
      6 Si    c    0.313873 *  0.701520 *  0.196075 *   4.00000    1.000000    
      7 Si    c    0.370252 *  0.698687 *  0.296499 *   4.00000    1.000000    
      8 Si    c    0.318548 *  0.622613 *  0.961887 *   4.00000    1.000000    
      9 Si    c    0.301820 *  0.679325 *  0.632149 *   4.00000    1.000000    
     10 Si    c    0.626940 *  0.299246 *  0.798038 *   4.00000    1.000000    
     11 Si    c    0.672352 *  0.381559 *  0.462295 *   4.00000    1.000000    
     12 Si    c    0.681793 *  0.316603 *  0.132188 *   4.00000    1.000000    
     13 Si    c    0.530697 *  0.420813 *  0.966561 *   4.00000    1.000000    
     14 Si    c    0.577736 *  0.108289 *  0.300417 *   4.00000    1.000000    
     15 Ge    c    0.906321 *  0.474788 *  0.629090 *   4.00000    1.000000    
     16 Si    c    0.462458 *  0.581719 *  0.462592 *   4.00000    1.000000    
     17 Si    c    0.419587 *  0.884347 *  0.796936 *   4.00000    1.000000    
     18 Si    c    0.103033 *  0.530719 *  0.128539 *   4.00000    1.000000    
     19 Si    c    0.408861 *  0.527575 *  0.361018 *   4.00000    1.000000    
     20 Si    c    0.101409 *  0.580136 *  0.025273 *   4.00000    1.000000    
     21 Si    c    0.478528 *  0.893192 *  0.695986 *   4.00000    1.000000    
     22 Si    c    0.580733 *  0.464694 *  0.864173 *   4.00000    1.000000    
     23 Si    c    0.872363 *  0.409201 *  0.529997 *   4.00000    1.000000    
     24 Si    c    0.523163 *  0.110069 *  0.199459 *   4.00000    1.000000    
     25 Si    c    0.298641 *  0.395357 *  0.849131 *   4.00000    1.000000    
     26 Si    c    0.594405 *  0.903307 *  0.182933 *   4.00000    1.000000    
     27 Si    c    0.086346 *  0.695690 *  0.516311 *   4.00000    1.000000    
     28 Si    c    0.691088 *  0.599650 *  0.347452 *   4.00000    1.000000    
     29 Si    c    0.408720 *  0.101094 *  0.681653 *   4.00000    1.000000    
     30 Si    c    0.887683 *  0.292063 *  0.010567 *   4.00000    1.000000    
     31 Si    c    0.392584 *  0.303928 *  0.476958 *   4.00000    1.000000    
     32 Si    c    0.887760 *  0.601654 *  0.142108 *   4.00000    1.000000    
     33 Si    c    0.699759 *  0.096658 *  0.812778 *   4.00000    1.000000    
     34 Si    c    0.598491 *  0.702226 *  0.977226 *   4.00000    1.000000    
     35 Si    c    0.101558 *  0.396668 *  0.650511 *   4.00000    1.000000    
     36 Si    c    0.295448 *  0.899801 *  0.313204 *   4.00000    1.000000    
     37 Si    c    0.250083 *  0.344444 *  0.949570 *   4.00000    1.000000    
     38 Si    c    0.653604 *  0.907826 *  0.283443 *   4.00000    1.000000    
     39 Si    c    0.087552 *  0.753502 *  0.618545 *   4.00000    1.000000    
     40 Si    c    0.742924 *  0.660457 *  0.448054 *   4.00000    1.000000    
     41 Si    c    0.346518 *  0.087049 *  0.781725 *   4.00000    1.000000    
     42 Si    c    0.898217 *  0.248535 *  0.113613 *   4.00000    1.000000    
     43 Si    c    0.333056 *  0.250603 *  0.376303 *   4.00000    1.000000    
     44 Si    c    0.896490 *  0.659779 *  0.039573 *   4.00000    1.000000    
     45 Si    c    0.757537 *  0.094136 *  0.712671 *   4.00000    1.000000    
     46 Si    c    0.653349 *  0.741978 *  0.876336 *   4.00000    1.000000    
     47 Si    c    0.079266 *  0.335399 *  0.547386 *   4.00000    1.000000    
     48 Si    c    0.242579 *  0.909078 *  0.212900 *   4.00000    1.000000    
     49 Si    c    0.974744 *  0.120997 *  0.965350 *   4.00000    1.000000    
     50 Si    c    0.871795 *  0.845729 *  0.297622 *   4.00000    1.000000    
     51 Si    c    0.162144 *  0.037698 *  0.630733 *   4.00000    1.000000    
     52 Si    c    0.023753 *  0.878393 *  0.464817 *   4.00000    1.000000    
     53 Si    c    0.127500 *  0.145915 *  0.797612 *   4.00000    1.000000    
     54 Si    c    0.842429 *  0.972384 *  0.131551 *   4.00000    1.000000    
     55 Si    c    0.116385 *  0.968750 *  0.363611 *   4.00000    1.000000    
     56 Si    c    0.846741 *  0.882985 *  0.030267 *   4.00000    1.000000    
     57 Si    c    0.038438 *  0.151570 *  0.697121 *   4.00000    1.000000    
     58 Ge    c    0.878246 *  0.022324 *  0.863038 *   4.00000    1.000000    
     59 Si    c    0.148520 *  0.123263 *  0.529973 *   4.00000    1.000000    
     60 Si    c    0.963106 *  0.850356 *  0.195858 *   4.00000    1.000000    
     61 O2    c    0.933497 *  0.011771 *  0.002908 *   0.87073    1.000000    
     62 O2    c    0.993200 *  0.924008 *  0.331043 *   0.87073    1.000000    
     63 O2    c    0.076297 *  0.073251 *  0.662403 *   0.87073    1.000000    
     64 O2    c    0.065800 *  0.999399 *  0.497931 *   0.87073    1.000000    
     65 O3    c    0.008140 *  0.060516 *  0.828999 *   1.33043    1.000000    
     66 O2    c    0.925302 *  0.936875 *  0.165525 *   0.87073    1.000000    
     67 O2    c    0.331821 *  0.575184 *  0.328358 *   0.87073    1.000000    
     68 O2    c    0.429117 *  0.768027 *  0.662470 *   0.87073    1.000000    
     69 O2    c    0.229045 *  0.657494 *  0.994223 *   0.87073    1.000000    
     70 O2    c    0.660418 *  0.418437 *  0.832180 *   0.87073    1.000000    
     71 O2    c    0.572974 *  0.238775 *  0.170231 *   0.87073    1.000000    
     72 O2    c    0.756705 *  0.338923 *  0.492644 *   0.87073    1.000000    
     73 O3    c    0.566469 *  0.339833 *  0.999108 *   1.33043    1.000000    
     74 O3    c    0.771540 *  0.425028 *  0.665670 *   1.33043    1.000000    
     75 O2    c    0.655528 *  0.236311 *  0.331702 *   0.87073    1.000000    
     76 O2    c    0.411829 *  0.656130 *  0.495651 *   0.87073    1.000000    
     77 O2    c    0.227942 *  0.581350 *  0.161734 *   0.87073    1.000000    
     78 O2    c    0.337901 *  0.757414 *  0.827951 *   0.87073    1.000000    
     79 O2    c    0.128121 *  0.218358 *  0.971393 *   0.87073    1.000000    
     80 O2    c    0.780604 *  0.908407 *  0.303415 *   0.87073    1.000000    
     81 O2    c    0.101999 *  0.886222 *  0.636604 *   0.87073    1.000000    
     82 O2    c    0.868256 *  0.788406 *  0.468489 *   0.87073    1.000000    
     83 O2    c    0.221832 *  0.087345 *  0.802605 *   0.87073    1.000000    
     84 O2    c    0.902632 *  0.126458 *  0.134546 *   0.87073    1.000000    
     85 O2    c    0.206222 *  0.122201 *  0.356893 *   0.87073    1.000000    
     86 O2    c    0.913500 *  0.796436 *  0.023644 *   0.87073    1.000000    
     87 O2    c    0.884513 *  0.095591 *  0.691908 *   0.87073    1.000000    
     88 O3    c    0.777474 *  0.860389 *  0.854078 *   1.33043    1.000000    
     89 O2    c    0.082924 *  0.212215 *  0.526390 *   0.87073    1.000000    
     90 O2    c    0.117940 *  0.911274 *  0.192104 *   0.87073    1.000000    
     91 O2    c    0.923145 *  0.857885 *  0.246973 *   0.87073    1.000000    
     92 O2    c    0.146069 *  0.074238 *  0.579998 *   0.87073    1.000000    
     93 O3    c    0.938169 *  0.052675 *  0.917394 *   1.33043    1.000000    
     94 O2    c    0.074738 *  0.130996 *  0.746828 *   0.87073    1.000000    
     95 O2    c    0.851983 *  0.924152 *  0.082343 *   0.87073    1.000000    
     96 O2    c    0.067409 *  0.932300 *  0.414674 *   0.87073    1.000000    
     97 O2    c    0.900864 *  0.200909 *  0.973010 *   0.87073    1.000000    
     98 O2    c    0.789065 *  0.694672 *  0.309026 *   0.87073    1.000000    
     99 O2    c    0.314450 *  0.108225 *  0.642906 *   0.87073    1.000000    
    100 O2    c    0.088579 *  0.792790 *  0.477828 *   0.87073    1.000000    
    101 O2    c    0.202217 *  0.297042 *  0.810434 *   0.87073    1.000000    
    102 O2    c    0.690742 *  0.902471 *  0.144474 *   0.87073    1.000000    
    103 O2    c    0.198425 *  0.899072 *  0.351972 *   0.87073    1.000000    
    104 O2    c    0.696069 *  0.804018 *  0.015321 *   0.87073    1.000000    
    105 O2    c    0.119329 *  0.303333 *  0.685701 *   0.87073    1.000000    
    106 O3    c    0.795912 *  0.101946 *  0.852294 *   1.33043    1.000000    
    107 O2    c    0.298272 *  0.206663 *  0.515349 *   0.87073    1.000000    
    108 O2    c    0.891880 *  0.701134 *  0.180558 *   0.87073    1.000000    
    109 O2    c    0.313390 *  0.642325 *  0.245779 *   0.87073    1.000000    
    110 O2    c    0.346870 *  0.675238 *  0.580157 *   0.87073    1.000000    
    111 O2    c    0.314383 *  0.675601 *  0.911417 *   0.87073    1.000000    
    112 O2    c    0.685769 *  0.356801 *  0.748584 *   0.87073    1.000000    
    113 O3    c    0.610854 *  0.302892 *  0.085156 *   1.33043    1.000000    
    114 O2    c    0.672036 *  0.325443 *  0.412074 *   0.87073    1.000000    
    115 O2    c    0.372847 *  0.336801 *  0.967367 *   0.87073    1.000000    
    116 O2    c    0.664971 *  0.039510 *  0.302994 *   0.87073    1.000000    
    117 O3    c    0.957111 *  0.641257 *  0.638240 *   1.33043    1.000000    
    118 O2    c    0.619364 *  0.669607 *  0.466270 *   0.87073    1.000000    
    119 O2    c    0.333609 *  0.954358 *  0.799861 *   0.87073    1.000000    
    120 O2    c    0.030406 *  0.375450 *  0.130629 *   0.87073    1.000000    
    121 O2    c    0.321317 *  0.371429 *  0.358183 *   0.87073    1.000000    
    122 O2    c    0.030535 *  0.664536 *  0.024330 *   0.87073    1.000000    
    123 O2    c    0.635414 *  0.960903 *  0.693204 *   0.87073    1.000000    
    124 O2    c    0.664077 *  0.619368 *  0.859967 *   0.87073    1.000000    
    125 O2    c    0.946806 *  0.325552 *  0.528963 *   0.87073    1.000000    
    126 O2    c    0.366247 *  0.040454 *  0.195320 *   0.87073    1.000000    
    127 O3    c    0.752497 *  0.282388 *  0.002087 *   1.33043    1.000000    
    128 O2    c    0.690784 *  0.466133 *  0.339507 *   0.87073    1.000000    
    129 O2    c    0.543363 *  0.233324 *  0.675746 *   0.87073    1.000000    
    130 O2    c    0.218832 *  0.691152 *  0.510005 *   0.87073    1.000000    
    131 O2    c    0.298173 *  0.527748 *  0.839512 *   0.87073    1.000000    
    132 O2    c    0.458087 *  0.770985 *  0.174213 *   0.87073    1.000000    
    133 O2    c    0.294500 *  0.765652 *  0.319344 *   0.87073    1.000000    
    134 O2    c    0.462919 *  0.701844 *  0.984428 *   0.87073    1.000000    
    135 O2    c    0.235520 *  0.535625 *  0.652552 *   0.87073    1.000000    
    136 O2    c    0.699757 *  0.229731 *  0.820346 *   0.87073    1.000000    
    137 O2    c    0.528904 *  0.308590 *  0.484791 *   0.87073    1.000000    
    138 O2    c    0.756559 *  0.466196 *  0.150620 *   0.87073    1.000000    
    139 O3    c    0.770920 *  0.545125 *  0.018348 *   1.33043    1.000000    
    140 O2    c    0.459003 *  0.250982 *  0.356279 *   0.87073    1.000000    
    141 O2    c    0.759203 *  0.219392 *  0.693619 *   0.87073    1.000000    
    142 O2    c    0.201728 *  0.465826 *  0.528858 *   0.87073    1.000000    
    143 O2    c    0.528739 *  0.744987 *  0.856639 *   0.87073    1.000000    
    144 O2    c    0.238299 *  0.781694 *  0.192902 *   0.87073    1.000000    
    145 O2    c    0.527093 *  0.780954 *  0.301956 *   0.87073    1.000000    
    146 O2    c    0.244354 *  0.467965 *  0.968507 *   0.87073    1.000000    
    147 O2    c    0.211944 *  0.743681 *  0.635744 *   0.87073    1.000000    
    148 O2    c    0.470629 *  0.214605 *  0.801444 *   0.87073    1.000000    
    149 O2    c    0.746675 *  0.537471 *  0.467568 *   0.87073    1.000000    
    150 O2    c    0.774967 *  0.252872 *  0.133406 *   0.87073    1.000000    
    151 O2    c    0.224407 *  0.323622 *  0.895293 *   0.87073    1.000000    
    152 O2    c    0.669807 *  0.906785 *  0.229113 *   0.87073    1.000000    
    153 O2    c    0.085920 *  0.763235 *  0.563409 *   0.87073    1.000000    
    154 O2    c    0.762413 *  0.676274 *  0.393771 *   0.87073    1.000000    
    155 O2    c    0.329146 *  0.090122 *  0.727425 *   0.87073    1.000000    
    156 O2    c    0.894974 *  0.231991 *  0.059447 *   0.87073    1.000000    
    157 O2    c    0.317758 *  0.232599 *  0.430528 *   0.87073    1.000000    
    158 O2    c    0.888665 *  0.667262 *  0.094966 *   0.87073    1.000000    
    159 O2    c    0.775286 *  0.092444 *  0.767250 *   0.87073    1.000000    
    160 O2    c    0.673118 *  0.769910 *  0.930694 *   0.87073    1.000000    
    161 O2    c    0.084895 *  0.324367 *  0.601423 *   0.87073    1.000000    
    162 O2    c    0.224523 *  0.906740 *  0.267274 *   0.87073    1.000000    
    163 O2    c    0.584114 *  0.564785 *  0.987428 *   0.87073    1.000000    
    164 O2    c    0.436293 *  0.023347 *  0.323483 *   0.87073    1.000000    
    165 O3    c    0.978300 *  0.404541 *  0.663843 *   1.33043    1.000000    
    166 O2    c    0.402796 *  0.441432 *  0.485545 *   0.87073    1.000000    
    167 O2    c    0.561074 *  0.968125 *  0.820988 *   0.87073    1.000000    
    168 O2    c    0.011762 *  0.583037 *  0.148047 *   0.87073    1.000000    
    169 O2    c    0.550895 *  0.584960 *  0.338255 *   0.87073    1.000000    
    170 O2    c    0.009563 *  0.437689 *  0.004691 *   0.87073    1.000000    
    171 O2    c    0.420161 *  0.974586 *  0.671882 *   0.87073    1.000000    
    172 O2    c    0.437166 *  0.405050 *  0.841934 *   0.87073    1.000000    
    173 O2    c    0.964044 *  0.553855 *  0.509547 *   0.87073    1.000000    
    174 O2    c    0.582079 *  0.029191 *  0.175106 *   0.87073    1.000000    
    175 O2    c    0.576528 *  0.161123 *  0.250270 *   0.87073    1.000000    
    176 O3    c    0.811020 *  0.402761 *  0.578060 *   1.33043    1.000000    
    177 O2    c    0.583836 *  0.419840 *  0.915561 *   0.87073    1.000000    
    178 O2    c    0.420955 *  0.833333 *  0.745615 *   0.87073    1.000000    
    179 O2    c    0.147945 *  0.576861 *  0.077136 *   0.87073    1.000000    
    180 O2    c    0.408822 *  0.581975 *  0.411856 *   0.87073    1.000000    
    181 F     c    0.444227 *  0.901101 *  0.247955 *   0.56000    1.000000    
    182 F     c    0.051041 *  0.528138 *  0.591025 *   0.56000    1.000000    
    183 F     c    0.444215 *  0.550459 *  0.912980 *   0.56000    1.000000    
    184 F     c    0.552181 *  0.089327 *  0.747528 *   0.56000    1.000000    
    185 F     c    0.849528 *  0.434097 *  0.069916 *   0.56000    1.000000    
    186 F     c    0.541667 *  0.454568 *  0.412215 *   0.56000    1.000000    
    187 O2    s    0.928077 *  0.009063 *  0.001902 *  -2.87073    1.000000    
    188 O2    s    0.993397 *  0.920252 *  0.330950 *  -2.87073    1.000000    
    189 O2    s    0.081829 *  0.078035 *  0.662681 *  -2.87073    1.000000    
    190 O2    s    0.070164 *  0.999501 *  0.497751 *  -2.87073    1.000000    
    191 O3    s    0.009781 *  0.066518 *  0.828547 *  -3.33043    1.000000    
    192 O2    s    0.920487 *  0.931187 *  0.165188 *  -2.87073    1.000000    
    193 O2    s    0.343611 *  0.582906 *  0.328430 *  -2.87073    1.000000    
    194 O2    s    0.420378 *  0.770861 *  0.662498 *  -2.87073    1.000000    
    195 O2    s    0.224509 *  0.645929 *  0.994274 *  -2.87073    1.000000    
    196 O2    s    0.648776 *  0.410917 *  0.831950 *  -2.87073    1.000000    
    197 O2    s    0.579003 *  0.233126 *  0.169386 *  -2.87073    1.000000    
    198 O2    s    0.759599 *  0.350594 *  0.493233 *  -2.87073    1.000000    
    199 O3    s    0.572745 *  0.351079 *  0.998304 *  -3.33043    1.000000    
    200 O3    s    0.772035 *  0.415574 *  0.666552 *  -3.33043    1.000000    
    201 O2    s    0.643334 *  0.232109 *  0.331592 *  -2.87073    1.000000    
    202 O2    s    0.404379 *  0.644785 *  0.495901 *  -2.87073    1.000000    
    203 O2    s    0.223613 *  0.588226 *  0.161756 *  -2.87073    1.000000    
    204 O2    s    0.349687 *  0.761585 *  0.828205 *  -2.87073    1.000000    
    205 O2    s    0.124183 *  0.220919 *  0.968502 *  -2.87073    1.000000    
    206 O2    s    0.777076 *  0.901683 *  0.300748 *  -2.87073    1.000000    
    207 O2    s    0.107190 *  0.888607 *  0.633974 *  -2.87073    1.000000    
    208 O2    s    0.871855 *  0.784767 *  0.466014 *  -2.87073    1.000000    
    209 O2    s    0.224968 *  0.093667 *  0.799846 *  -2.87073    1.000000    
    210 O2    s    0.895875 *  0.122910 *  0.132103 *  -2.87073    1.000000    
    211 O2    s    0.209835 *  0.119282 *  0.359581 *  -2.87073    1.000000    
    212 O2    s    0.904611 *  0.791800 *  0.025957 *  -2.87073    1.000000    
    213 O2    s    0.887991 *  0.101438 *  0.694556 *  -2.87073    1.000000    
    214 O3    s    0.773368 *  0.861960 *  0.857034 *  -3.33043    1.000000    
    215 O2    s    0.089433 *  0.215551 *  0.528907 *  -2.87073    1.000000    
    216 O2    s    0.114349 *  0.904507 *  0.194651 *  -2.87073    1.000000    
    217 O2    s    0.921811 *  0.855661 *  0.246969 *  -2.87073    1.000000    
    218 O2    s    0.148125 *  0.075857 *  0.579841 *  -2.87073    1.000000    
    219 O3    s    0.937021 *  0.057526 *  0.917967 *  -3.33043    1.000000    
    220 O2    s    0.076429 *  0.135107 *  0.746709 *  -2.87073    1.000000    
    221 O2    s    0.850284 *  0.925259 *  0.082330 *  -2.87073    1.000000    
    222 O2    s    0.067984 *  0.930336 *  0.414568 *  -2.87073    1.000000    
    223 O2    s    0.907290 *  0.202026 *  0.976117 *  -2.87073    1.000000    
    224 O2    s    0.787819 *  0.701016 *  0.311757 *  -2.87073    1.000000    
    225 O2    s    0.307406 *  0.099946 *  0.645412 *  -2.87073    1.000000    
    226 O2    s    0.081551 *  0.791859 *  0.480378 *  -2.87073    1.000000    
    227 O2    s    0.204199 *  0.291163 *  0.813059 *  -2.87073    1.000000    
    228 O2    s    0.696825 *  0.909994 *  0.147115 *  -2.87073    1.000000    
    229 O2    s    0.199627 *  0.906513 *  0.349236 *  -2.87073    1.000000    
    230 O2    s    0.702298 *  0.802211 *  0.013090 *  -2.87073    1.000000    
    231 O2    s    0.109178 *  0.297080 *  0.683297 *  -2.87073    1.000000    
    232 O3    s    0.793681 *  0.094826 *  0.849448 *  -3.33043    1.000000    
    233 O2    s    0.291989 *  0.207871 *  0.512887 *  -2.87073    1.000000    
    234 O2    s    0.899012 *  0.706817 *  0.178251 *  -2.87073    1.000000    
    235 O2    s    0.319130 *  0.653957 *  0.245831 *  -2.87073    1.000000    
    236 O2    s    0.336689 *  0.669841 *  0.580048 *  -2.87073    1.000000    
    237 O2    s    0.320567 *  0.669879 *  0.911536 *  -2.87073    1.000000    
    238 O2    s    0.680070 *  0.345896 *  0.748712 *  -2.87073    1.000000    
    239 O3    s    0.624035 *  0.309083 *  0.086641 *  -3.33043    1.000000    
    240 O2    s    0.666083 *  0.331216 *  0.412035 *  -2.87073    1.000000    
    241 O2    s    0.375202 *  0.346274 *  0.965265 *  -2.87073    1.000000    
    242 O2    s    0.654790 *  0.032879 *  0.300692 *  -2.87073    1.000000    
    243 O3    s    0.967697 *  0.642117 *  0.635479 *  -3.33043    1.000000    
    244 O2    s    0.615912 *  0.659542 *  0.463983 *  -2.87073    1.000000    
    245 O2    s    0.343868 *  0.961021 *  0.797636 *  -2.87073    1.000000    
    246 O2    s    0.024342 *  0.378546 *  0.128657 *  -2.87073    1.000000    
    247 O2    s    0.331443 *  0.374821 *  0.360359 *  -2.87073    1.000000    
    248 O2    s    0.024617 *  0.655154 *  0.025963 *  -2.87073    1.000000    
    249 O2    s    0.631632 *  0.967472 *  0.695486 *  -2.87073    1.000000    
    250 O2    s    0.654057 *  0.615992 *  0.862176 *  -2.87073    1.000000    
    251 O2    s    0.953581 *  0.334669 *  0.531017 *  -2.87073    1.000000    
    252 O2    s    0.369292 *  0.033625 *  0.197632 *  -2.87073    1.000000    
    253 O3    s    0.763349 *  0.289561 *  0.005152 *  -3.33043    1.000000    
    254 O2    s    0.683079 *  0.465461 *  0.342672 *  -2.87073    1.000000    
    255 O2    s    0.543103 *  0.226035 *  0.678547 *  -2.87073    1.000000    
    256 O2    s    0.212753 *  0.684166 *  0.512736 *  -2.87073    1.000000    
    257 O2    s    0.305802 *  0.528767 *  0.842787 *  -2.87073    1.000000    
    258 O2    s    0.457343 *  0.777575 *  0.177421 *  -2.87073    1.000000    
    259 O2    s    0.302338 *  0.772826 *  0.316322 *  -2.87073    1.000000    
    260 O2    s    0.461989 *  0.693815 *  0.981361 *  -2.87073    1.000000    
    261 O2    s    0.228952 *  0.536646 *  0.650173 *  -2.87073    1.000000    
    262 O2    s    0.692153 *  0.222867 *  0.817173 *  -2.87073    1.000000    
    263 O2    s    0.529169 *  0.315672 *  0.481593 *  -2.87073    1.000000    
    264 O2    s    0.763222 *  0.466072 *  0.147899 *  -2.87073    1.000000    
    265 O3    s    0.780634 *  0.547505 *  0.021596 *  -3.33043    1.000000    
    266 O2    s    0.461692 *  0.258612 *  0.358983 *  -2.87073    1.000000    
    267 O2    s    0.751869 *  0.214156 *  0.696055 *  -2.87073    1.000000    
    268 O2    s    0.198376 *  0.468507 *  0.530921 *  -2.87073    1.000000    
    269 O2    s    0.525589 *  0.736809 *  0.859263 *  -2.87073    1.000000    
    270 O2    s    0.246724 *  0.786980 *  0.195363 *  -2.87073    1.000000    
    271 O2    s    0.524389 *  0.786174 *  0.299410 *  -2.87073    1.000000    
    272 O2    s    0.252733 *  0.470985 *  0.965837 *  -2.87073    1.000000    
    273 O2    s    0.208715 *  0.737573 *  0.633595 *  -2.87073    1.000000    
    274 O2    s    0.473665 *  0.209515 *  0.798924 *  -2.87073    1.000000    
    275 O2    s    0.738538 *  0.534696 *  0.464954 *  -2.87073    1.000000    
    276 O2    s    0.779266 *  0.258811 *  0.131118 *  -2.87073    1.000000    
    277 O2    s    0.234605 *  0.333137 *  0.896137 *  -2.87073    1.000000    
    278 O2    s    0.660165 *  0.906520 *  0.230067 *  -2.87073    1.000000    
    279 O2    s    0.086100 *  0.754867 *  0.563797 *  -2.87073    1.000000    
    280 O2    s    0.752903 *  0.666610 *  0.394688 *  -2.87073    1.000000    
    281 O2    s    0.339264 *  0.090904 *  0.728347 *  -2.87073    1.000000    
    282 O2    s    0.894589 *  0.239666 *  0.060560 *  -2.87073    1.000000    
    283 O2    s    0.327283 *  0.242055 *  0.429633 *  -2.87073    1.000000    
    284 O2    s    0.889265 *  0.659209 *  0.094771 *  -2.87073    1.000000    
    285 O2    s    0.765929 *  0.092964 *  0.766214 *  -2.87073    1.000000    
    286 O2    s    0.663401 *  0.760143 *  0.929985 *  -2.87073    1.000000    
    287 O2    s    0.085840 *  0.332600 *  0.600254 *  -2.87073    1.000000    
    288 O2    s    0.233807 *  0.906260 *  0.266309 *  -2.87073    1.000000    
    289 O2    s    0.580020 *  0.565243 *  0.984184 *  -2.87073    1.000000    
    290 O2    s    0.435952 *  0.018784 *  0.319977 *  -2.87073    1.000000    
    291 O3    s    0.987160 *  0.408617 *  0.660068 *  -3.33043    1.000000    
    292 O2    s    0.408067 *  0.441500 *  0.482216 *  -2.87073    1.000000    
    293 O2    s    0.561068 *  0.973169 *  0.817613 *  -2.87073    1.000000    
    294 O2    s    0.008203 *  0.579332 *  0.145329 *  -2.87073    1.000000    
    295 O2    s    0.551084 *  0.580343 *  0.341637 *  -2.87073    1.000000    
    296 O2    s    0.006845 *  0.438190 *  0.007513 *  -2.87073    1.000000    
    297 O2    s    0.425073 *  0.979629 *  0.675372 *  -2.87073    1.000000    
    298 O2    s    0.437223 *  0.410391 *  0.845054 *  -2.87073    1.000000    
    299 O2    s    0.968695 *  0.555344 *  0.512321 *  -2.87073    1.000000    
    300 O2    s    0.577119 *  0.023910 *  0.178473 *  -2.87073    1.000000    
    301 O2    s    0.570925 *  0.149971 *  0.250215 *  -2.87073    1.000000    
    302 O3    s    0.823717 *  0.408105 *  0.576270 *  -3.33043    1.000000    
    303 O2    s    0.578223 *  0.424689 *  0.915253 *  -2.87073    1.000000    
    304 O2    s    0.426742 *  0.844698 *  0.745728 *  -2.87073    1.000000    
    305 O2    s    0.138530 *  0.572287 *  0.077404 *  -2.87073    1.000000    
    306 O2    s    0.414362 *  0.576400 *  0.411913 *  -2.87073    1.000000    
    307 F     s    0.443986 *  0.900717 *  0.247941 *  -1.56000    1.000000    
    308 F     s    0.041192 *  0.524317 *  0.593505 *  -1.56000    1.000000    
    309 F     s    0.443527 *  0.550977 *  0.912939 *  -1.56000    1.000000    
    310 F     s    0.552010 *  0.088691 *  0.747581 *  -1.56000    1.000000    
    311 F     s    0.839043 *  0.429999 *  0.067614 *  -1.56000    1.000000    
    312 F     s    0.541849 *  0.454604 *  0.412227 *  -1.56000    1.000000    
--------------------------------------------------------------------------------



********************************************************************************
*  General input information                                                   *
********************************************************************************

  Species output for all configurations : 

--------------------------------------------------------------------------------
  Species    Type    Atomic    Atomic    Charge       Radii (Angs)     Library
                     Number     Mass       (e)     Cova   Ionic  VDW   Symbol
--------------------------------------------------------------------------------
    Si       Core       14      28.09   4.000000   1.200  0.000  2.100          
    O1       Core        8      16.00   1.733957   0.730  0.000  1.360          
    O1       Shell       8       0.00  -3.733957   0.730  0.000  1.360          
    O2       Core        8      16.00   0.870733   0.730  0.000  1.360          
    O2       Shell       8       0.00  -2.870733   0.730  0.000  1.360          
    O3       Core        8      16.00   1.330431   0.730  0.000  1.360          
    O3       Shell       8       0.00  -3.330431   0.730  0.000  1.360          
    F        Core        9      19.00   0.560000   0.710  0.000  1.300          
    F        Shell       9       0.00  -1.560000   0.710  0.000  1.300          
    Ge       Core       32      72.61   4.000000   1.170  0.000  1.750          
--------------------------------------------------------------------------------


  Lattice summation method               =    Ewald          (3-D)
                                         =    Parry          (2-D)
                                         =    Saunders et al (1-D)
  Accuracy factor for lattice sums       =   12.000


  Time limit = Infinity

  Maximum range for interatomic potentials =        16.000000 Angstroms

  Taper potentials to zero over   1.0000 Angstroms using polynomial

  General interatomic potentials :

--------------------------------------------------------------------------------
Atom  Types   Potential         A         B         C         D     Cutoffs(Ang)
  1     2                                                            Min    Max 
--------------------------------------------------------------------------------
Si   c O1   s Buckingham    0.132E+04 0.318      10.1      0.00     0.000 16.000
Si   c O2   s Buckingham    0.132E+04 0.318      10.1      0.00     0.000 16.000
Si   c O3   s Buckingham    0.132E+04 0.318      10.1      0.00     0.000 16.000
Ge   c O1   s Buckingham    0.150E+04 0.326      16.8      0.00     0.000 16.000
Ge   c O2   s Buckingham    0.150E+04 0.326      16.8      0.00     0.000 16.000
Ge   c O3   s Buckingham    0.150E+04 0.326      16.8      0.00     0.000 16.000
O1   s O1   s Buckingham    0.228E+05 0.149      10.9      0.00     0.000 16.000
O1   s O2   s Buckingham    0.228E+05 0.149      10.9      0.00     0.000 16.000
O1   s O3   s Buckingham    0.228E+05 0.149      10.9      0.00     0.000 16.000
O2   s O2   s Buckingham    0.228E+05 0.149      10.9      0.00     0.000 16.000
O2   s O3   s Buckingham    0.228E+05 0.149      10.9      0.00     0.000 16.000
O3   s O3   s Buckingham    0.228E+05 0.149      10.9      0.00     0.000 16.000
Si   c F    s Buckingham     977.     0.282      0.00      0.00     0.000 16.000
Ge   c F    s Buckingham     681.     0.320      0.00      0.00     0.000 16.000
F    s F    s Buckingham     540.     0.262      0.00      0.00     0.000 16.000
O1   s F    s Buckingham    0.168E+04 0.268      0.00      0.00     0.000 16.000
O2   s F    s Buckingham    0.168E+04 0.268      0.00      0.00     0.000 16.000
O3   s F    s Buckingham    0.168E+04 0.268      0.00      0.00     0.000 16.000
O2   c O2   s Spring (c-s)   76.0      0.00      0.00      0.00     0.000  0.800
O3   c O3   s Spring (c-s)   128.      0.00      0.00      0.00     0.000  0.800
O1   c O1   s Spring (c-s)   180.      0.00      0.00      0.00     0.000  0.800
F    c F    s Spring (c-s)   33.5      0.00      0.00      0.00     0.000  0.800
--------------------------------------------------------------------------------

  General Three-body potentials :

  Harmonic form:

--------------------------------------------------------------------------------
Atom    Atom    Atom           Force Constants            Theta     Cutoffs  
  1       2       3     (eVrad**-2/eVrad**-3/eVrad**-4)   (deg)  1-2  1-3  2-3
--------------------------------------------------------------------------------
Si    c O1    s O1    s  1.261        0.0000    0.0000   109.470 0.00 0.00 0.00
                                                                 1.90 1.90 3.50
Si    c O1    s O2    s  1.261        0.0000    0.0000   109.470 0.00 0.00 0.00
                                                                 1.90 1.90 3.50
Si    c O2    s O2    s  1.261        0.0000    0.0000   109.470 0.00 0.00 0.00
                                                                 1.90 1.90 3.50
--------------------------------------------------------------------------------

********************************************************************************
*  Output for configuration   1                                                *
********************************************************************************


  Components of energy : 

--------------------------------------------------------------------------------
  Interatomic potentials     =        2064.06987855 eV
  Three-body potentials      =           0.46568234 eV
  Monopole - monopole (real) =       -6614.48447884 eV
  Monopole - monopole (recip)=       -3170.37217154 eV
  Monopole - monopole (total)=       -9784.85665038 eV
  Neutralising energy        =          -6.45804587 eV
--------------------------------------------------------------------------------
  Total lattice energy       =       -7726.77913537 eV
--------------------------------------------------------------------------------
  Total lattice energy       =         -745516.0719 kJ/(mole unit cells)
--------------------------------------------------------------------------------


  Number of variables =      939

  Maximum number of calculations  =          5000
  Maximum Hessian update interval =            10
  Maximum step size               =   0.100000000
  Maximum parameter tolerance     =   0.000010000
  Maximum function  tolerance     =   0.000010000
  Maximum gradient  tolerance     =   0.001000000
  Maximum gradient  component     =   0.010000000

  Symmetry not applied to optimisation

  Cell parameters to be optimised using strains

  Newton-Raphson optimiser to be used

  BFGS hessian update to be used

  Dumpfile to be written after every cycle

  Start of bulk optimisation :

  Cycle:      0 Energy:     -7726.779135  Gnorm:      0.005793  CPU:    2.006
  ** Hessian calculated **
  Cycle:      1 Energy:     -7726.797073  Gnorm:      0.005161  CPU:    6.537
  Cycle:      2 Energy:     -7726.818660  Gnorm:      0.004292  CPU:   10.693
  Cycle:      3 Energy:     -7726.842794  Gnorm:      0.003098  CPU:   14.849
  Cycle:      4 Energy:     -7726.859061  Gnorm:      0.001975  CPU:   19.005
  Cycle:      5 Energy:     -7726.863037  Gnorm:      0.001216  CPU:   23.161
  Cycle:      6 Energy:     -7726.864028  Gnorm:      0.000684  CPU:   27.317
  Cycle:      7 Energy:     -7726.864277  Gnorm:      0.000368  CPU:   31.473
  Cycle:      8 Energy:     -7726.864340  Gnorm:      0.000192  CPU:   35.630
  Cycle:      9 Energy:     -7726.864351  Gnorm:      0.000136  CPU:   38.438
  Cycle:     10 Energy:     -7726.864356  Gnorm:      0.000096  CPU:   41.246
  ** Hessian calculated **
  Cycle:     11 Energy:     -7726.864356  Gnorm:      0.000047  CPU:   45.749
  Cycle:     12 Energy:     -7726.864356  Gnorm:      0.000034  CPU:   48.566


  **** Optimisation achieved ****


  Final energy =   -7726.86435621 eV
  Final Gnorm  =       0.00002482

  Components of energy : 

--------------------------------------------------------------------------------
  Interatomic potentials     =        2064.47983125 eV
  Three-body potentials      =           0.45945941 eV
  Monopole - monopole (real) =       -6616.06523963 eV
  Monopole - monopole (recip)=       -3169.28257733 eV
  Monopole - monopole (total)=       -9785.34781696 eV
  Neutralising energy        =          -6.45582992 eV
--------------------------------------------------------------------------------
  Total lattice energy       =       -7726.86435621 eV
--------------------------------------------------------------------------------
  Total lattice energy       =         -745524.2944 kJ/(mole unit cells)
--------------------------------------------------------------------------------

  Final fractional coordinates of atoms :

--------------------------------------------------------------------------------
   No.  Atomic        x           y          z          Radius
        Label       (Frac)      (Frac)     (Frac)       (Angs) 
--------------------------------------------------------------------------------
     1  Ge    c     0.699600    0.375700    0.033890    0.000000
     2  Si    c     0.589783    0.306619    0.362264    0.000000
     3  Si    c     0.670431    0.291008    0.696885    0.000000
     4  Si    c     0.267912    0.603110    0.529947    0.000000
     5  Si    c     0.358127    0.658768    0.861771    0.000000
     6  Si    c     0.294305    0.688867    0.196927    0.000000
     7  Si    c     0.347091    0.683773    0.297427    0.000000
     8  Si    c     0.307759    0.610367    0.962600    0.000000
     9  Si    c     0.280943    0.664479    0.632274    0.000000
    10  Si    c     0.609119    0.284042    0.798031    0.000000
    11  Si    c     0.646535    0.363757    0.462721    0.000000
    12  Si    c     0.665556    0.304889    0.131821    0.000000
    13  Si    c     0.521456    0.409831    0.966686    0.000000
    14  Si    c     0.553585    0.092667    0.300403    0.000000
    15  Ge    c     0.885810    0.460344    0.629400    0.000000
    16  Si    c     0.436647    0.563462    0.462876    0.000000
    17  Si    c     0.402383    0.870010    0.797037    0.000000
    18  Si    c     0.086562    0.517453    0.129685    0.000000
    19  Si    c     0.383103    0.509815    0.361370    0.000000
    20  Si    c     0.093212    0.572553    0.026586    0.000000
    21  Si    c     0.459563    0.878108    0.695863    0.000000
    22  Si    c     0.566985    0.452323    0.863856    0.000000
    23  Si    c     0.847657    0.392724    0.530442    0.000000
    24  Si    c     0.502515    0.096985    0.199039    0.000000
    25  Si    c     0.285117    0.382700    0.849291    0.000000
    26  Si    c     0.573959    0.889945    0.183261    0.000000
    27  Si    c     0.061618    0.678982    0.516818    0.000000
    28  Si    c     0.665037    0.582211    0.347605    0.000000
    29  Si    c     0.389523    0.085918    0.681423    0.000000
    30  Si    c     0.880544    0.285113    0.010518    0.000000
    31  Si    c     0.366746    0.285869    0.477141    0.000000
    32  Si    c     0.872202    0.589316    0.143007    0.000000
    33  Si    c     0.682326    0.081617    0.812953    0.000000
    34  Si    c     0.588061    0.690791    0.976927    0.000000
    35  Si    c     0.080679    0.382121    0.651067    0.000000
    36  Si    c     0.271631    0.884518    0.313582    0.000000
    37  Si    c     0.240476    0.332799    0.950066    0.000000
    38  Si    c     0.630010    0.892510    0.284048    0.000000
    39  Si    c     0.066443    0.738647    0.619108    0.000000
    40  Si    c     0.717178    0.642821    0.448299    0.000000
    41  Si    c     0.329087    0.072452    0.781727    0.000000
    42  Si    c     0.882191    0.236380    0.113838    0.000000
    43  Si    c     0.307174    0.233078    0.376497    0.000000
    44  Si    c     0.892046    0.657042    0.040684    0.000000
    45  Si    c     0.738260    0.078791    0.712561    0.000000
    46  Si    c     0.639145    0.729037    0.875764    0.000000
    47  Si    c     0.054795    0.318887    0.547944    0.000000
    48  Si    c     0.222170    0.895667    0.212967    0.000000
    49  Si    c     0.964285    0.111523    0.965539    0.000000
    50  Si    c     0.847026    0.828753    0.298112    0.000000
    51  Si    c     0.142159    0.022844    0.631278    0.000000
    52  Si    c     0.997764    0.861263    0.465439    0.000000
    53  Si    c     0.111751    0.133558    0.798193    0.000000
    54  Si    c     0.822712    0.959135    0.132183    0.000000
    55  Si    c     0.091210    0.951667    0.364144    0.000000
    56  Si    c     0.834793    0.874462    0.030893    0.000000
    57  Si    c     0.019622    0.137688    0.697868    0.000000
    58  Ge    c     0.862553    0.009596    0.863738    0.000000
    59  Si    c     0.122843    0.105759    0.530484    0.000000
    60  Si    c     0.942407    0.835849    0.196678    0.000000
    61  O2    c     0.920698    0.004677    0.004246    0.000000
    62  O2    c     0.967289    0.905408    0.331964    0.000000
    63  O2    c     0.059050    0.059590    0.663785    0.000000
    64  O2    c     0.038517    0.981373    0.498858    0.000000
    65  O3    c     0.994585    0.050221    0.830674    0.000000
    66  O2    c     0.903535    0.921682    0.166365    0.000000
    67  O2    c     0.307063    0.559246    0.328970    0.000000
    68  O2    c     0.408812    0.753016    0.662296    0.000000
    69  O2    c     0.221205    0.647473    0.995611    0.000000
    70  O2    c     0.644671    0.404220    0.831737    0.000000
    71  O2    c     0.554334    0.225354    0.169200    0.000000
    72  O2    c     0.731607    0.322175    0.493264    0.000000
    73  O3    c     0.563756    0.334667    0.999117    0.000000
    74  O3    c     0.751039    0.409985    0.665780    0.000000
    75  O2    c     0.630296    0.219980    0.331892    0.000000
    76  O2    c     0.386404    0.638492    0.495638    0.000000
    77  O2    c     0.209968    0.567239    0.163264    0.000000
    78  O2    c     0.321890    0.743434    0.828415    0.000000
    79  O2    c     0.118120    0.205416    0.971312    0.000000
    80  O2    c     0.756671    0.892298    0.303916    0.000000
    81  O2    c     0.081861    0.871467    0.637253    0.000000
    82  O2    c     0.842318    0.770690    0.468622    0.000000
    83  O2    c     0.204516    0.073104    0.802459    0.000000
    84  O2    c     0.884152    0.113195    0.135002    0.000000
    85  O2    c     0.180422    0.104968    0.357106    0.000000
    86  O2    c     0.908119    0.793486    0.025309    0.000000
    87  O2    c     0.865815    0.080875    0.692073    0.000000
    88  O3    c     0.763101    0.848282    0.853696    0.000000
    89  O2    c     0.057767    0.195233    0.527143    0.000000
    90  O2    c     0.097233    0.898127    0.192580    0.000000
    91  O2    c     0.900704    0.842058    0.247703    0.000000
    92  O2    c     0.122576    0.058167    0.580687    0.000000
    93  O3    c     0.921879    0.039873    0.918305    0.000000
    94  O2    c     0.055241    0.118459    0.747941    0.000000
    95  O2    c     0.832878    0.911574    0.082973    0.000000
    96  O2    c     0.042851    0.916014    0.415376    0.000000
    97  O2    c     0.895141    0.196042    0.972713    0.000000
    98  O2    c     0.762918    0.677510    0.309126    0.000000
    99  O2    c     0.294810    0.092616    0.642662    0.000000
   100  O2    c     0.062906    0.775982    0.478394    0.000000
   101  O2    c     0.188446    0.284657    0.810719    0.000000
   102  O2    c     0.671037    0.890103    0.144903    0.000000
   103  O2    c     0.173870    0.882853    0.352250    0.000000
   104  O2    c     0.686011    0.792720    0.014694    0.000000
   105  O2    c     0.099766    0.289225    0.686160    0.000000
   106  O3    c     0.778870    0.087653    0.852495    0.000000
   107  O2    c     0.272038    0.187996    0.515361    0.000000
   108  O2    c     0.873379    0.686844    0.181558    0.000000
   109  O2    c     0.292034    0.628691    0.246597    0.000000
   110  O2    c     0.323984    0.659733    0.580022    0.000000
   111  O2    c     0.301541    0.662513    0.912069    0.000000
   112  O2    c     0.666744    0.340873    0.748394    0.000000
   113  O3    c     0.602865    0.298015    0.084009    0.000000
   114  O2    c     0.645796    0.307577    0.412488    0.000000
   115  O2    c     0.363419    0.325566    0.968016    0.000000
   116  O2    c     0.641015    0.024139    0.303278    0.000000
   117  O3    c     0.936418    0.626567    0.638953    0.000000
   118  O2    c     0.593359    0.651231    0.466537    0.000000
   119  O2    c     0.316113    0.939701    0.799973    0.000000
   120  O2    c     0.013675    0.362321    0.131542    0.000000
   121  O2    c     0.295254    0.353878    0.358304    0.000000
   122  O2    c     0.025648    0.660369    0.025919    0.000000
   123  O2    c     0.616411    0.945685    0.693041    0.000000
   124  O2    c     0.650345    0.606927    0.859248    0.000000
   125  O2    c     0.922649    0.309513    0.529434    0.000000
   126  O2    c     0.345572    0.027097    0.195045    0.000000
   127  O3    c     0.747757    0.279393    0.001756    0.000000
   128  O2    c     0.664758    0.448808    0.339852    0.000000
   129  O2    c     0.523931    0.217963    0.675428    0.000000
   130  O2    c     0.193516    0.673719    0.510126    0.000000
   131  O2    c     0.283589    0.514688    0.840012    0.000000
   132  O2    c     0.437994    0.757884    0.174678    0.000000
   133  O2    c     0.270977    0.750611    0.319970    0.000000
   134  O2    c     0.452478    0.689853    0.984549    0.000000
   135  O2    c     0.214936    0.520637    0.652560    0.000000
   136  O2    c     0.681797    0.214329    0.820334    0.000000
   137  O2    c     0.503024    0.290554    0.485153    0.000000
   138  O2    c     0.740811    0.453977    0.150830    0.000000
   139  O3    c     0.768362    0.543135    0.018147    0.000000
   140  O2    c     0.433140    0.233493    0.356516    0.000000
   141  O2    c     0.739606    0.203729    0.693204    0.000000
   142  O2    c     0.177286    0.449099    0.529347    0.000000
   143  O2    c     0.514129    0.731702    0.856342    0.000000
   144  O2    c     0.218135    0.768539    0.192943    0.000000
   145  O2    c     0.503721    0.766156    0.302972    0.000000
   146  O2    c     0.234004    0.455695    0.969277    0.000000
   147  O2    c     0.190937    0.728562    0.635994    0.000000
   148  O2    c     0.452944    0.199546    0.801603    0.000000
   149  O2    c     0.720494    0.519486    0.467728    0.000000
   150  O2    c     0.758326    0.240563    0.132922    0.000000
   151  O2    c     0.213364    0.311448    0.895870    0.000000
   152  O2    c     0.647459    0.892039    0.229739    0.000000
   153  O2    c     0.062954    0.747281    0.563904    0.000000
   154  O2    c     0.735900    0.658455    0.393955    0.000000
   155  O2    c     0.310955    0.075484    0.727423    0.000000
   156  O2    c     0.883268    0.222715    0.059585    0.000000
   157  O2    c     0.291808    0.214734    0.430758    0.000000
   158  O2    c     0.877341    0.658204    0.095955    0.000000
   159  O2    c     0.756631    0.077313    0.767152    0.000000
   160  O2    c     0.660729    0.758058    0.930042    0.000000
   161  O2    c     0.061051    0.308670    0.602043    0.000000
   162  O2    c     0.202480    0.892269    0.267321    0.000000
   163  O2    c     0.574621    0.554054    0.987167    0.000000
   164  O2    c     0.412294    0.007934    0.323578    0.000000
   165  O3    c     0.958606    0.391361    0.664678    0.000000
   166  O2    c     0.376783    0.423134    0.485922    0.000000
   167  O2    c     0.543648    0.953474    0.821086    0.000000
   168  O2    c     0.995393    0.569778    0.149205    0.000000
   169  O2    c     0.524791    0.567081    0.338386    0.000000
   170  O2    c     0.001543    0.431385    0.005449    0.000000
   171  O2    c     0.401197    0.959610    0.671768    0.000000
   172  O2    c     0.423641    0.393171    0.841646    0.000000
   173  O2    c     0.938897    0.537690    0.510097    0.000000
   174  O2    c     0.561487    0.015673    0.175293    0.000000
   175  O2    c     0.553666    0.146526    0.250160    0.000000
   176  O3    c     0.788428    0.387232    0.578751    0.000000
   177  O2    c     0.571462    0.408023    0.915186    0.000000
   178  O2    c     0.402986    0.818633    0.745707    0.000000
   179  O2    c     0.135608    0.565927    0.078691    0.000000
   180  O2    c     0.382797    0.563709    0.412180    0.000000
   181  F     c     0.421696    0.886282    0.248195    0.000000
   182  F     c     0.028734    0.512956    0.591190    0.000000
   183  F     c     0.432207    0.538247    0.913039    0.000000
   184  F     c     0.533400    0.074094    0.747330    0.000000
   185  F     c     0.843669    0.429036    0.070665    0.000000
   186  F     c     0.514628    0.436024    0.412448    0.000000
   187  O2    s     0.915575    0.001441    0.003050    0.000000
   188  O2    s     0.967738    0.902016    0.331786    0.000000
   189  O2    s     0.064113    0.064224    0.663903    0.000000
   190  O2    s     0.043158    0.981625    0.498601    0.000000
   191  O3    s     0.995771    0.055800    0.830027    0.000000
   192  O2    s     0.899030    0.916287    0.165995    0.000000
   193  O2    s     0.318947    0.566922    0.329051    0.000000
   194  O2    s     0.400191    0.755848    0.662371    0.000000
   195  O2    s     0.216229    0.635914    0.995622    0.000000
   196  O2    s     0.632998    0.396776    0.831563    0.000000
   197  O2    s     0.560293    0.219919    0.168511    0.000000
   198  O2    s     0.734445    0.333722    0.493807    0.000000
   199  O3    s     0.568986    0.345840    0.998106    0.000000
   200  O3    s     0.751698    0.400484    0.666629    0.000000
   201  O2    s     0.618136    0.215747    0.331777    0.000000
   202  O2    s     0.378978    0.627136    0.495946    0.000000
   203  O2    s     0.205543    0.574372    0.163163    0.000000
   204  O2    s     0.333708    0.747644    0.828631    0.000000
   205  O2    s     0.114050    0.208349    0.968528    0.000000
   206  O2    s     0.753104    0.885584    0.301262    0.000000
   207  O2    s     0.086957    0.873810    0.634605    0.000000
   208  O2    s     0.845910    0.767120    0.466213    0.000000
   209  O2    s     0.207798    0.079607    0.799795    0.000000
   210  O2    s     0.877515    0.109745    0.132550    0.000000
   211  O2    s     0.184076    0.102025    0.359818    0.000000
   212  O2    s     0.898714    0.788031    0.027468    0.000000
   213  O2    s     0.869212    0.086725    0.694751    0.000000
   214  O3    s     0.758949    0.849758    0.856722    0.000000
   215  O2    s     0.064294    0.198530    0.529607    0.000000
   216  O2    s     0.093678    0.891208    0.195118    0.000000
   217  O2    s     0.899314    0.839867    0.247682    0.000000
   218  O2    s     0.124768    0.059745    0.580499    0.000000
   219  O3    s     0.921462    0.045111    0.918823    0.000000
   220  O2    s     0.057437    0.122422    0.747723    0.000000
   221  O2    s     0.831915    0.913049    0.082945    0.000000
   222  O2    s     0.043199    0.913872    0.415246    0.000000
   223  O2    s     0.900905    0.196588    0.975944    0.000000
   224  O2    s     0.761827    0.683826    0.311901    0.000000
   225  O2    s     0.287783    0.084488    0.645242    0.000000
   226  O2    s     0.055929    0.775047    0.480950    0.000000
   227  O2    s     0.190263    0.278770    0.813367    0.000000
   228  O2    s     0.677049    0.897432    0.147555    0.000000
   229  O2    s     0.175091    0.890306    0.349561    0.000000
   230  O2    s     0.692176    0.791253    0.012626    0.000000
   231  O2    s     0.089544    0.282948    0.683797    0.000000
   232  O3    s     0.776722    0.080596    0.849703    0.000000
   233  O2    s     0.265837    0.189390    0.512965    0.000000
   234  O2    s     0.880593    0.692702    0.179217    0.000000
   235  O2    s     0.297863    0.640442    0.246688    0.000000
   236  O2    s     0.313819    0.654269    0.579982    0.000000
   237  O2    s     0.307769    0.656871    0.912166    0.000000
   238  O2    s     0.661040    0.329945    0.748537    0.000000
   239  O3    s     0.615659    0.303629    0.085977    0.000000
   240  O2    s     0.639940    0.313394    0.412452    0.000000
   241  O2    s     0.365622    0.334879    0.965865    0.000000
   242  O2    s     0.630881    0.017489    0.300978    0.000000
   243  O3    s     0.947037    0.627527    0.636145    0.000000
   244  O2    s     0.589998    0.641265    0.464249    0.000000
   245  O2    s     0.326388    0.946383    0.797747    0.000000
   246  O2    s     0.007723    0.365527    0.129521    0.000000
   247  O2    s     0.305425    0.357269    0.360506    0.000000
   248  O2    s     0.019341    0.650924    0.027477    0.000000
   249  O2    s     0.612609    0.952205    0.695319    0.000000
   250  O2    s     0.640333    0.603581    0.861505    0.000000
   251  O2    s     0.929351    0.318502    0.531488    0.000000
   252  O2    s     0.348702    0.020407    0.197355    0.000000
   253  O3    s     0.758886    0.286373    0.004886    0.000000
   254  O2    s     0.657063    0.448157    0.342999    0.000000
   255  O2    s     0.523608    0.210596    0.678253    0.000000
   256  O2    s     0.187566    0.666882    0.512906    0.000000
   257  O2    s     0.291356    0.515734    0.843238    0.000000
   258  O2    s     0.437376    0.764592    0.177915    0.000000
   259  O2    s     0.278837    0.757782    0.316958    0.000000
   260  O2    s     0.451485    0.681827    0.981494    0.000000
   261  O2    s     0.208350    0.521759    0.650252    0.000000
   262  O2    s     0.674254    0.207509    0.817185    0.000000
   263  O2    s     0.503345    0.297652    0.481949    0.000000
   264  O2    s     0.747592    0.454107    0.148152    0.000000
   265  O3    s     0.777734    0.544983    0.021580    0.000000
   266  O2    s     0.435801    0.241126    0.359225    0.000000
   267  O2    s     0.732301    0.198497    0.695690    0.000000
   268  O2    s     0.173899    0.451777    0.531387    0.000000
   269  O2    s     0.511105    0.723592    0.859000    0.000000
   270  O2    s     0.226549    0.773899    0.195480    0.000000
   271  O2    s     0.501017    0.771300    0.300381    0.000000
   272  O2    s     0.242377    0.458792    0.966592    0.000000
   273  O2    s     0.187748    0.722504    0.633871    0.000000
   274  O2    s     0.455993    0.194508    0.799062    0.000000
   275  O2    s     0.712445    0.516775    0.465146    0.000000
   276  O2    s     0.762811    0.246538    0.130727    0.000000
   277  O2    s     0.223494    0.321010    0.896649    0.000000
   278  O2    s     0.637866    0.891865    0.230643    0.000000
   279  O2    s     0.063135    0.738954    0.564296    0.000000
   280  O2    s     0.726529    0.648859    0.394883    0.000000
   281  O2    s     0.321048    0.076215    0.728305    0.000000
   282  O2    s     0.882883    0.230286    0.060687    0.000000
   283  O2    s     0.301362    0.224213    0.429842    0.000000
   284  O2    s     0.878176    0.650482    0.095679    0.000000
   285  O2    s     0.747293    0.077824    0.766161    0.000000
   286  O2    s     0.651009    0.748215    0.929401    0.000000
   287  O2    s     0.062206    0.316891    0.600836    0.000000
   288  O2    s     0.211795    0.891822    0.266420    0.000000
   289  O2    s     0.570505    0.554670    0.983959    0.000000
   290  O2    s     0.411919    0.003336    0.320090    0.000000
   291  O3    s     0.967390    0.395143    0.660860    0.000000
   292  O2    s     0.382099    0.423240    0.482570    0.000000
   293  O2    s     0.543721    0.958559    0.817727    0.000000
   294  O2    s     0.991840    0.566183    0.146456    0.000000
   295  O2    s     0.525055    0.562537    0.341791    0.000000
   296  O2    s     0.998977    0.431805    0.008267    0.000000
   297  O2    s     0.406079    0.964610    0.675247    0.000000
   298  O2    s     0.423623    0.398377    0.844808    0.000000
   299  O2    s     0.943646    0.539101    0.512848    0.000000
   300  O2    s     0.556525    0.010498    0.178624    0.000000
   301  O2    s     0.548189    0.135501    0.250057    0.000000
   302  O3    s     0.801022    0.392494    0.576817    0.000000
   303  O2    s     0.566008    0.412945    0.914864    0.000000
   304  O2    s     0.408741    0.829970    0.745795    0.000000
   305  O2    s     0.126130    0.561459    0.078838    0.000000
   306  O2    s     0.388421    0.558158    0.412235    0.000000
   307  F     s     0.421411    0.885819    0.248166    0.000000
   308  F     s     0.018656    0.509084    0.593779    0.000000
   309  F     s     0.431539    0.538775    0.912995    0.000000
   310  F     s     0.533175    0.073440    0.747366    0.000000
   311  F     s     0.832731    0.425081    0.068017    0.000000
   312  F     s     0.514701    0.436001    0.412456    0.000000
--------------------------------------------------------------------------------

  Final Cartesian lattice vectors (Angstroms) :

       11.938778    0.005924   -0.001785
       -6.062298   10.412019    0.016869
       -0.041665   -0.239681   29.466191


  Final cell parameters and derivatives :

--------------------------------------------------------------------------------
       a           11.938780 Angstrom     dE/de1(xx)     0.001389 eV/strain
       b           12.048315 Angstrom     dE/de2(yy)     0.000623 eV/strain
       c           29.467195 Angstrom     dE/de3(zz)     0.001999 eV/strain
       alpha       90.281761 Degrees      dE/de4(yz)    -0.000129 eV/strain
       beta        90.089810 Degrees      dE/de5(xz)    -0.000060 eV/strain
       gamma      120.181245 Degrees      dE/de6(xy)     0.000467 eV/strain
--------------------------------------------------------------------------------

  Primitive cell volume =          3663.950477 Angs**3

  Density of cell =      1.746228 g/cm**3

  Non-primitive cell volume =          3663.950477 Angs**3


  Final internal derivatives :

--------------------------------------------------------------------------------
   No.  Atomic          a             b             c           Radius
        Label          (eV)          (eV)          (eV)        (eV/Angs)
--------------------------------------------------------------------------------
      1 Ge    c       0.000000      0.000000      0.000000      0.000000
      2 Si    c       0.000082      0.000237      0.000456      0.000000
      3 Si    c       0.000080     -0.000124     -0.000098      0.000000
      4 Si    c       0.000113      0.000102     -0.000054      0.000000
      5 Si    c       0.000000      0.000169     -0.000380      0.000000
      6 Si    c       0.000523     -0.000002      0.000298      0.000000
      7 Si    c       0.000551      0.000197     -0.000245      0.000000
      8 Si    c       0.000189      0.000093     -0.000106      0.000000
      9 Si    c      -0.000238      0.000099      0.000380      0.000000
     10 Si    c      -0.000077     -0.000345     -0.000380      0.000000
     11 Si    c       0.000074      0.000024      0.000032      0.000000
     12 Si    c       0.001496     -0.000084      0.008744      0.000000
     13 Si    c      -0.000884      0.000488     -0.002156      0.000000
     14 Si    c       0.000049      0.000174      0.000121      0.000000
     15 Ge    c       0.000208     -0.000239      0.000094      0.000000
     16 Si    c       0.000407      0.000068     -0.000169      0.000000
     17 Si    c       0.000031      0.000083      0.000078      0.000000
     18 Si    c      -0.000010      0.000491      0.001058      0.000000
     19 Si    c       0.000463      0.000240      0.000312      0.000000
     20 Si    c      -0.000503     -0.000068     -0.000479      0.000000
     21 Si    c      -0.000118      0.000118      0.000449      0.000000
     22 Si    c       0.000062     -0.000014     -0.000832      0.000000
     23 Si    c       0.000258      0.000006     -0.000212      0.000000
     24 Si    c      -0.000257     -0.000360      0.001031      0.000000
     25 Si    c      -0.000113      0.000191     -0.000495      0.000000
     26 Si    c       0.000333     -0.000184     -0.000048      0.000000
     27 Si    c       0.000324     -0.000047      0.000404      0.000000
     28 Si    c       0.000232      0.000328      0.000155      0.000000
     29 Si    c       0.000181     -0.000246      0.000583      0.000000
     30 Si    c       0.000230      0.001056     -0.000527      0.000000
     31 Si    c       0.000276     -0.000144      0.000008      0.000000
     32 Si    c       0.000664      0.000031      0.000294      0.000000
     33 Si    c      -0.000274     -0.000027     -0.000307      0.000000
     34 Si    c       0.000150      0.000049     -0.000448      0.000000
     35 Si    c      -0.000237      0.000153      0.000285      0.000000
     36 Si    c       0.000254      0.000369      0.000111      0.000000
     37 Si    c      -0.000206      0.000086      0.000042      0.000000
     38 Si    c       0.000345     -0.000060     -0.000237      0.000000
     39 Si    c       0.000088     -0.000459      0.000237      0.000000
     40 Si    c       0.000238      0.000141     -0.000186      0.000000
     41 Si    c       0.000312     -0.000193      0.000328      0.000000
     42 Si    c       0.000456      0.000584      0.000581      0.000000
     43 Si    c       0.000376      0.000022      0.000439      0.000000
     44 Si    c       0.000298     -0.000743     -0.003901      0.000000
     45 Si    c      -0.000233      0.000032      0.000270      0.000000
     46 Si    c      -0.000004      0.000211     -0.000108      0.000000
     47 Si    c       0.000050      0.000333      0.000261      0.000000
     48 Si    c       0.000096      0.000171     -0.000073      0.000000
     49 Si    c       0.000365      0.000620      0.001426      0.000000
     50 Si    c       0.000247      0.000241     -0.000104      0.000000
     51 Si    c       0.000249     -0.000341      0.000611      0.000000
     52 Si    c       0.000313      0.000033     -0.000190      0.000000
     53 Si    c       0.000253      0.000589      0.000900      0.000000
     54 Si    c       0.000199     -0.000234      0.001833      0.000000
     55 Si    c       0.000316      0.000123      0.000411      0.000000
     56 Si    c       0.000416     -0.000246     -0.000850      0.000000
     57 Si    c      -0.000195      0.000201      0.000257      0.000000
     58 Ge    c      -0.000121      0.000677      0.000412      0.000000
     59 Si    c       0.000400      0.000076     -0.000327      0.000000
     60 Si    c       0.000192      0.000287     -0.000310      0.000000
     61 O2    c       0.000888     -0.000635      0.001329      0.000000
     62 O2    c       0.000355      0.000201      0.000071      0.000000
     63 O2    c      -0.000642     -0.000097      0.000632      0.000000
     64 O2    c       0.000217     -0.000069      0.000246      0.000000
     65 O3    c      -0.000576     -0.000401      0.000776      0.000000
     66 O2    c       0.000431      0.000040      0.000104      0.000000
     67 O2    c       0.000442      0.000156      0.000443      0.000000
     68 O2    c      -0.000324     -0.000011      0.000581      0.000000
     69 O2    c       0.000103      0.000390      0.000476      0.000000
     70 O2    c       0.000036      0.000165      0.000154      0.000000
     71 O2    c      -0.000394     -0.000460      0.001808      0.000000
     72 O2    c       0.000272      0.000175      0.000138      0.000000
     73 O3    c      -0.000668     -0.001763      0.002180      0.000000
     74 O3    c       0.000311     -0.000333      0.000152      0.000000
     75 O2    c       0.000101      0.000242     -0.000039      0.000000
     76 O2    c       0.000214     -0.000023      0.000608      0.000000
     77 O2    c       0.000231     -0.000103     -0.000039      0.000000
     78 O2    c       0.000104      0.000116      0.000298      0.000000
     79 O2    c       0.001184      0.000048      0.000370      0.000000
     80 O2    c       0.000255      0.000173     -0.000199      0.000000
     81 O2    c      -0.000006     -0.000337      0.000308      0.000000
     82 O2    c       0.000364     -0.000074     -0.000116      0.000000
     83 O2    c       0.000689     -0.000460      0.000479      0.000000
     84 O2    c       0.000269     -0.000207      0.000757      0.000000
     85 O2    c       0.000383      0.000116      0.000329      0.000000
     86 O2    c       0.002260     -0.001503     -0.002386      0.000000
     87 O2    c      -0.000408      0.000010      0.000328      0.000000
     88 O3    c      -0.000236     -0.000249      0.001225      0.000000
     89 O2    c       0.000255      0.000131      0.000219      0.000000
     90 O2    c       0.000297      0.000054      0.000377      0.000000
     91 O2    c       0.000174      0.000158     -0.000542      0.000000
     92 O2    c      -0.000023      0.000078     -0.001424      0.000000
     93 O3    c       0.000198     -0.001285     -0.008242      0.000000
     94 O2    c      -0.000459      0.000023     -0.002067      0.000000
     95 O2    c       0.000491      0.000506      0.006679      0.000000
     96 O2    c       0.000276     -0.000049      0.000049      0.000000
     97 O2    c      -0.001650      0.001301     -0.000407      0.000000
     98 O2    c       0.000067      0.000030      0.000676      0.000000
     99 O2    c       0.000301     -0.000316      0.000590      0.000000
    100 O2    c       0.000213      0.000102      0.000426      0.000000
    101 O2    c      -0.000097      0.000771      0.000743      0.000000
    102 O2    c       0.000302      0.000068      0.000640      0.000000
    103 O2    c       0.000415      0.000248     -0.000087      0.000000
    104 O2    c      -0.002027      0.000038     -0.000629      0.000000
    105 O2    c      -0.000229     -0.000076      0.000483      0.000000
    106 O3    c      -0.000219      0.000156      0.000573      0.000000
    107 O2    c       0.000279      0.000071     -0.000313      0.000000
    108 O2    c       0.000106      0.000206      0.000607      0.000000
    109 O2    c       0.000359      0.000099      0.000724      0.000000
    110 O2    c      -0.000101      0.000083      0.000690      0.000000
    111 O2    c       0.000103     -0.000000      0.000346      0.000000
    112 O2    c       0.000114     -0.000264     -0.000256      0.000000
    113 O3    c      -0.003154     -0.001046     -0.001071      0.000000
    114 O2    c       0.000050      0.000199     -0.000254      0.000000
    115 O2    c      -0.000438     -0.000115      0.000534      0.000000
    116 O2    c       0.000257      0.000213     -0.000046      0.000000
    117 O3    c       0.000287     -0.000138     -0.000035      0.000000
    118 O2    c       0.000304     -0.000096     -0.000118      0.000000
    119 O2    c       0.000137      0.000019      0.000134      0.000000
    120 O2    c       0.000107      0.000597      0.000492      0.000000
    121 O2    c       0.000391      0.000086      0.000274      0.000000
    122 O2    c       0.000584      0.000657     -0.000674      0.000000
    123 O2    c      -0.000381      0.000164      0.000360      0.000000
    124 O2    c      -0.000022      0.000122     -0.000167      0.000000
    125 O2    c       0.000306      0.000183      0.000416      0.000000
    126 O2    c       0.000219      0.000013      0.000215      0.000000
    127 O3    c       0.000241     -0.000618     -0.000662      0.000000
    128 O2    c       0.000103      0.000204      0.000302      0.000000
    129 O2    c       0.000078     -0.000398      0.000318      0.000000
    130 O2    c       0.000303     -0.000003      0.000522      0.000000
    131 O2    c       0.000076      0.000187     -0.000188      0.000000
    132 O2    c       0.000311      0.000133      0.000510      0.000000
    133 O2    c       0.000364      0.000305     -0.000130      0.000000
    134 O2    c       0.000119      0.000040      0.000334      0.000000
    135 O2    c      -0.000228     -0.000019      0.000192      0.000000
    136 O2    c      -0.000004      0.000014     -0.000120      0.000000
    137 O2    c       0.000343      0.000154     -0.000447      0.000000
    138 O2    c       0.000311      0.000220      0.000860      0.000000
    139 O3    c      -0.001405     -0.001422     -0.001854      0.000000
    140 O2    c       0.000364      0.000227      0.000310      0.000000
    141 O2    c      -0.000220     -0.000148      0.000362      0.000000
    142 O2    c      -0.000013      0.000154      0.000351      0.000000
    143 O2    c       0.000099     -0.000026     -0.000148      0.000000
    144 O2    c       0.000230      0.000256      0.000215      0.000000
    145 O2    c       0.000336      0.000177     -0.000104      0.000000
    146 O2    c       0.000068      0.000113      0.000109      0.000000
    147 O2    c      -0.000042     -0.000204      0.000083      0.000000
    148 O2    c       0.000233     -0.000161      0.000216      0.000000
    149 O2    c       0.000132      0.000036     -0.000152      0.000000
    150 O2    c       0.000153     -0.000112      0.000548      0.000000
    151 O2    c      -0.000100      0.000224      0.000276      0.000000
    152 O2    c       0.000277      0.000070      0.000308      0.000000
    153 O2    c       0.000245     -0.000178      0.000142      0.000000
    154 O2    c       0.000119     -0.000025      0.000075      0.000000
    155 O2    c       0.000249     -0.000226     -0.000418      0.000000
    156 O2    c      -0.000057      0.000020     -0.001010      0.000000
    157 O2    c       0.000396      0.000176     -0.000377      0.000000
    158 O2    c       0.000330      0.000809      0.003636      0.000000
    159 O2    c      -0.000235      0.000089     -0.000241      0.000000
    160 O2    c       0.000209     -0.000117      0.000071      0.000000
    161 O2    c      -0.000009      0.000027     -0.000983      0.000000
    162 O2    c       0.000300      0.000143     -0.000293      0.000000
    163 O2    c       0.000261      0.000128      0.000271      0.000000
    164 O2    c       0.000319      0.000173     -0.000335      0.000000
    165 O3    c      -0.000055     -0.000223     -0.000165      0.000000
    166 O2    c       0.000330      0.000144     -0.000269      0.000000
    167 O2    c      -0.000013      0.000088     -0.000013      0.000000
    168 O2    c       0.000460     -0.000111     -0.000001      0.000000
    169 O2    c       0.000354      0.000047      0.000537      0.000000
    170 O2    c       0.000288      0.000031     -0.000416      0.000000
    171 O2    c      -0.000041     -0.000202      0.000587      0.000000
    172 O2    c       0.000130      0.000117     -0.000209      0.000000
    173 O2    c       0.000344     -0.000018      0.000222      0.000000
    174 O2    c       0.000284      0.000065     -0.000033      0.000000
    175 O2    c       0.000233      0.000159      0.000059      0.000000
    176 O3    c       0.000377     -0.000176     -0.000809      0.000000
    177 O2    c       0.000391     -0.000049     -0.002203      0.000000
    178 O2    c      -0.000136      0.000170      0.000495      0.000000
    179 O2    c       0.000316      0.000393      0.000681      0.000000
    180 O2    c       0.000396     -0.000024      0.000531      0.000000
    181 F     c       0.000308      0.000115      0.000065      0.000000
    182 F     c      -0.000106     -0.000016      0.000521      0.000000
    183 F     c       0.000062      0.000068      0.000099      0.000000
    184 F     c      -0.000096     -0.000067     -0.000067      0.000000
    185 F     c       0.000169      0.000069     -0.001454      0.000000
    186 F     c       0.000275      0.000109      0.000027      0.000000
    187 O2    s       0.000567      0.000318      0.000698      0.000000
    188 O2    s       0.000461      0.000274     -0.000231      0.000000
    189 O2    s      -0.000350     -0.000175     -0.000554      0.000000
    190 O2    s       0.000316      0.000095     -0.000555      0.000000
    191 O3    s       0.000197     -0.000400     -0.000911      0.000000
    192 O2    s       0.000170      0.000382      0.000653      0.000000
    193 O2    s       0.000573      0.000341     -0.000509      0.000000
    194 O2    s      -0.000136     -0.000176     -0.000712      0.000000
    195 O2    s       0.000484     -0.000256     -0.001322      0.000000
    196 O2    s      -0.000154      0.000191     -0.000309      0.000000
    197 O2    s       0.000221     -0.000117      0.003473      0.000000
    198 O2    s       0.000231      0.000224     -0.000298      0.000000
    199 O3    s       0.000880      0.001291      0.000217      0.000000
    200 O3    s      -0.000208     -0.000361     -0.000548      0.000000
    201 O2    s       0.000153      0.000191      0.000005      0.000000
    202 O2    s       0.000392     -0.000102     -0.000532      0.000000
    203 O2    s       0.000425      0.000005     -0.000216      0.000000
    204 O2    s       0.000021      0.000226     -0.000727      0.000000
    205 O2    s       0.001349      0.000585     -0.000488      0.000000
    206 O2    s       0.000185      0.000313     -0.000608      0.000000
    207 O2    s      -0.000060     -0.000289     -0.000911      0.000000
    208 O2    s       0.000380     -0.000080     -0.000638      0.000000
    209 O2    s       0.000701     -0.000031     -0.000992      0.000000
    210 O2    s       0.000168      0.000124      0.000746      0.000000
    211 O2    s       0.000447      0.000147      0.000669      0.000000
    212 O2    s       0.001798     -0.000964     -0.003899      0.000000
    213 O2    s      -0.000297     -0.000137     -0.000111      0.000000
    214 O3    s       0.000027     -0.000219     -0.000580      0.000000
    215 O2    s       0.000384      0.000180      0.000156      0.000000
    216 O2    s       0.000429      0.000058      0.001031      0.000000
    217 O2    s       0.000519      0.000192      0.000291      0.000000
    218 O2    s       0.000060      0.000052     -0.000377      0.000000
    219 O3    s       0.000216     -0.001060     -0.001448      0.000000
    220 O2    s       0.000002     -0.000195     -0.001035      0.000000
    221 O2    s      -0.000498      0.001700      0.003697      0.000000
    222 O2    s       0.000414      0.000024      0.000087      0.000000
    223 O2    s      -0.001131      0.001356      0.000992      0.000000
    224 O2    s       0.000310      0.000046      0.000856      0.000000
    225 O2    s       0.000209     -0.000334      0.000358      0.000000
    226 O2    s       0.000362      0.000050     -0.000071      0.000000
    227 O2    s       0.000575      0.000342      0.000677      0.000000
    228 O2    s       0.000001      0.000370      0.000522      0.000000
    229 O2    s       0.000434      0.000245     -0.000565      0.000000
    230 O2    s      -0.002367      0.000488     -0.001609      0.000000
    231 O2    s      -0.000230     -0.000050     -0.000900      0.000000
    232 O3    s      -0.000423      0.000584     -0.001666      0.000000
    233 O2    s       0.000251      0.000251     -0.000540      0.000000
    234 O2    s       0.000630     -0.000083      0.001220      0.000000
    235 O2    s       0.000458      0.000467     -0.000362      0.000000
    236 O2    s       0.000249     -0.000215      0.000074      0.000000
    237 O2    s       0.000487     -0.000280     -0.000743      0.000000
    238 O2    s      -0.000238     -0.000068     -0.000148      0.000000
    239 O3    s       0.001408      0.001081     -0.000823      0.000000
    240 O2    s       0.000053      0.000296      0.000181      0.000000
    241 O2    s      -0.000829      0.000963     -0.001830      0.000000
    242 O2    s       0.000160      0.000242     -0.000497      0.000000
    243 O3    s      -0.000000     -0.000131     -0.001075      0.000000
    244 O2    s       0.000341     -0.000026     -0.000584      0.000000
    245 O2    s       0.000119      0.000098     -0.001017      0.000000
    246 O2    s       0.000899     -0.000380      0.001004      0.000000
    247 O2    s       0.000655      0.000042      0.000540      0.000000
    248 O2    s       0.000311      0.000235     -0.001957      0.000000
    249 O2    s      -0.000070     -0.000222      0.000427      0.000000
    250 O2    s      -0.000128      0.000016      0.000984      0.000000
    251 O2    s       0.000306      0.000075      0.000033      0.000000
    252 O2    s       0.000594     -0.000055      0.001163      0.000000
    253 O3    s       0.000342      0.000245     -0.000935      0.000000
    254 O2    s       0.000203      0.000224      0.000678      0.000000
    255 O2    s      -0.000260     -0.000041      0.000649      0.000000
    256 O2    s       0.000269      0.000006     -0.000198      0.000000
    257 O2    s       0.000121      0.000136      0.000667      0.000000
    258 O2    s       0.000332      0.000239      0.000924      0.000000
    259 O2    s       0.000558      0.000290     -0.000875      0.000000
    260 O2    s       0.000597     -0.000456     -0.000893      0.000000
    261 O2    s      -0.000051     -0.000085     -0.000695      0.000000
    262 O2    s      -0.000026     -0.000133     -0.001182      0.000000
    263 O2    s       0.000174      0.000138     -0.000595      0.000000
    264 O2    s      -0.000091     -0.000098      0.000645      0.000000
    265 O3    s      -0.000302     -0.000562     -0.000350      0.000000
    266 O2    s       0.000222      0.000344      0.000572      0.000000
    267 O2    s      -0.000187     -0.000260      0.000356      0.000000
    268 O2    s       0.000374     -0.000038      0.000120      0.000000
    269 O2    s       0.000172     -0.000116      0.000802      0.000000
    270 O2    s       0.000607      0.000185      0.000809      0.000000
    271 O2    s       0.000116      0.000477     -0.000567      0.000000
    272 O2    s       0.000594     -0.000111     -0.001303      0.000000
    273 O2    s      -0.000106     -0.000181     -0.000666      0.000000
    274 O2    s       0.000017      0.000039     -0.001399      0.000000
    275 O2    s       0.000203      0.000068     -0.000552      0.000000
    276 O2    s       0.000118     -0.000341      0.002339      0.000000
    277 O2    s       0.000408     -0.000097      0.000806      0.000000
    278 O2    s       0.000007      0.000390      0.000173      0.000000
    279 O2    s       0.000086     -0.000040      0.000306      0.000000
    280 O2    s       0.000271      0.000036      0.000409      0.000000
    281 O2    s      -0.000106      0.000187      0.000884      0.000000
    282 O2    s       0.000982     -0.000723      0.000278      0.000000
    283 O2    s       0.000494      0.000254      0.000108      0.000000
    284 O2    s       0.000137      0.000478      0.002641      0.000000
    285 O2    s      -0.000344     -0.000009      0.000401      0.000000
    286 O2    s      -0.000093     -0.000305     -0.000136      0.000000
    287 O2    s       0.000315     -0.000158     -0.000392      0.000000
    288 O2    s       0.000898      0.000075     -0.000091      0.000000
    289 O2    s      -0.000229      0.000045     -0.001111      0.000000
    290 O2    s       0.000448      0.000111     -0.000676      0.000000
    291 O3    s      -0.000026     -0.000266     -0.000388      0.000000
    292 O2    s       0.000462      0.000063     -0.000653      0.000000
    293 O2    s      -0.000089      0.000370     -0.001163      0.000000
    294 O2    s       0.000376     -0.000127      0.000711      0.000000
    295 O2    s       0.000448      0.000103      0.000802      0.000000
    296 O2    s       0.000798     -0.000643     -0.000873      0.000000
    297 O2    s      -0.000114     -0.000085      0.000372      0.000000
    298 O2    s       0.000069      0.000070      0.001183      0.000000
    299 O2    s       0.000293     -0.000009      0.000160      0.000000
    300 O2    s       0.000361      0.000005      0.001041      0.000000
    301 O2    s       0.000456     -0.000162      0.000296      0.000000
    302 O3    s       0.000435      0.000132      0.000047      0.000000
    303 O2    s      -0.000460      0.000993     -0.001501      0.000000
    304 O2    s       0.000014      0.000068     -0.000091      0.000000
    305 O2    s       0.000834     -0.000383      0.000526      0.000000
    306 O2    s       0.000735     -0.000018     -0.000022      0.000000
    307 F     s       0.000386      0.000155      0.000239      0.000000
    308 F     s      -0.000258     -0.000013      0.000641      0.000000
    309 F     s       0.000334     -0.000190      0.000447      0.000000
    310 F     s      -0.000170     -0.000018      0.000171      0.000000
    311 F     s      -0.001093      0.000209     -0.002072      0.000000
    312 F     s       0.000277      0.000120      0.000026      0.000000
--------------------------------------------------------------------------------
  Maximum abs         0.003154      0.001763      0.008744      0.000000
--------------------------------------------------------------------------------


  Time to end of optimisation =      51.3800 seconds


  Peak dynamic memory used =      19.13 MB 


  Timing analysis for GULP :

--------------------------------------------------------------------------------
  Task / Subroutine                                          Time (Seconds)
--------------------------------------------------------------------------------
  Calculation of reciprocal space energy and derivatives          1.3863
  Calculation of real space energy and derivatives               44.6101
  Calculation of three-body energy and derivatives                4.5467
  Calculation of matrix inversion                                 0.7435
--------------------------------------------------------------------------------
  Total CPU time                                                 51.3800
--------------------------------------------------------------------------------


  Dump file written as out.res                                                 
  CIF file written as out.cif                                                 


  Job Finished at 05:43.24 30th October    2016                               

