********************************************************************************
*                       GENERAL UTILITY LATTICE PROGRAM                        *
*                                 Julian Gale                                  *
*                      Nanochemistry Research Institute                        *
*                           Department of Chemistry                            *
*                    Curtin University, Western Australia                      *
********************************************************************************
* Version = 4.2.0 * Last modified =  20th January 2014                         *
********************************************************************************
*  optimise     - perform optimisation run                                     *
*  conp         - constant pressure calculation                                *
*  qok          - running with non charge neutral cell is OK                   *
********************************************************************************

  Job Started  at 08:51.55  1st November   2016                               

  Number of CPUs =     1


  Total number of configurations input =   1

********************************************************************************
*  Input for Configuration =   1                                               *
********************************************************************************

  Formula = Ge3Si57O120F6                                               

  Number of irreducible atoms/shells =     312


  Total number atoms/shells =     312

  Dimensionality = 3               :  Bulk   


  Charge on solid   =  -6.000000 =>neutralising background added


  Cartesian lattice vectors (Angstroms) :

       11.946379    0.000000    0.000000
       -6.005300   10.390875    0.000000
       -0.331906   -0.371959   29.414635

  Cell parameters (Angstroms/Degrees):

  a =      11.9464    alpha =  90.3038
  b =      12.0014    beta  =  90.6464
  c =      29.4189    gamma = 120.0253

  Initial cell volume =        3651.336678 Angs**3

  Temperature of configuration =  0.000     K 

  Pressure of configuration =         0.000 GPa 

  Fractional coordinates of asymmetric unit :

--------------------------------------------------------------------------------
   No.  Atomic       x           y          z         Charge      Occupancy
        Label      (Frac)      (Frac)     (Frac)        (e)         (Frac)  
--------------------------------------------------------------------------------
      1 Ge    c    0.699600    0.375700    0.033890     4.00000    1.000000    
      2 Si    c    0.618977 *  0.318498 *  0.360375 *   4.00000    1.000000    
      3 Si    c    0.674865 *  0.304450 *  0.695587 *   4.00000    1.000000    
      4 Si    c    0.290538 *  0.624305 *  0.528126 *   4.00000    1.000000    
      5 Si    c    0.380883 *  0.685625 *  0.859881 *   4.00000    1.000000    
      6 Si    c    0.317825 *  0.700369 *  0.192317 *   4.00000    1.000000    
      7 Si    c    0.367898 *  0.683057 *  0.293677 *   4.00000    1.000000    
      8 Si    c    0.312140 *  0.629828 *  0.961533 *   4.00000    1.000000    
      9 Si    c    0.293738 *  0.682048 *  0.628900 *   4.00000    1.000000    
     10 Si    c    0.621331 *  0.303592 *  0.796551 *   4.00000    1.000000    
     11 Si    c    0.668959 *  0.383616 *  0.462649 *   4.00000    1.000000    
     12 Si    c    0.683060 *  0.315128 *  0.132210 *   4.00000    1.000000    
     13 Si    c    0.530057 *  0.415931 *  0.967210 *   4.00000    1.000000    
     14 Si    c    0.575863 *  0.096642 *  0.300216 *   4.00000    1.000000    
     15 Si    c    0.882677 *  0.476679 *  0.630747 *   4.00000    1.000000    
     16 Si    c    0.458409 *  0.593289 *  0.459493 *   4.00000    1.000000    
     17 Si    c    0.417673 *  0.892924 *  0.794470 *   4.00000    1.000000    
     18 Si    c    0.104136 *  0.531444 *  0.125068 *   4.00000    1.000000    
     19 Ge    c    0.426770 *  0.521591 *  0.360364 *   4.00000    1.000000    
     20 Si    c    0.090574 *  0.579273 *  0.022348 *   4.00000    1.000000    
     21 Si    c    0.469150 *  0.895050 *  0.692968 *   4.00000    1.000000    
     22 Si    c    0.589018 *  0.477333 *  0.863807 *   4.00000    1.000000    
     23 Si    c    0.880611 *  0.423311 *  0.529095 *   4.00000    1.000000    
     24 Si    c    0.526330 *  0.106667 *  0.199253 *   4.00000    1.000000    
     25 Si    c    0.303417 *  0.404425 *  0.845725 *   4.00000    1.000000    
     26 Si    c    0.598313 *  0.900721 *  0.180526 *   4.00000    1.000000    
     27 Si    c    0.088203 *  0.701503 *  0.513892 *   4.00000    1.000000    
     28 Si    c    0.700824 *  0.599169 *  0.339749 *   4.00000    1.000000    
     29 Si    c    0.396401 *  0.102268 *  0.678985 *   4.00000    1.000000    
     30 Si    c    0.883364 *  0.289602 *  0.008259 *   4.00000    1.000000    
     31 Si    c    0.386357 *  0.307543 *  0.474150 *   4.00000    1.000000    
     32 Si    c    0.888462 *  0.600975 *  0.140270 *   4.00000    1.000000    
     33 Si    c    0.699128 *  0.102258 *  0.809789 *   4.00000    1.000000    
     34 Ge    c    0.582623 *  0.688725 *  0.970120 *   4.00000    1.000000    
     35 Si    c    0.092908 *  0.405215 *  0.643536 *   4.00000    1.000000    
     36 Si    c    0.294390 *  0.887350 *  0.310325 *   4.00000    1.000000    
     37 Si    c    0.248226 *  0.345799 *  0.947014 *   4.00000    1.000000    
     38 Si    c    0.651059 *  0.895812 *  0.281847 *   4.00000    1.000000    
     39 Si    c    0.083979 *  0.754426 *  0.614764 *   4.00000    1.000000    
     40 Si    c    0.739484 *  0.666006 *  0.443038 *   4.00000    1.000000    
     41 Si    c    0.340290 *  0.093554 *  0.779589 *   4.00000    1.000000    
     42 Si    c    0.899461 *  0.248444 *  0.111392 *   4.00000    1.000000    
     43 Si    c    0.329805 *  0.243386 *  0.371765 *   4.00000    1.000000    
     44 Si    c    0.888005 *  0.660501 *  0.037850 *   4.00000    1.000000    
     45 Si    c    0.748432 *  0.096388 *  0.708898 *   4.00000    1.000000    
     46 Si    c    0.669432 *  0.761008 *  0.874910 *   4.00000    1.000000    
     47 Si    c    0.081119 *  0.343957 *  0.542675 *   4.00000    1.000000    
     48 Si    c    0.246020 *  0.907464 *  0.210031 *   4.00000    1.000000    
     49 Si    c    0.970292 *  0.121701 *  0.959893 *   4.00000    1.000000    
     50 Si    c    0.878240 *  0.843838 *  0.292760 *   4.00000    1.000000    
     51 Si    c    0.147773 *  0.035162 *  0.627154 *   4.00000    1.000000    
     52 Si    c    0.021668 *  0.880012 *  0.460756 *   4.00000    1.000000    
     53 Si    c    0.124614 *  0.157232 *  0.793289 *   4.00000    1.000000    
     54 Si    c    0.843870 *  0.972684 *  0.126796 *   4.00000    1.000000    
     55 Si    c    0.117872 *  0.957842 *  0.359519 *   4.00000    1.000000    
     56 Si    c    0.834120 *  0.881927 *  0.024099 *   4.00000    1.000000    
     57 Si    c    0.028302 *  0.158278 *  0.692434 *   4.00000    1.000000    
     58 Si    c    0.882159 *  0.034640 *  0.857998 *   4.00000    1.000000    
     59 Si    c    0.142027 *  0.125708 *  0.525921 *   4.00000    1.000000    
     60 Si    c    0.968375 *  0.852997 *  0.191511 *   4.00000    1.000000    
     61 O2    c    0.927820 *  0.004922 *  0.993660 *   0.87073    1.000000    
     62 O2    c    0.999653 *  0.925615 *  0.325830 *   0.87073    1.000000    
     63 O2    c    0.067684 *  0.080271 *  0.657963 *   0.87073    1.000000    
     64 O2    c    0.062595 *  0.005174 *  0.492084 *   0.87073    1.000000    
     65 O2    c    0.002377 *  0.081120 *  0.824803 *   0.87073    1.000000    
     66 O2    c    0.930860 *  0.934535 *  0.158067 *   0.87073    1.000000    
     67 O3    c    0.334376 *  0.563102 *  0.323483 *   1.33043    1.000000    
     68 O2    c    0.419879 *  0.768434 *  0.660734 *   0.87073    1.000000    
     69 O2    c    0.211208 *  0.656951 *  0.988906 *   0.87073    1.000000    
     70 O2    c    0.660533 *  0.424309 *  0.830675 *   0.87073    1.000000    
     71 O2    c    0.577998 *  0.237919 *  0.170834 *   0.87073    1.000000    
     72 O2    c    0.751910 *  0.347652 *  0.496891 *   0.87073    1.000000    
     73 O3    c    0.564281 *  0.328622 *  0.997004 *   1.33043    1.000000    
     74 O2    c    0.759018 *  0.428159 *  0.663552 *   0.87073    1.000000    
     75 O2    c    0.654388 *  0.223346 *  0.333181 *   0.87073    1.000000    
     76 O2    c    0.415030 *  0.664826 *  0.496667 *   0.87073    1.000000    
     77 O2    c    0.231480 *  0.581766 *  0.156968 *   0.87073    1.000000    
     78 O2    c    0.341489 *  0.767236 *  0.826092 *   0.87073    1.000000    
     79 O2    c    0.124082 *  0.218736 *  0.966236 *   0.87073    1.000000    
     80 O2    c    0.777330 *  0.893610 *  0.301802 *   0.87073    1.000000    
     81 O2    c    0.084602 *  0.881792 *  0.634056 *   0.87073    1.000000    
     82 O2    c    0.866759 *  0.790138 *  0.464434 *   0.87073    1.000000    
     83 O2    c    0.213649 *  0.092305 *  0.799569 *   0.87073    1.000000    
     84 O2    c    0.903872 *  0.126743 *  0.132887 *   0.87073    1.000000    
     85 O2    c    0.213908 *  0.108446 *  0.353167 *   0.87073    1.000000    
     86 O2    c    0.901243 *  0.793325 *  0.020300 *   0.87073    1.000000    
     87 O2    c    0.873459 *  0.095532 *  0.688233 *   0.87073    1.000000    
     88 O2    c    0.789702 *  0.881767 *  0.849457 *   0.87073    1.000000    
     89 O2    c    0.076814 *  0.215374 *  0.522591 *   0.87073    1.000000    
     90 O2    c    0.122644 *  0.912586 *  0.188861 *   0.87073    1.000000    
     91 O2    c    0.926269 *  0.867326 *  0.241581 *   0.87073    1.000000    
     92 O2    c    0.135013 *  0.070696 *  0.575748 *   0.87073    1.000000    
     93 O2    c    0.939091 *  0.068977 *  0.908514 *   0.87073    1.000000    
     94 O2    c    0.073879 *  0.144668 *  0.742143 *   0.87073    1.000000    
     95 O2    c    0.851238 *  0.935905 *  0.075703 *   0.87073    1.000000    
     96 O2    c    0.064075 *  0.926080 *  0.410111 *   0.87073    1.000000    
     97 O2    c    0.897195 *  0.200701 *  0.969791 *   0.87073    1.000000    
     98 O2    c    0.812036 *  0.692121 *  0.304248 *   0.87073    1.000000    
     99 O2    c    0.299714 *  0.105033 *  0.640134 *   0.87073    1.000000    
    100 O2    c    0.090157 *  0.799302 *  0.475747 *   0.87073    1.000000    
    101 O2    c    0.210009 *  0.308963 *  0.805739 *   0.87073    1.000000    
    102 O2    c    0.694504 *  0.900760 *  0.142120 *   0.87073    1.000000    
    103 O2    c    0.193763 *  0.881374 *  0.348770 *   0.87073    1.000000    
    104 O3    c    0.687604 *  0.806557 *  0.011632 *   1.33043    1.000000    
    105 O2    c    0.096629 *  0.309869 *  0.681671 *   0.87073    1.000000    
    106 O2    c    0.799126 *  0.105074 *  0.848109 *   0.87073    1.000000    
    107 O2    c    0.292460 *  0.212527 *  0.513040 *   0.87073    1.000000    
    108 O2    c    0.896733 *  0.701413 *  0.179047 *   0.87073    1.000000    
    109 O2    c    0.316665 *  0.637687 *  0.241110 *   0.87073    1.000000    
    110 O2    c    0.348468 *  0.682129 *  0.578528 *   0.87073    1.000000    
    111 O2    c    0.321283 *  0.683157 *  0.909341 *   0.87073    1.000000    
    112 O2    c    0.676555 *  0.360920 *  0.746306 *   0.87073    1.000000    
    113 O3    c    0.611700 *  0.303833 *  0.084993 *   1.33043    1.000000    
    114 O2    c    0.668794 *  0.327505 *  0.412614 *   0.87073    1.000000    
    115 O2    c    0.371381 *  0.337244 *  0.963726 *   0.87073    1.000000    
    116 O2    c    0.663638 *  0.028238 *  0.302244 *   0.87073    1.000000    
    117 O2    c    0.951684 *  0.632923 *  0.633104 *   0.87073    1.000000    
    118 O2    c    0.617430 *  0.677157 *  0.460274 *   0.87073    1.000000    
    119 O2    c    0.330379 *  0.961792 *  0.797773 *   0.87073    1.000000    
    120 O2    c    0.031826 *  0.376099 *  0.127624 *   0.87073    1.000000    
    121 O3    c    0.311396 *  0.353841 *  0.351049 *   1.33043    1.000000    
    122 O2    c    0.020775 *  0.664284 *  0.022278 *   0.87073    1.000000    
    123 O2    c    0.625537 *  0.964118 *  0.689879 *   0.87073    1.000000    
    124 O2    c    0.673691 *  0.632447 *  0.858980 *   0.87073    1.000000    
    125 O2    c    0.948165 *  0.335257 *  0.524329 *   0.87073    1.000000    
    126 O2    c    0.370194 *  0.039455 *  0.193388 *   0.87073    1.000000    
    127 O3    c    0.748380 *  0.279551 *  0.001116 *   1.33043    1.000000    
    128 O2    c    0.696518 *  0.460768 *  0.338481 *   0.87073    1.000000    
    129 O2    c    0.530974 *  0.236145 *  0.672511 *   0.87073    1.000000    
    130 O2    c    0.219655 *  0.697058 *  0.505757 *   0.87073    1.000000    
    131 O2    c    0.309405 *  0.540462 *  0.838818 *   0.87073    1.000000    
    132 O2    c    0.461050 *  0.770738 *  0.170416 *   0.87073    1.000000    
    133 O2    c    0.291944 *  0.752711 *  0.314995 *   0.87073    1.000000    
    134 O3    c    0.448233 *  0.706963 *  0.986235 *   1.33043    1.000000    
    135 O2    c    0.227253 *  0.539431 *  0.650883 *   0.87073    1.000000    
    136 O2    c    0.696555 *  0.234373 *  0.817920 *   0.87073    1.000000    
    137 O2    c    0.523247 *  0.312657 *  0.481615 *   0.87073    1.000000    
    138 O2    c    0.759586 *  0.465575 *  0.150162 *   0.87073    1.000000    
    139 O3    c    0.763636 *  0.541402 *  0.017140 *   1.33043    1.000000    
    140 O2    c    0.464538 *  0.253755 *  0.355715 *   0.87073    1.000000    
    141 O2    c    0.749253 *  0.223052 *  0.690226 *   0.87073    1.000000    
    142 O2    c    0.208235 *  0.467928 *  0.523364 *   0.87073    1.000000    
    143 O2    c    0.536401 *  0.754374 *  0.856793 *   0.87073    1.000000    
    144 O2    c    0.241731 *  0.780646 *  0.189145 *   0.87073    1.000000    
    145 O2    c    0.524962 *  0.771399 *  0.300188 *   0.87073    1.000000    
    146 O2    c    0.248938 *  0.473497 *  0.964526 *   0.87073    1.000000    
    147 O2    c    0.210407 *  0.754508 *  0.634497 *   0.87073    1.000000    
    148 O2    c    0.464863 *  0.221183 *  0.799800 *   0.87073    1.000000    
    149 O2    c    0.731550 *  0.537561 *  0.463113 *   0.87073    1.000000    
    150 O2    c    0.776649 *  0.252016 *  0.131347 *   0.87073    1.000000    
    151 O2    c    0.233760 *  0.336445 *  0.892106 *   0.87073    1.000000    
    152 O2    c    0.668710 *  0.897505 *  0.227393 *   0.87073    1.000000    
    153 O2    c    0.086149 *  0.772699 *  0.560411 *   0.87073    1.000000    
    154 O2    c    0.757299 *  0.673651 *  0.388851 *   0.87073    1.000000    
    155 O2    c    0.321016 *  0.095647 *  0.725154 *   0.87073    1.000000    
    156 O2    c    0.895338 *  0.230868 *  0.056995 *   0.87073    1.000000    
    157 O2    c    0.317659 *  0.236721 *  0.427028 *   0.87073    1.000000    
    158 O2    c    0.882430 *  0.666020 *  0.093408 *   0.87073    1.000000    
    159 O2    c    0.768657 *  0.098382 *  0.763258 *   0.87073    1.000000    
    160 O3    c    0.694725 *  0.790250 *  0.927445 *   1.33043    1.000000    
    161 O2    c    0.084795 *  0.328300 *  0.597050 *   0.87073    1.000000    
    162 O2    c    0.225793 *  0.901295 *  0.264418 *   0.87073    1.000000    
    163 O3    c    0.581792 *  0.552903 *  0.991873 *   1.33043    1.000000    
    164 O2    c    0.434267 *  0.011601 *  0.322607 *   0.87073    1.000000    
    165 O2    c    0.968665 *  0.420535 *  0.653212 *   0.87073    1.000000    
    166 O2    c    0.405033 *  0.448798 *  0.480022 *   0.87073    1.000000    
    167 O2    c    0.559850 *  0.976475 *  0.817905 *   0.87073    1.000000    
    168 O2    c    0.013946 *  0.584452 *  0.144742 *   0.87073    1.000000    
    169 O3    c    0.569120 *  0.589967 *  0.325579 *   1.33043    1.000000    
    170 O2    c    0.002628 *  0.436225 *  0.001615 *   0.87073    1.000000    
    171 O2    c    0.410406 *  0.977322 *  0.669279 *   0.87073    1.000000    
    172 O2    c    0.445432 *  0.423075 *  0.842212 *   0.87073    1.000000    
    173 O2    c    0.959581 *  0.563161 *  0.505374 *   0.87073    1.000000    
    174 O2    c    0.588208 *  0.029167 *  0.174277 *   0.87073    1.000000    
    175 O2    c    0.577301 *  0.156432 *  0.250798 *   0.87073    1.000000    
    176 O2    c    0.827109 *  0.421724 *  0.579774 *   0.87073    1.000000    
    177 O2    c    0.587779 *  0.430601 *  0.915077 *   0.87073    1.000000    
    178 O2    c    0.416017 *  0.840369 *  0.743320 *   0.87073    1.000000    
    179 O2    c    0.144799 *  0.576902 *  0.073207 *   0.87073    1.000000    
    180 O3    c    0.403927 *  0.596531 *  0.410645 *   1.33043    1.000000    
    181 F     c    0.446728 *  0.900576 *  0.245211 *   0.56000    1.000000    
    182 F     c    0.087207 *  0.550718 *  0.578198 *   0.56000    1.000000    
    183 F     c    0.478880 *  0.583971 *  0.920988 *   0.56000    1.000000    
    184 F     c    0.545361 *  0.100007 *  0.744017 *   0.56000    1.000000    
    185 F     c    0.850317 *  0.434304 *  0.068668 *   0.56000    1.000000    
    186 F     c    0.518713 *  0.471559 *  0.399374 *   0.56000    1.000000    
    187 O2    s    0.922882 *  0.005542 *  0.992949 *  -2.87073    1.000000    
    188 O2    s    0.999264 *  0.919934 *  0.325913 *  -2.87073    1.000000    
    189 O2    s    0.072245 *  0.083904 *  0.658355 *  -2.87073    1.000000    
    190 O2    s    0.066902 *  0.004820 *  0.492406 *  -2.87073    1.000000    
    191 O2    s    0.003040 *  0.084718 *  0.824870 *  -2.87073    1.000000    
    192 O2    s    0.925618 *  0.929589 *  0.158422 *  -2.87073    1.000000    
    193 O3    s    0.344380 *  0.573500 *  0.322717 *  -3.33043    1.000000    
    194 O2    s    0.411770 *  0.772445 *  0.660717 *  -2.87073    1.000000    
    195 O2    s    0.209024 *  0.645926 *  0.989543 *  -2.87073    1.000000    
    196 O2    s    0.649145 *  0.417152 *  0.830487 *  -2.87073    1.000000    
    197 O2    s    0.583705 *  0.232345 *  0.169716 *  -2.87073    1.000000    
    198 O2    s    0.756084 *  0.359195 *  0.496488 *  -2.87073    1.000000    
    199 O3    s    0.569911 *  0.341228 *  0.996394 *  -3.33043    1.000000    
    200 O2    s    0.763240 *  0.420613 *  0.663432 *  -2.87073    1.000000    
    201 O2    s    0.642865 *  0.220868 *  0.332808 *  -2.87073    1.000000    
    202 O2    s    0.406430 *  0.653358 *  0.496206 *  -2.87073    1.000000    
    203 O2    s    0.226594 *  0.588297 *  0.157122 *  -2.87073    1.000000    
    204 O2    s    0.353434 *  0.771796 *  0.826314 *  -2.87073    1.000000    
    205 O2    s    0.121017 *  0.221996 *  0.963550 *  -2.87073    1.000000    
    206 O2    s    0.775062 *  0.888529 *  0.298822 *  -2.87073    1.000000    
    207 O2    s    0.091183 *  0.884807 *  0.631368 *  -2.87073    1.000000    
    208 O2    s    0.869975 *  0.786782 *  0.461844 *  -2.87073    1.000000    
    209 O2    s    0.217258 *  0.099403 *  0.796845 *  -2.87073    1.000000    
    210 O2    s    0.897225 *  0.123531 *  0.130049 *  -2.87073    1.000000    
    211 O2    s    0.215942 *  0.106389 *  0.355929 *  -2.87073    1.000000    
    212 O2    s    0.892967 *  0.788096 *  0.022547 *  -2.87073    1.000000    
    213 O2    s    0.877066 *  0.102322 *  0.690786 *  -2.87073    1.000000    
    214 O2    s    0.787534 *  0.885912 *  0.852805 *  -2.87073    1.000000    
    215 O2    s    0.084131 *  0.219074 *  0.524981 *  -2.87073    1.000000    
    216 O2    s    0.118852 *  0.905656 *  0.191318 *  -2.87073    1.000000    
    217 O2    s    0.925513 *  0.863017 *  0.241802 *  -2.87073    1.000000    
    218 O2    s    0.137208 *  0.072929 *  0.575866 *  -2.87073    1.000000    
    219 O2    s    0.936056 *  0.070893 *  0.908416 *  -2.87073    1.000000    
    220 O2    s    0.074414 *  0.147630 *  0.742273 *  -2.87073    1.000000    
    221 O2    s    0.848613 *  0.934630 *  0.076340 *  -2.87073    1.000000    
    222 O2    s    0.065203 *  0.924317 *  0.410293 *  -2.87073    1.000000    
    223 O2    s    0.903700 *  0.201390 *  0.972737 *  -2.87073    1.000000    
    224 O2    s    0.807786 *  0.698443 *  0.306609 *  -2.87073    1.000000    
    225 O2    s    0.293342 *  0.097325 *  0.642684 *  -2.87073    1.000000    
    226 O2    s    0.082571 *  0.797800 *  0.478115 *  -2.87073    1.000000    
    227 O2    s    0.210826 *  0.303044 *  0.808612 *  -2.87073    1.000000    
    228 O2    s    0.700242 *  0.908326 *  0.144507 *  -2.87073    1.000000    
    229 O2    s    0.195613 *  0.890097 *  0.346132 *  -2.87073    1.000000    
    230 O3    s    0.697389 *  0.807438 *  0.010335 *  -3.33043    1.000000    
    231 O2    s    0.088985 *  0.303581 *  0.678887 *  -2.87073    1.000000    
    232 O2    s    0.797477 *  0.097434 *  0.845171 *  -2.87073    1.000000    
    233 O2    s    0.286217 *  0.213162 *  0.510396 *  -2.87073    1.000000    
    234 O2    s    0.903467 *  0.707080 *  0.176356 *  -2.87073    1.000000    
    235 O2    s    0.321801 *  0.648703 *  0.241120 *  -2.87073    1.000000    
    236 O2    s    0.336746 *  0.676095 *  0.578523 *  -2.87073    1.000000    
    237 O2    s    0.326647 *  0.678309 *  0.909160 *  -2.87073    1.000000    
    238 O2    s    0.670813 *  0.349397 *  0.746202 *  -2.87073    1.000000    
    239 O3    s    0.624811 *  0.309756 *  0.086437 *  -3.33043    1.000000    
    240 O2    s    0.663714 *  0.332559 *  0.412560 *  -2.87073    1.000000    
    241 O2    s    0.372960 *  0.345888 *  0.962154 *  -2.87073    1.000000    
    242 O2    s    0.653293 *  0.021883 *  0.299961 *  -2.87073    1.000000    
    243 O2    s    0.958369 *  0.629578 *  0.630948 *  -2.87073    1.000000    
    244 O2    s    0.614992 *  0.667890 *  0.458369 *  -2.87073    1.000000    
    245 O2    s    0.340440 *  0.968590 *  0.795497 *  -2.87073    1.000000    
    246 O2    s    0.025620 *  0.379072 *  0.125668 *  -2.87073    1.000000    
    247 O3    s    0.321074 *  0.353054 *  0.353944 *  -3.33043    1.000000    
    248 O2    s    0.015045 *  0.654665 *  0.023861 *  -2.87073    1.000000    
    249 O2    s    0.622264 *  0.970870 *  0.692199 *  -2.87073    1.000000    
    250 O2    s    0.664471 *  0.629173 *  0.861073 *  -2.87073    1.000000    
    251 O2    s    0.954987 *  0.345258 *  0.526737 *  -2.87073    1.000000    
    252 O2    s    0.373164 *  0.032413 *  0.195763 *  -2.87073    1.000000    
    253 O3    s    0.760043 *  0.286777 *  0.004070 *  -3.33043    1.000000    
    254 O2    s    0.688906 *  0.459764 *  0.340902 *  -2.87073    1.000000    
    255 O2    s    0.531644 *  0.229125 *  0.675590 *  -2.87073    1.000000    
    256 O2    s    0.212977 *  0.690014 *  0.508945 *  -2.87073    1.000000    
    257 O2    s    0.316105 *  0.540836 *  0.841724 *  -2.87073    1.000000    
    258 O2    s    0.460540 *  0.776999 *  0.173762 *  -2.87073    1.000000    
    259 O2    s    0.299707 *  0.760527 *  0.312353 *  -2.87073    1.000000    
    260 O3    s    0.442852 *  0.697563 *  0.982490 *  -3.33043    1.000000    
    261 O2    s    0.219897 *  0.539938 *  0.647805 *  -2.87073    1.000000    
    262 O2    s    0.689004 *  0.227580 *  0.814785 *  -2.87073    1.000000    
    263 O2    s    0.524271 *  0.319618 *  0.478832 *  -2.87073    1.000000    
    264 O2    s    0.765873 *  0.465396 *  0.147337 *  -2.87073    1.000000    
    265 O3    s    0.773108 *  0.543485 *  0.020406 *  -3.33043    1.000000    
    266 O2    s    0.467551 *  0.259899 *  0.357855 *  -2.87073    1.000000    
    267 O2    s    0.741321 *  0.217813 *  0.692766 *  -2.87073    1.000000    
    268 O2    s    0.202920 *  0.470633 *  0.525901 *  -2.87073    1.000000    
    269 O2    s    0.533221 *  0.747603 *  0.858947 *  -2.87073    1.000000    
    270 O2    s    0.250154 *  0.785966 *  0.191700 *  -2.87073    1.000000    
    271 O2    s    0.523412 *  0.776673 *  0.297549 *  -2.87073    1.000000    
    272 O2    s    0.255206 *  0.475191 *  0.962356 *  -2.87073    1.000000    
    273 O2    s    0.205206 *  0.746868 *  0.631808 *  -2.87073    1.000000    
    274 O2    s    0.467768 *  0.215949 *  0.797280 *  -2.87073    1.000000    
    275 O2    s    0.725547 *  0.534679 *  0.460924 *  -2.87073    1.000000    
    276 O2    s    0.780809 *  0.258109 *  0.129226 *  -2.87073    1.000000    
    277 O2    s    0.242760 *  0.344763 *  0.892752 *  -2.87073    1.000000    
    278 O2    s    0.659416 *  0.897669 *  0.228221 *  -2.87073    1.000000    
    279 O2    s    0.086116 *  0.763191 *  0.561290 *  -2.87073    1.000000    
    280 O2    s    0.749826 *  0.665586 *  0.389977 *  -2.87073    1.000000    
    281 O2    s    0.330973 *  0.096124 *  0.726039 *  -2.87073    1.000000    
    282 O2    s    0.894595 *  0.238540 *  0.058018 *  -2.87073    1.000000    
    283 O2    s    0.326318 *  0.245099 *  0.426618 *  -2.87073    1.000000    
    284 O2    s    0.883550 *  0.658312 *  0.093051 *  -2.87073    1.000000    
    285 O2    s    0.759286 *  0.098581 *  0.762270 *  -2.87073    1.000000    
    286 O3    s    0.684843 *  0.780585 *  0.924543 *  -3.33043    1.000000    
    287 O2    s    0.085240 *  0.337995 *  0.596101 *  -2.87073    1.000000    
    288 O2    s    0.234979 *  0.900551 *  0.263426 *  -2.87073    1.000000    
    289 O3    s    0.576422 *  0.549829 *  0.987760 *  -3.33043    1.000000    
    290 O2    s    0.434368 *  0.007352 *  0.319029 *  -2.87073    1.000000    
    291 O2    s    0.973227 *  0.424967 *  0.649803 *  -2.87073    1.000000    
    292 O2    s    0.408347 *  0.447401 *  0.477342 *  -2.87073    1.000000    
    293 O2    s    0.559890 *  0.981384 *  0.814562 *  -2.87073    1.000000    
    294 O2    s    0.010053 *  0.580417 *  0.142139 *  -2.87073    1.000000    
    295 O3    s    0.573975 *  0.586214 *  0.329405 *  -3.33043    1.000000    
    296 O2    s    0.999952 *  0.436900 *  0.004537 *  -2.87073    1.000000    
    297 O2    s    0.415158 *  0.982389 *  0.672764 *  -2.87073    1.000000    
    298 O2    s    0.444674 *  0.426776 *  0.844850 *  -2.87073    1.000000    
    299 O2    s    0.965137 *  0.563315 *  0.508742 *  -2.87073    1.000000    
    300 O2    s    0.582740 *  0.023368 *  0.177524 *  -2.87073    1.000000    
    301 O2    s    0.571745 *  0.144854 *  0.250614 *  -2.87073    1.000000    
    302 O2    s    0.838411 *  0.427550 *  0.579740 *  -2.87073    1.000000    
    303 O2    s    0.582655 *  0.434417 *  0.914306 *  -2.87073    1.000000    
    304 O2    s    0.421726 *  0.851573 *  0.743419 *  -2.87073    1.000000    
    305 O2    s    0.135053 *  0.572349 *  0.073498 *  -2.87073    1.000000    
    306 O3    s    0.411186 *  0.591431 *  0.412635 *  -3.33043    1.000000    
    307 F     s    0.446700 *  0.901012 *  0.245116 *  -1.56000    1.000000    
    308 F     s    0.087245 *  0.550645 *  0.578121 *  -1.56000    1.000000    
    309 F     s    0.485564 *  0.591243 *  0.924005 *  -1.56000    1.000000    
    310 F     s    0.545323 *  0.100153 *  0.743950 *  -1.56000    1.000000    
    311 F     s    0.839341 *  0.430034 *  0.066269 *  -1.56000    1.000000    
    312 F     s    0.512533 *  0.475197 *  0.396740 *  -1.56000    1.000000    
--------------------------------------------------------------------------------



********************************************************************************
*  General input information                                                   *
********************************************************************************

  Species output for all configurations : 

--------------------------------------------------------------------------------
  Species    Type    Atomic    Atomic    Charge       Radii (Angs)     Library
                     Number     Mass       (e)     Cova   Ionic  VDW   Symbol
--------------------------------------------------------------------------------
    Si       Core       14      28.09   4.000000   1.200  0.000  2.100          
    O1       Core        8      16.00   1.733957   0.730  0.000  1.360          
    O1       Shell       8       0.00  -3.733957   0.730  0.000  1.360          
    O2       Core        8      16.00   0.870733   0.730  0.000  1.360          
    O2       Shell       8       0.00  -2.870733   0.730  0.000  1.360          
    O3       Core        8      16.00   1.330431   0.730  0.000  1.360          
    O3       Shell       8       0.00  -3.330431   0.730  0.000  1.360          
    F        Core        9      19.00   0.560000   0.710  0.000  1.300          
    F        Shell       9       0.00  -1.560000   0.710  0.000  1.300          
    Ge       Core       32      72.61   4.000000   1.170  0.000  1.750          
--------------------------------------------------------------------------------


  Lattice summation method               =    Ewald          (3-D)
                                         =    Parry          (2-D)
                                         =    Saunders et al (1-D)
  Accuracy factor for lattice sums       =   12.000


  Time limit = Infinity

  Maximum range for interatomic potentials =        16.000000 Angstroms

  Taper potentials to zero over   1.0000 Angstroms using polynomial

  General interatomic potentials :

--------------------------------------------------------------------------------
Atom  Types   Potential         A         B         C         D     Cutoffs(Ang)
  1     2                                                            Min    Max 
--------------------------------------------------------------------------------
Si   c O1   s Buckingham    0.132E+04 0.318      10.1      0.00     0.000 16.000
Si   c O2   s Buckingham    0.132E+04 0.318      10.1      0.00     0.000 16.000
Si   c O3   s Buckingham    0.132E+04 0.318      10.1      0.00     0.000 16.000
Ge   c O1   s Buckingham    0.150E+04 0.326      16.8      0.00     0.000 16.000
Ge   c O2   s Buckingham    0.150E+04 0.326      16.8      0.00     0.000 16.000
Ge   c O3   s Buckingham    0.150E+04 0.326      16.8      0.00     0.000 16.000
O1   s O1   s Buckingham    0.228E+05 0.149      10.9      0.00     0.000 16.000
O1   s O2   s Buckingham    0.228E+05 0.149      10.9      0.00     0.000 16.000
O1   s O3   s Buckingham    0.228E+05 0.149      10.9      0.00     0.000 16.000
O2   s O2   s Buckingham    0.228E+05 0.149      10.9      0.00     0.000 16.000
O2   s O3   s Buckingham    0.228E+05 0.149      10.9      0.00     0.000 16.000
O3   s O3   s Buckingham    0.228E+05 0.149      10.9      0.00     0.000 16.000
Si   c F    s Buckingham     977.     0.282      0.00      0.00     0.000 16.000
Ge   c F    s Buckingham     681.     0.320      0.00      0.00     0.000 16.000
F    s F    s Buckingham     540.     0.262      0.00      0.00     0.000 16.000
O1   s F    s Buckingham    0.168E+04 0.268      0.00      0.00     0.000 16.000
O2   s F    s Buckingham    0.168E+04 0.268      0.00      0.00     0.000 16.000
O3   s F    s Buckingham    0.168E+04 0.268      0.00      0.00     0.000 16.000
O2   c O2   s Spring (c-s)   76.0      0.00      0.00      0.00     0.000  0.800
O3   c O3   s Spring (c-s)   128.      0.00      0.00      0.00     0.000  0.800
O1   c O1   s Spring (c-s)   180.      0.00      0.00      0.00     0.000  0.800
F    c F    s Spring (c-s)   33.5      0.00      0.00      0.00     0.000  0.800
--------------------------------------------------------------------------------

  General Three-body potentials :

  Harmonic form:

--------------------------------------------------------------------------------
Atom    Atom    Atom           Force Constants            Theta     Cutoffs  
  1       2       3     (eVrad**-2/eVrad**-3/eVrad**-4)   (deg)  1-2  1-3  2-3
--------------------------------------------------------------------------------
Si    c O1    s O1    s  1.261        0.0000    0.0000   109.470 0.00 0.00 0.00
                                                                 1.90 1.90 3.50
Si    c O1    s O2    s  1.261        0.0000    0.0000   109.470 0.00 0.00 0.00
                                                                 1.90 1.90 3.50
Si    c O2    s O2    s  1.261        0.0000    0.0000   109.470 0.00 0.00 0.00
                                                                 1.90 1.90 3.50
--------------------------------------------------------------------------------

********************************************************************************
*  Output for configuration   1                                                *
********************************************************************************


  Components of energy : 

--------------------------------------------------------------------------------
  Interatomic potentials     =        2067.44927122 eV
  Three-body potentials      =           0.46823015 eV
  Monopole - monopole (real) =       -6616.01164502 eV
  Monopole - monopole (recip)=       -3172.92676772 eV
  Monopole - monopole (total)=       -9788.93841275 eV
  Neutralising energy        =          -6.46325541 eV
--------------------------------------------------------------------------------
  Total lattice energy       =       -7727.48416679 eV
--------------------------------------------------------------------------------
  Total lattice energy       =         -745584.0967 kJ/(mole unit cells)
--------------------------------------------------------------------------------


  Number of variables =      939

  Maximum number of calculations  =          5000
  Maximum Hessian update interval =            10
  Maximum step size               =   0.100000000
  Maximum parameter tolerance     =   0.000010000
  Maximum function  tolerance     =   0.000010000
  Maximum gradient  tolerance     =   0.001000000
  Maximum gradient  component     =   0.010000000

  Symmetry not applied to optimisation

  Cell parameters to be optimised using strains

  Newton-Raphson optimiser to be used

  BFGS hessian update to be used

  Dumpfile to be written after every cycle

  Start of bulk optimisation :

  Cycle:      0 Energy:     -7727.484167  Gnorm:      0.009314  CPU:    2.015
  ** Hessian calculated **
  Cycle:      1 Energy:     -7727.507497  Gnorm:      0.006456  CPU:    6.651
  Cycle:      2 Energy:     -7727.523211  Gnorm:      0.003386  CPU:   10.911
  Cycle:      3 Energy:     -7727.527043  Gnorm:      0.001788  CPU:   15.169
  Cycle:      4 Energy:     -7727.528000  Gnorm:      0.000923  CPU:   19.428
  Cycle:      5 Energy:     -7727.528242  Gnorm:      0.000471  CPU:   23.687
  Cycle:      6 Energy:     -7727.528304  Gnorm:      0.000238  CPU:   27.945
  Cycle:      7 Energy:     -7727.528314  Gnorm:      0.000167  CPU:   30.818
  Cycle:      8 Energy:     -7727.528319  Gnorm:      0.000117  CPU:   33.690
  Cycle:      9 Energy:     -7727.528322  Gnorm:      0.000082  CPU:   36.563
  Cycle:     10 Energy:     -7727.528323  Gnorm:      0.000057  CPU:   39.436
  ** Hessian calculated **


  **** Optimisation achieved ****


  Final energy =   -7727.52832294 eV
  Final Gnorm  =       0.00002340

  Components of energy : 

--------------------------------------------------------------------------------
  Interatomic potentials     =        2067.30775699 eV
  Three-body potentials      =           0.47696103 eV
  Monopole - monopole (real) =       -6616.17207380 eV
  Monopole - monopole (recip)=       -3172.67821624 eV
  Monopole - monopole (total)=       -9788.85029004 eV
  Neutralising energy        =          -6.46275092 eV
--------------------------------------------------------------------------------
  Total lattice energy       =       -7727.52832294 eV
--------------------------------------------------------------------------------
  Total lattice energy       =         -745588.3571 kJ/(mole unit cells)
--------------------------------------------------------------------------------

  Final fractional coordinates of atoms :

--------------------------------------------------------------------------------
   No.  Atomic        x           y          z          Radius
        Label       (Frac)      (Frac)     (Frac)       (Angs) 
--------------------------------------------------------------------------------
     1  Ge    c     0.699600    0.375700    0.033890    0.000000
     2  Si    c     0.606132    0.317920    0.361865    0.000000
     3  Si    c     0.668789    0.308076    0.697385    0.000000
     4  Si    c     0.278525    0.624654    0.529634    0.000000
     5  Si    c     0.375879    0.689353    0.861086    0.000000
     6  Si    c     0.311817    0.703581    0.193160    0.000000
     7  Si    c     0.360941    0.685881    0.294729    0.000000
     8  Si    c     0.307988    0.633440    0.962852    0.000000
     9  Si    c     0.286111    0.685192    0.630529    0.000000
    10  Si    c     0.617889    0.308165    0.798426    0.000000
    11  Si    c     0.657294    0.385146    0.464249    0.000000
    12  Si    c     0.676733    0.314319    0.132465    0.000000
    13  Si    c     0.530318    0.422865    0.968885    0.000000
    14  Si    c     0.568011    0.098772    0.301109    0.000000
    15  Si    c     0.875347    0.480090    0.632774    0.000000
    16  Si    c     0.445147    0.593104    0.460769    0.000000
    17  Si    c     0.414448    0.898022    0.796161    0.000000
    18  Si    c     0.097935    0.532677    0.125980    0.000000
    19  Ge    c     0.412518    0.519608    0.361640    0.000000
    20  Si    c     0.085119    0.580052    0.023119    0.000000
    21  Si    c     0.463703    0.899517    0.694351    0.000000
    22  Si    c     0.585715    0.482806    0.865126    0.000000
    23  Si    c     0.869365    0.424300    0.531037    0.000000
    24  Si    c     0.518573    0.108355    0.199964    0.000000
    25  Si    c     0.299471    0.408661    0.847014    0.000000
    26  Si    c     0.591866    0.903618    0.181056    0.000000
    27  Si    c     0.076224    0.701940    0.515752    0.000000
    28  Si    c     0.685884    0.597338    0.340678    0.000000
    29  Si    c     0.390269    0.106314    0.680507    0.000000
    30  Si    c     0.881230    0.289369    0.008866    0.000000
    31  Si    c     0.374466    0.308414    0.475506    0.000000
    32  Si    c     0.880990    0.600614    0.140584    0.000000
    33  Si    c     0.696266    0.107504    0.811619    0.000000
    34  Ge    c     0.579136    0.694233    0.971105    0.000000
    35  Si    c     0.085758    0.408863    0.645444    0.000000
    36  Si    c     0.287086    0.889806    0.311605    0.000000
    37  Si    c     0.247128    0.350787    0.948506    0.000000
    38  Si    c     0.643608    0.898705    0.282680    0.000000
    39  Si    c     0.075813    0.757210    0.616711    0.000000
    40  Si    c     0.726435    0.666577    0.444057    0.000000
    41  Si    c     0.336899    0.098448    0.781380    0.000000
    42  Si    c     0.894916    0.249674    0.112514    0.000000
    43  Si    c     0.316765    0.242330    0.373010    0.000000
    44  Si    c     0.882195    0.660983    0.037994    0.000000
    45  Si    c     0.743063    0.100965    0.710463    0.000000
    46  Si    c     0.664986    0.765786    0.875833    0.000000
    47  Si    c     0.069948    0.344713    0.544485    0.000000
    48  Si    c     0.238682    0.909397    0.211080    0.000000
    49  Si    c     0.970562    0.123588    0.961002    0.000000
    50  Si    c     0.866612    0.840852    0.293814    0.000000
    51  Si    c     0.140420    0.038019    0.628590    0.000000
    52  Si    c     0.009511    0.880112    0.462097    0.000000
    53  Si    c     0.120473    0.160901    0.794570    0.000000
    54  Si    c     0.837853    0.974242    0.127936    0.000000
    55  Si    c     0.107664    0.956307    0.360938    0.000000
    56  Si    c     0.831712    0.885487    0.025059    0.000000
    57  Si    c     0.022516    0.162267    0.693840    0.000000
    58  Si    c     0.878967    0.038121    0.859153    0.000000
    59  Si    c     0.130837    0.126425    0.527285    0.000000
    60  Si    c     0.959514    0.851649    0.192738    0.000000
    61  O2    c     0.929503    0.008112    0.995240    0.000000
    62  O2    c     0.988244    0.919449    0.327205    0.000000
    63  O2    c     0.060827    0.084533    0.658879    0.000000
    64  O2    c     0.050754    0.006076    0.493179    0.000000
    65  O2    c     0.997853    0.083809    0.825615    0.000000
    66  O2    c     0.922095    0.934319    0.159909    0.000000
    67  O3    c     0.324104    0.565154    0.324412    0.000000
    68  O2    c     0.413357    0.772651    0.662033    0.000000
    69  O2    c     0.205792    0.658769    0.990004    0.000000
    70  O2    c     0.657352    0.429372    0.832352    0.000000
    71  O2    c     0.571028    0.238532    0.170967    0.000000
    72  O2    c     0.740102    0.349364    0.498794    0.000000
    73  O3    c     0.563121    0.332927    0.997527    0.000000
    74  O2    c     0.752289    0.431972    0.665592    0.000000
    75  O2    c     0.644141    0.224882    0.334615    0.000000
    76  O2    c     0.402136    0.664839    0.497906    0.000000
    77  O2    c     0.225635    0.584451    0.157928    0.000000
    78  O2    c     0.337433    0.772088    0.827448    0.000000
    79  O2    c     0.123870    0.222633    0.967501    0.000000
    80  O2    c     0.769439    0.895218    0.302619    0.000000
    81  O2    c     0.077625    0.885094    0.636015    0.000000
    82  O2    c     0.854296    0.791529    0.465037    0.000000
    83  O2    c     0.210431    0.097226    0.801314    0.000000
    84  O2    c     0.899287    0.128320    0.134186    0.000000
    85  O2    c     0.200435    0.107275    0.354500    0.000000
    86  O2    c     0.894912    0.793581    0.020883    0.000000
    87  O2    c     0.867715    0.099837    0.689764    0.000000
    88  O2    c     0.784518    0.885931    0.850144    0.000000
    89  O2    c     0.064950    0.215574    0.524617    0.000000
    90  O2    c     0.113924    0.912770    0.190219    0.000000
    91  O2    c     0.915505    0.862603    0.242812    0.000000
    92  O2    c     0.126271    0.071088    0.576904    0.000000
    93  O2    c     0.938410    0.070129    0.909602    0.000000
    94  O2    c     0.069654    0.147636    0.743257    0.000000
    95  O2    c     0.848189    0.938040    0.076964    0.000000
    96  O2    c     0.054307    0.924610    0.411534    0.000000
    97  O2    c     0.895569    0.200778    0.970651    0.000000
    98  O2    c     0.796307    0.689052    0.304995    0.000000
    99  O2    c     0.292541    0.108330    0.641700    0.000000
   100  O2    c     0.076714    0.798864    0.477662    0.000000
   101  O2    c     0.204886    0.312545    0.807169    0.000000
   102  O2    c     0.687994    0.904156    0.142565    0.000000
   103  O2    c     0.187177    0.883574    0.350275    0.000000
   104  O3    c     0.685483    0.814211    0.012073    0.000000
   105  O2    c     0.090542    0.313925    0.683518    0.000000
   106  O2    c     0.797093    0.110205    0.849871    0.000000
   107  O2    c     0.280836    0.213689    0.514302    0.000000
   108  O2    c     0.888724    0.700884    0.179331    0.000000
   109  O2    c     0.310833    0.641236    0.241947    0.000000
   110  O2    c     0.338448    0.683438    0.579930    0.000000
   111  O2    c     0.316272    0.686213    0.910568    0.000000
   112  O2    c     0.671985    0.365143    0.748155    0.000000
   113  O3    c     0.608600    0.303139    0.084603    0.000000
   114  O2    c     0.656102    0.327728    0.414280    0.000000
   115  O2    c     0.371312    0.344505    0.965372    0.000000
   116  O2    c     0.656705    0.031266    0.303223    0.000000
   117  O2    c     0.944054    0.636161    0.635231    0.000000
   118  O2    c     0.604264    0.677108    0.461445    0.000000
   119  O2    c     0.327549    0.967146    0.799521    0.000000
   120  O2    c     0.026439    0.377673    0.129171    0.000000
   121  O3    c     0.297200    0.351998    0.352149    0.000000
   122  O2    c     0.015886    0.665440    0.023309    0.000000
   123  O2    c     0.620026    0.968697    0.691285    0.000000
   124  O2    c     0.669256    0.637523    0.859788    0.000000
   125  O2    c     0.936490    0.335874    0.526322    0.000000
   126  O2    c     0.362217    0.041456    0.194274    0.000000
   127  O3    c     0.745211    0.277706    0.001443    0.000000
   128  O2    c     0.682601    0.459682    0.339952    0.000000
   129  O2    c     0.524705    0.240027    0.674125    0.000000
   130  O2    c     0.207311    0.697199    0.507331    0.000000
   131  O2    c     0.304644    0.544207    0.839924    0.000000
   132  O2    c     0.454553    0.773569    0.171101    0.000000
   133  O2    c     0.285318    0.755737    0.315984    0.000000
   134  O3    c     0.444423    0.711749    0.987521    0.000000
   135  O2    c     0.220317    0.543060    0.652640    0.000000
   136  O2    c     0.693713    0.239481    0.819907    0.000000
   137  O2    c     0.511883    0.314763    0.483239    0.000000
   138  O2    c     0.753170    0.464861    0.150423    0.000000
   139  O3    c     0.760922    0.540510    0.016427    0.000000
   140  O2    c     0.451426    0.252485    0.357081    0.000000
   141  O2    c     0.743556    0.227186    0.691662    0.000000
   142  O2    c     0.196195    0.468353    0.524844    0.000000
   143  O2    c     0.531263    0.758357    0.857934    0.000000
   144  O2    c     0.235198    0.783267    0.190000    0.000000
   145  O2    c     0.517928    0.774529    0.301177    0.000000
   146  O2    c     0.245960    0.477461    0.966050    0.000000
   147  O2    c     0.202754    0.757458    0.636194    0.000000
   148  O2    c     0.461501    0.225891    0.801796    0.000000
   149  O2    c     0.719892    0.538975    0.464262    0.000000
   150  O2    c     0.771334    0.252250    0.131970    0.000000
   151  O2    c     0.231260    0.341302    0.893545    0.000000
   152  O2    c     0.661911    0.900700    0.228219    0.000000
   153  O2    c     0.075662    0.773977    0.562290    0.000000
   154  O2    c     0.742076    0.673073    0.389769    0.000000
   155  O2    c     0.316438    0.100205    0.726909    0.000000
   156  O2    c     0.892790    0.232340    0.058017    0.000000
   157  O2    c     0.305554    0.236845    0.428320    0.000000
   158  O2    c     0.873136    0.664000    0.093554    0.000000
   159  O2    c     0.764737    0.103661    0.764871    0.000000
   160  O3    c     0.690857    0.795623    0.928376    0.000000
   161  O2    c     0.075891    0.330990    0.598926    0.000000
   162  O2    c     0.218773    0.903693    0.265505    0.000000
   163  O3    c     0.580901    0.560183    0.993318    0.000000
   164  O2    c     0.427057    0.013975    0.323685    0.000000
   165  O2    c     0.962108    0.424778    0.655325    0.000000
   166  O2    c     0.392357    0.449165    0.481415    0.000000
   167  O2    c     0.557008    0.981776    0.819605    0.000000
   168  O2    c     0.007541    0.585856    0.145132    0.000000
   169  O3    c     0.553550    0.586464    0.326394    0.000000
   170  O2    c     0.997572    0.437029    0.002006    0.000000
   171  O2    c     0.404615    0.981674    0.670818    0.000000
   172  O2    c     0.441575    0.427609    0.843509    0.000000
   173  O2    c     0.947647    0.563656    0.507249    0.000000
   174  O2    c     0.580443    0.031116    0.174911    0.000000
   175  O2    c     0.569767    0.158813    0.251643    0.000000
   176  O2    c     0.817896    0.424028    0.581890    0.000000
   177  O2    c     0.586718    0.438514    0.916540    0.000000
   178  O2    c     0.412218    0.845821    0.744849    0.000000
   179  O2    c     0.138639    0.576323    0.074050    0.000000
   180  O3    c     0.389493    0.594808    0.411858    0.000000
   181  F     c     0.440503    0.904237    0.246056    0.000000
   182  F     c     0.077508    0.552697    0.579983    0.000000
   183  F     c     0.475203    0.589157    0.922286    0.000000
   184  F     c     0.541902    0.105840    0.745701    0.000000
   185  F     c     0.847986    0.435009    0.069128    0.000000
   186  F     c     0.504731    0.470411    0.400706    0.000000
   187  O2    s     0.924039    0.008663    0.994403    0.000000
   188  O2    s     0.988021    0.914651    0.327265    0.000000
   189  O2    s     0.065487    0.087967    0.659375    0.000000
   190  O2    s     0.055060    0.005608    0.493552    0.000000
   191  O2    s     0.998690    0.087620    0.825791    0.000000
   192  O2    s     0.917079    0.929423    0.160103    0.000000
   193  O3    s     0.334231    0.575283    0.323712    0.000000
   194  O2    s     0.405258    0.776554    0.662058    0.000000
   195  O2    s     0.203767    0.647820    0.990635    0.000000
   196  O2    s     0.645904    0.422173    0.832149    0.000000
   197  O2    s     0.576672    0.232912    0.169935    0.000000
   198  O2    s     0.744363    0.360795    0.498363    0.000000
   199  O3    s     0.568847    0.345548    0.996922    0.000000
   200  O2    s     0.756552    0.424359    0.665434    0.000000
   201  O2    s     0.632585    0.222213    0.334190    0.000000
   202  O2    s     0.393629    0.653380    0.497460    0.000000
   203  O2    s     0.220664    0.590915    0.158064    0.000000
   204  O2    s     0.349335    0.776531    0.827693    0.000000
   205  O2    s     0.120607    0.225646    0.964834    0.000000
   206  O2    s     0.766831    0.889793    0.299667    0.000000
   207  O2    s     0.084036    0.887999    0.633274    0.000000
   208  O2    s     0.857500    0.787980    0.462575    0.000000
   209  O2    s     0.213914    0.104185    0.798549    0.000000
   210  O2    s     0.892494    0.125080    0.131305    0.000000
   211  O2    s     0.202897    0.105212    0.357256    0.000000
   212  O2    s     0.887086    0.788621    0.023144    0.000000
   213  O2    s     0.871385    0.106633    0.692311    0.000000
   214  O2    s     0.782652    0.890107    0.853575    0.000000
   215  O2    s     0.072389    0.219368    0.526902    0.000000
   216  O2    s     0.110279    0.905856    0.192633    0.000000
   217  O2    s     0.914885    0.858881    0.243008    0.000000
   218  O2    s     0.128341    0.073641    0.577074    0.000000
   219  O2    s     0.935236    0.072420    0.909550    0.000000
   220  O2    s     0.070030    0.150819    0.743441    0.000000
   221  O2    s     0.845280    0.936839    0.077549    0.000000
   222  O2    s     0.055117    0.923034    0.411692    0.000000
   223  O2    s     0.902209    0.201831    0.973669    0.000000
   224  O2    s     0.792555    0.695552    0.307415    0.000000
   225  O2    s     0.286273    0.100668    0.644225    0.000000
   226  O2    s     0.069387    0.797511    0.479979    0.000000
   227  O2    s     0.205929    0.306694    0.810009    0.000000
   228  O2    s     0.693740    0.911426    0.145021    0.000000
   229  O2    s     0.188560    0.891915    0.347606    0.000000
   230  O3    s     0.695217    0.814535    0.010894    0.000000
   231  O2    s     0.082846    0.307623    0.680698    0.000000
   232  O2    s     0.795257    0.102446    0.846910    0.000000
   233  O2    s     0.274599    0.214246    0.511660    0.000000
   234  O2    s     0.895465    0.706526    0.176732    0.000000
   235  O2    s     0.315869    0.652201    0.241990    0.000000
   236  O2    s     0.326783    0.677516    0.579972    0.000000
   237  O2    s     0.321727    0.681506    0.910380    0.000000
   238  O2    s     0.666172    0.353530    0.748053    0.000000
   239  O3    s     0.621559    0.308990    0.086291    0.000000
   240  O2    s     0.651124    0.332823    0.414202    0.000000
   241  O2    s     0.372503    0.352787    0.963762    0.000000
   242  O2    s     0.646269    0.024821    0.300926    0.000000
   243  O2    s     0.950751    0.632828    0.633042    0.000000
   244  O2    s     0.601876    0.667932    0.459532    0.000000
   245  O2    s     0.337514    0.973880    0.797248    0.000000
   246  O2    s     0.020186    0.380517    0.127097    0.000000
   247  O3    s     0.306981    0.351388    0.355054    0.000000
   248  O2    s     0.010091    0.655738    0.024775    0.000000
   249  O2    s     0.616724    0.975385    0.693615    0.000000
   250  O2    s     0.660140    0.634277    0.861953    0.000000
   251  O2    s     0.943379    0.345890    0.528691    0.000000
   252  O2    s     0.365277    0.034431    0.196633    0.000000
   253  O3    s     0.756903    0.285389    0.004449    0.000000
   254  O2    s     0.674976    0.458656    0.342334    0.000000
   255  O2    s     0.525349    0.232959    0.677208    0.000000
   256  O2    s     0.200724    0.690218    0.510546    0.000000
   257  O2    s     0.311398    0.544681    0.842858    0.000000
   258  O2    s     0.454134    0.779899    0.174436    0.000000
   259  O2    s     0.292976    0.763541    0.313363    0.000000
   260  O3    s     0.438971    0.702291    0.983769    0.000000
   261  O2    s     0.212896    0.543539    0.649572    0.000000
   262  O2    s     0.686122    0.232623    0.816768    0.000000
   263  O2    s     0.512793    0.321523    0.480414    0.000000
   264  O2    s     0.759442    0.464819    0.147612    0.000000
   265  O3    s     0.770310    0.543043    0.019798    0.000000
   266  O2    s     0.454428    0.258700    0.359215    0.000000
   267  O2    s     0.735638    0.221913    0.694250    0.000000
   268  O2    s     0.190968    0.471059    0.527414    0.000000
   269  O2    s     0.528153    0.751633    0.860077    0.000000
   270  O2    s     0.243591    0.788590    0.192574    0.000000
   271  O2    s     0.516207    0.779652    0.298523    0.000000
   272  O2    s     0.252290    0.479215    0.963864    0.000000
   273  O2    s     0.197524    0.749827    0.633527    0.000000
   274  O2    s     0.464354    0.220623    0.799248    0.000000
   275  O2    s     0.713757    0.536008    0.462107    0.000000
   276  O2    s     0.775546    0.258304    0.129864    0.000000
   277  O2    s     0.240252    0.349562    0.894171    0.000000
   278  O2    s     0.652590    0.900796    0.228997    0.000000
   279  O2    s     0.075736    0.764535    0.563179    0.000000
   280  O2    s     0.734894    0.665044    0.390929    0.000000
   281  O2    s     0.326375    0.100660    0.727751    0.000000
   282  O2    s     0.891879    0.239843    0.058960    0.000000
   283  O2    s     0.314145    0.245183    0.427897    0.000000
   284  O2    s     0.874817    0.656730    0.093228    0.000000
   285  O2    s     0.755316    0.103772    0.763918    0.000000
   286  O3    s     0.680991    0.785945    0.925442    0.000000
   287  O2    s     0.076268    0.340563    0.597960    0.000000
   288  O2    s     0.227915    0.902896    0.264540    0.000000
   289  O3    s     0.575509    0.556980    0.989237    0.000000
   290  O2    s     0.427008    0.009638    0.320092    0.000000
   291  O2    s     0.966551    0.429040    0.651887    0.000000
   292  O2    s     0.395705    0.447760    0.478706    0.000000
   293  O2    s     0.556972    0.986615    0.816291    0.000000
   294  O2    s     0.003584    0.581619    0.142577    0.000000
   295  O3    s     0.558695    0.583030    0.330264    0.000000
   296  O2    s     0.995084    0.437498    0.004979    0.000000
   297  O2    s     0.409358    0.986692    0.674286    0.000000
   298  O2    s     0.440807    0.431349    0.846144    0.000000
   299  O2    s     0.953286    0.563856    0.510628    0.000000
   300  O2    s     0.575131    0.025348    0.178151    0.000000
   301  O2    s     0.564188    0.147197    0.251441    0.000000
   302  O2    s     0.829187    0.429809    0.581801    0.000000
   303  O2    s     0.581456    0.442007    0.915723    0.000000
   304  O2    s     0.417817    0.856883    0.744941    0.000000
   305  O2    s     0.128942    0.572103    0.074330    0.000000
   306  O3    s     0.396900    0.589862    0.413872    0.000000
   307  F     s     0.440574    0.904794    0.245957    0.000000
   308  F     s     0.077543    0.552645    0.579899    0.000000
   309  F     s     0.482061    0.596675    0.925377    0.000000
   310  F     s     0.541948    0.106105    0.745633    0.000000
   311  F     s     0.836592    0.430425    0.066507    0.000000
   312  F     s     0.498401    0.474020    0.398026    0.000000
--------------------------------------------------------------------------------

  Final Cartesian lattice vectors (Angstroms) :

       11.947996   -0.003212   -0.022761
       -6.008906   10.405006   -0.005056
       -0.387895   -0.419021   29.383557


  Final cell parameters and derivatives :

--------------------------------------------------------------------------------
       a           11.948018 Angstrom     dE/de1(xx)     0.003033 eV/strain
       b           12.015453 Angstrom     dE/de2(yy)     0.002339 eV/strain
       c           29.389105 Angstrom     dE/de3(zz)     0.002963 eV/strain
       alpha       90.353338 Degrees      dE/de4(yz)     0.000140 eV/strain
       beta        90.865165 Degrees      dE/de5(xz)     0.000743 eV/strain
       gamma      120.021783 Degrees      dE/de6(xy)    -0.000006 eV/strain
--------------------------------------------------------------------------------

  Primitive cell volume =          3652.191821 Angs**3

  Density of cell =      1.751850 g/cm**3

  Non-primitive cell volume =          3652.191821 Angs**3


  Final internal derivatives :

--------------------------------------------------------------------------------
   No.  Atomic          a             b             c           Radius
        Label          (eV)          (eV)          (eV)        (eV/Angs)
--------------------------------------------------------------------------------
      1 Ge    c       0.000000      0.000000      0.000000      0.000000
      2 Si    c      -0.000008      0.000474      0.001046      0.000000
      3 Si    c      -0.000119     -0.000118     -0.000086      0.000000
      4 Si    c       0.000185      0.000103     -0.000099      0.000000
      5 Si    c       0.000150     -0.000088      0.000072      0.000000
      6 Si    c       0.000028     -0.000239     -0.000866      0.000000
      7 Si    c      -0.000141      0.001290     -0.003234      0.000000
      8 Si    c       0.000237      0.000039     -0.000182      0.000000
      9 Si    c      -0.000038     -0.000002      0.000346      0.000000
     10 Si    c      -0.000047     -0.000201      0.000062      0.000000
     11 Si    c       0.000191     -0.000358      0.000245      0.000000
     12 Si    c       0.000866     -0.000245      0.003124      0.000000
     13 Si    c      -0.002115      0.001439     -0.002742      0.000000
     14 Si    c      -0.000147     -0.000599     -0.000952      0.000000
     15 Si    c       0.000050     -0.000156     -0.000033      0.000000
     16 Si    c       0.000030      0.000187     -0.000245      0.000000
     17 Si    c       0.000003     -0.000155     -0.000134      0.000000
     18 Si    c       0.000104      0.000057      0.000205      0.000000
     19 Ge    c       0.001141     -0.000407      0.002050      0.000000
     20 Si    c       0.000045      0.000262      0.000818      0.000000
     21 Si    c      -0.000036     -0.000040      0.000230      0.000000
     22 Si    c       0.000000     -0.000047     -0.000574      0.000000
     23 Si    c       0.000032      0.000071     -0.000421      0.000000
     24 Si    c       0.000136     -0.000412      0.000475      0.000000
     25 Si    c       0.000068      0.000069      0.000074      0.000000
     26 Si    c       0.000108     -0.000165     -0.000227      0.000000
     27 Si    c       0.000068      0.000147      0.000043      0.000000
     28 Si    c       0.000129      0.000531     -0.000260      0.000000
     29 Si    c      -0.000025     -0.000057      0.000017      0.000000
     30 Si    c      -0.000346      0.000419     -0.000147      0.000000
     31 Si    c       0.000023     -0.000272     -0.000378      0.000000
     32 Si    c       0.000380     -0.000108     -0.000536      0.000000
     33 Si    c      -0.000263     -0.000182      0.000228      0.000000
     34 Ge    c       0.000151     -0.000339     -0.000948      0.000000
     35 Si    c       0.000011     -0.000125     -0.000022      0.000000
     36 Si    c      -0.000156      0.000182     -0.001080      0.000000
     37 Si    c      -0.000133     -0.000162     -0.000537      0.000000
     38 Si    c      -0.000654     -0.000194      0.000160      0.000000
     39 Si    c       0.000117     -0.000107     -0.000163      0.000000
     40 Si    c       0.000265     -0.000012     -0.000298      0.000000
     41 Si    c      -0.000092     -0.000093     -0.000042      0.000000
     42 Si    c       0.000079     -0.000000     -0.000149      0.000000
     43 Si    c       0.000301     -0.000013     -0.000076      0.000000
     44 Si    c       0.001929      0.000090     -0.000026      0.000000
     45 Si    c      -0.000251     -0.000084      0.000150      0.000000
     46 Si    c       0.000179      0.000042     -0.000160      0.000000
     47 Si    c       0.000140      0.000039     -0.000146      0.000000
     48 Si    c       0.000048      0.000025      0.000233      0.000000
     49 Si    c      -0.000674      0.000091     -0.000415      0.000000
     50 Si    c       0.000845     -0.000136     -0.001283      0.000000
     51 Si    c       0.000267      0.000038      0.000053      0.000000
     52 Si    c       0.000083     -0.000230      0.002534      0.000000
     53 Si    c       0.000077      0.000155     -0.000204      0.000000
     54 Si    c      -0.000332      0.000229      0.000803      0.000000
     55 Si    c       0.000104     -0.000490      0.002077      0.000000
     56 Si    c       0.000032     -0.000016      0.001411      0.000000
     57 Si    c       0.000026      0.000123     -0.000299      0.000000
     58 Si    c      -0.000134      0.000111     -0.001416      0.000000
     59 Si    c       0.000043     -0.000122     -0.001032      0.000000
     60 Si    c       0.000319     -0.000172     -0.000774      0.000000
     61 O2    c       0.000230      0.000627     -0.001378      0.000000
     62 O2    c      -0.000415      0.001518     -0.000778      0.000000
     63 O2    c       0.000130     -0.000009      0.000087      0.000000
     64 O2    c      -0.000002     -0.000012      0.000067      0.000000
     65 O2    c       0.000165      0.000219      0.000443      0.000000
     66 O2    c       0.000445     -0.000052     -0.000697      0.000000
     67 O3    c      -0.000518     -0.001297      0.001385      0.000000
     68 O2    c       0.000001     -0.000031      0.000227      0.000000
     69 O2    c       0.000420      0.000237      0.000565      0.000000
     70 O2    c      -0.000038      0.000122      0.000303      0.000000
     71 O2    c      -0.000158      0.000111      0.000292      0.000000
     72 O2    c      -0.000145      0.000055     -0.000428      0.000000
     73 O3    c      -0.001100     -0.001304     -0.005148      0.000000
     74 O2    c      -0.000034     -0.000111     -0.000319      0.000000
     75 O2    c       0.000392      0.000070      0.000386      0.000000
     76 O2    c       0.000497     -0.000068     -0.000441      0.000000
     77 O2    c      -0.000033     -0.000220     -0.000177      0.000000
     78 O2    c       0.000108     -0.000434      0.000142      0.000000
     79 O2    c       0.000085     -0.000298     -0.000112      0.000000
     80 O2    c      -0.001441      0.001040      0.000687      0.000000
     81 O2    c      -0.000005     -0.000190     -0.000201      0.000000
     82 O2    c       0.000017     -0.000037      0.000017      0.000000
     83 O2    c      -0.000241     -0.000068     -0.000073      0.000000
     84 O2    c      -0.000082      0.000028     -0.000768      0.000000
     85 O2    c       0.000516      0.001215     -0.000533      0.000000
     86 O2    c       0.001064     -0.000603      0.000136      0.000000
     87 O2    c      -0.000033     -0.000100      0.000239      0.000000
     88 O2    c       0.000170     -0.000265      0.000326      0.000000
     89 O2    c       0.000049      0.000153     -0.000179      0.000000
     90 O2    c       0.000197      0.000083     -0.000352      0.000000
     91 O2    c       0.000088      0.000685     -0.000410      0.000000
     92 O2    c      -0.000105      0.000070      0.001405      0.000000
     93 O2    c       0.000275      0.000167      0.002349      0.000000
     94 O2    c       0.000390      0.000223      0.002212      0.000000
     95 O2    c      -0.000163     -0.000279     -0.001982      0.000000
     96 O2    c       0.000138      0.000428     -0.004092      0.000000
     97 O2    c       0.000222      0.000490     -0.000303      0.000000
     98 O2    c       0.000596     -0.001319      0.000599      0.000000
     99 O2    c       0.000080     -0.000147      0.000343      0.000000
    100 O2    c       0.000506     -0.000067      0.000016      0.000000
    101 O2    c       0.000286      0.000245      0.000256      0.000000
    102 O2    c      -0.000366     -0.000258      0.000215      0.000000
    103 O2    c       0.000751     -0.001250     -0.000256      0.000000
    104 O3    c      -0.001704     -0.000640      0.000881      0.000000
    105 O2    c       0.000054      0.000006     -0.000301      0.000000
    106 O2    c      -0.000464      0.000179     -0.000013      0.000000
    107 O2    c       0.000176     -0.000178     -0.000767      0.000000
    108 O2    c       0.000050     -0.000368     -0.000365      0.000000
    109 O2    c      -0.000074     -0.000412      0.000206      0.000000
    110 O2    c       0.000294      0.000160     -0.000265      0.000000
    111 O2    c      -0.000001      0.000121      0.000399      0.000000
    112 O2    c      -0.000035     -0.000132      0.000424      0.000000
    113 O3    c      -0.000989     -0.000408     -0.002658      0.000000
    114 O2    c       0.000285     -0.000342     -0.000659      0.000000
    115 O2    c      -0.000097     -0.000594      0.000051      0.000000
    116 O2    c      -0.000021     -0.000173      0.000292      0.000000
    117 O2    c       0.000019     -0.000158     -0.000283      0.000000
    118 O2    c       0.000205     -0.000027     -0.000384      0.000000
    119 O2    c      -0.000172     -0.000196      0.000170      0.000000
    120 O2    c       0.000011     -0.000203     -0.000150      0.000000
    121 O3    c       0.000211      0.000268      0.000009      0.000000
    122 O2    c       0.000793     -0.000003     -0.000089      0.000000
    123 O2    c      -0.000101     -0.000038      0.000414      0.000000
    124 O2    c       0.000165      0.000282      0.000093      0.000000
    125 O2    c       0.000170      0.000035      0.000009      0.000000
    126 O2    c       0.000112     -0.000016     -0.000265      0.000000
    127 O3    c       0.000287      0.000829     -0.000239      0.000000
    128 O2    c       0.000438     -0.000010     -0.000501      0.000000
    129 O2    c       0.000094     -0.000154      0.000541      0.000000
    130 O2    c       0.000378      0.000087      0.000466      0.000000
    131 O2    c       0.000150     -0.000035      0.000356      0.000000
    132 O2    c      -0.000026     -0.000093     -0.000812      0.000000
    133 O2    c      -0.000420      0.000084     -0.000657      0.000000
    134 O3    c       0.000077     -0.000202     -0.001078      0.000000
    135 O2    c      -0.000036     -0.000024     -0.000089      0.000000
    136 O2    c      -0.000207     -0.000141      0.000554      0.000000
    137 O2    c      -0.000042     -0.000220     -0.000716      0.000000
    138 O2    c       0.000041     -0.000046     -0.000189      0.000000
    139 O3    c      -0.001859     -0.001439     -0.003405      0.000000
    140 O2    c       0.000334     -0.000169     -0.000235      0.000000
    141 O2    c       0.000039     -0.000218      0.000134      0.000000
    142 O2    c       0.000312      0.000238      0.000044      0.000000
    143 O2    c       0.000293     -0.000055     -0.000088      0.000000
    144 O2    c       0.000100     -0.000269     -0.000329      0.000000
    145 O2    c      -0.000192     -0.000385      0.000076      0.000000
    146 O2    c      -0.000122     -0.000073      0.000231      0.000000
    147 O2    c       0.000108      0.000076     -0.000222      0.000000
    148 O2    c      -0.000160     -0.000112      0.000208      0.000000
    149 O2    c       0.000131     -0.000045     -0.000316      0.000000
    150 O2    c      -0.000197      0.000047     -0.000501      0.000000
    151 O2    c      -0.000083     -0.000170      0.000426      0.000000
    152 O2    c      -0.000164     -0.000022     -0.002193      0.000000
    153 O2    c       0.000291      0.000117      0.000028      0.000000
    154 O2    c       0.000590      0.000257      0.000079      0.000000
    155 O2    c      -0.000093     -0.000137      0.000542      0.000000
    156 O2    c       0.000147     -0.000014     -0.000016      0.000000
    157 O2    c       0.000030     -0.000175      0.000407      0.000000
    158 O2    c       0.000233      0.000304      0.003220      0.000000
    159 O2    c      -0.000298     -0.000057      0.000901      0.000000
    160 O3    c       0.000106     -0.000148      0.002609      0.000000
    161 O2    c      -0.000088     -0.000085      0.000820      0.000000
    162 O2    c      -0.000075     -0.000062     -0.000997      0.000000
    163 O3    c       0.000740      0.000243      0.004284      0.000000
    164 O2    c      -0.000181      0.000001     -0.000424      0.000000
    165 O2    c      -0.000297     -0.000125     -0.000353      0.000000
    166 O2    c       0.000017     -0.000118     -0.000869      0.000000
    167 O2    c      -0.000180     -0.000254      0.000228      0.000000
    168 O2    c       0.000218      0.000010      0.000586      0.000000
    169 O3    c       0.000641      0.000914     -0.001019      0.000000
    170 O2    c       0.000991      0.001217     -0.000039      0.000000
    171 O2    c       0.000036     -0.000231      0.000689      0.000000
    172 O2    c       0.000143      0.000049      0.000376      0.000000
    173 O2    c       0.000113      0.000112      0.000354      0.000000
    174 O2    c       0.000234     -0.000006     -0.000554      0.000000
    175 O2    c       0.000101      0.000036     -0.001578      0.000000
    176 O2    c      -0.000083     -0.000166      0.000673      0.000000
    177 O2    c       0.000277     -0.000820     -0.000323      0.000000
    178 O2    c      -0.000268     -0.000187      0.000884      0.000000
    179 O2    c       0.000473      0.000440     -0.001533      0.000000
    180 O3    c       0.000070      0.000432     -0.000832      0.000000
    181 F     c       0.000143     -0.000012     -0.000006      0.000000
    182 F     c       0.000075      0.000019     -0.000053      0.000000
    183 F     c       0.000178     -0.000156      0.000057      0.000000
    184 F     c      -0.000167     -0.000223     -0.000198      0.000000
    185 F     c      -0.000141      0.000173     -0.000882      0.000000
    186 F     c       0.000395      0.000027      0.000192      0.000000
    187 O2    s      -0.000242      0.000249     -0.001401      0.000000
    188 O2    s      -0.000165      0.001503     -0.000308      0.000000
    189 O2    s       0.000264     -0.000047      0.000265      0.000000
    190 O2    s      -0.000142      0.000058      0.000651      0.000000
    191 O2    s       0.000306      0.000272     -0.001287      0.000000
    192 O2    s       0.000645     -0.000234      0.000484      0.000000
    193 O3    s       0.000701      0.000169     -0.000484      0.000000
    194 O2    s       0.000010     -0.000059     -0.000123      0.000000
    195 O2    s       0.000399      0.000197     -0.000607      0.000000
    196 O2    s       0.000096     -0.000236     -0.000803      0.000000
    197 O2    s       0.000277     -0.000149      0.000440      0.000000
    198 O2    s       0.000247     -0.000327      0.000280      0.000000
    199 O3    s       0.001110      0.000528      0.003676      0.000000
    200 O2    s       0.000052     -0.000185      0.000027      0.000000
    201 O2    s       0.000015     -0.000250     -0.000436      0.000000
    202 O2    s       0.000244      0.000124      0.000259      0.000000
    203 O2    s       0.000064     -0.000070      0.000799      0.000000
    204 O2    s      -0.000180      0.000082     -0.000231      0.000000
    205 O2    s       0.000072     -0.000497      0.000400      0.000000
    206 O2    s      -0.001043      0.001050      0.000135      0.000000
    207 O2    s       0.000068     -0.000133      0.000141      0.000000
    208 O2    s      -0.000126     -0.000119      0.000833      0.000000
    209 O2    s       0.000041     -0.000277     -0.000545      0.000000
    210 O2    s      -0.000158      0.000266      0.001162      0.000000
    211 O2    s       0.000410      0.000806      0.000685      0.000000
    212 O2    s       0.001080     -0.000326     -0.000079      0.000000
    213 O2    s      -0.000107     -0.000020     -0.000351      0.000000
    214 O2    s       0.000081     -0.000310     -0.001130      0.000000
    215 O2    s      -0.000099      0.000165     -0.000027      0.000000
    216 O2    s       0.000353      0.000052      0.000092      0.000000
    217 O2    s       0.000505      0.000640      0.000019      0.000000
    218 O2    s       0.000169     -0.000058     -0.000862      0.000000
    219 O2    s      -0.000132      0.000103      0.000790      0.000000
    220 O2    s       0.000113      0.000311     -0.001104      0.000000
    221 O2    s      -0.000118      0.000031      0.000656      0.000000
    222 O2    s      -0.000285      0.000045      0.001710      0.000000
    223 O2    s       0.000231      0.000294      0.000518      0.000000
    224 O2    s       0.001155     -0.001172      0.001127      0.000000
    225 O2    s       0.000137     -0.000084     -0.000267      0.000000
    226 O2    s       0.000646     -0.000314      0.000398      0.000000
    227 O2    s       0.000391      0.000048     -0.000226      0.000000
    228 O2    s      -0.000496      0.000032      0.000553      0.000000
    229 O2    s       0.000521     -0.001362     -0.000219      0.000000
    230 O3    s      -0.000927     -0.000227     -0.001106      0.000000
    231 O2    s      -0.000241      0.000104     -0.000193      0.000000
    232 O2    s      -0.000756      0.000382     -0.000997      0.000000
    233 O2    s       0.000167     -0.000216      0.000360      0.000000
    234 O2    s       0.000422     -0.000260      0.000203      0.000000
    235 O2    s      -0.000526      0.000291     -0.000808      0.000000
    236 O2    s       0.000185      0.000253     -0.000270      0.000000
    237 O2    s       0.000582     -0.000328     -0.000096      0.000000
    238 O2    s       0.000002     -0.000219     -0.000545      0.000000
    239 O3    s       0.000604      0.000829      0.001164      0.000000
    240 O2    s      -0.000099      0.000162      0.000378      0.000000
    241 O2    s       0.000176     -0.000268     -0.000623      0.000000
    242 O2    s      -0.000237     -0.000090     -0.000962      0.000000
    243 O2    s      -0.000002     -0.000121     -0.000104      0.000000
    244 O2    s       0.000191     -0.000276      0.000566      0.000000
    245 O2    s      -0.000274     -0.000119     -0.000805      0.000000
    246 O2    s       0.000303     -0.000204      0.000628      0.000000
    247 O3    s       0.000952     -0.000315      0.000575      0.000000
    248 O2    s       0.000853      0.000328     -0.001657      0.000000
    249 O2    s       0.000037     -0.000268     -0.000449      0.000000
    250 O2    s       0.000123     -0.000022      0.000168      0.000000
    251 O2    s       0.000123      0.000037     -0.000138      0.000000
    252 O2    s       0.000234     -0.000147      0.000778      0.000000
    253 O3    s      -0.000455     -0.000150      0.000818      0.000000
    254 O2    s       0.000310      0.000231      0.000781      0.000000
    255 O2    s       0.000092     -0.000164     -0.000593      0.000000
    256 O2    s       0.000300      0.000096     -0.000566      0.000000
    257 O2    s       0.000238     -0.000077     -0.000219      0.000000
    258 O2    s      -0.000023     -0.000087      0.001835      0.000000
    259 O2    s      -0.000296      0.000001      0.000866      0.000000
    260 O3    s       0.000273     -0.000453      0.000749      0.000000
    261 O2    s      -0.000190      0.000010     -0.000522      0.000000
    262 O2    s      -0.000345     -0.000110     -0.001630      0.000000
    263 O2    s       0.000006     -0.000284      0.000677      0.000000
    264 O2    s       0.000069     -0.000041     -0.000013      0.000000
    265 O3    s       0.001118      0.000211      0.001280      0.000000
    266 O2    s       0.000063      0.000644      0.000625      0.000000
    267 O2    s       0.000038     -0.000124     -0.000023      0.000000
    268 O2    s       0.000174      0.000133     -0.000228      0.000000
    269 O2    s       0.000069      0.000022      0.000339      0.000000
    270 O2    s       0.000051     -0.000216      0.001030      0.000000
    271 O2    s      -0.000812      0.000638     -0.000904      0.000000
    272 O2    s       0.000302     -0.000205     -0.000494      0.000000
    273 O2    s       0.000117      0.000065     -0.000056      0.000000
    274 O2    s      -0.000067     -0.000201     -0.000997      0.000000
    275 O2    s       0.000058     -0.000295      0.000165      0.000000
    276 O2    s      -0.000292     -0.000068      0.000893      0.000000
    277 O2    s       0.000420     -0.000407     -0.000552      0.000000
    278 O2    s      -0.000065     -0.000094      0.002032      0.000000
    279 O2    s       0.000256      0.000128     -0.000362      0.000000
    280 O2    s       0.000536     -0.000006      0.000126      0.000000
    281 O2    s       0.000004     -0.000217     -0.000325      0.000000
    282 O2    s       0.000410     -0.000300     -0.000574      0.000000
    283 O2    s       0.000116      0.000029     -0.000728      0.000000
    284 O2    s       0.000247      0.001083      0.001723      0.000000
    285 O2    s      -0.000094     -0.000282     -0.001297      0.000000
    286 O3    s      -0.000079     -0.000081     -0.002598      0.000000
    287 O2    s      -0.000056     -0.000075     -0.000956      0.000000
    288 O2    s       0.000254     -0.000548      0.001158      0.000000
    289 O3    s      -0.001463     -0.000723     -0.007097      0.000000
    290 O2    s      -0.000003     -0.000230      0.000127      0.000000
    291 O2    s      -0.000199     -0.000219     -0.000177      0.000000
    292 O2    s       0.000133     -0.000167      0.000809      0.000000
    293 O2    s      -0.000398     -0.000013     -0.001100      0.000000
    294 O2    s       0.000274      0.000266     -0.000053      0.000000
    295 O3    s       0.000765     -0.000482      0.001953      0.000000
    296 O2    s       0.000800     -0.000085     -0.000308      0.000000
    297 O2    s      -0.000065     -0.000157     -0.000656      0.000000
    298 O2    s       0.000141     -0.000128     -0.000505      0.000000
    299 O2    s       0.000303     -0.000132     -0.000307      0.000000
    300 O2    s       0.000137      0.000016      0.001366      0.000000
    301 O2    s       0.000118     -0.000144      0.001357      0.000000
    302 O2    s       0.000008     -0.000155     -0.000754      0.000000
    303 O2    s      -0.000202     -0.000314      0.000231      0.000000
    304 O2    s      -0.000216     -0.000249     -0.000901      0.000000
    305 O2    s       0.000472      0.000472      0.001306      0.000000
    306 O3    s       0.001137     -0.000423      0.001540      0.000000
    307 F     s      -0.000057      0.000047     -0.000141      0.000000
    308 F     s       0.000041      0.000086     -0.000184      0.000000
    309 F     s       0.000173     -0.000342      0.000451      0.000000
    310 F     s      -0.000188     -0.000234      0.000188      0.000000
    311 F     s      -0.000412     -0.000332     -0.000586      0.000000
    312 F     s       0.000161      0.000096     -0.000227      0.000000
--------------------------------------------------------------------------------
  Maximum abs         0.002115      0.001518      0.007097      0.000000
--------------------------------------------------------------------------------


  Time to end of optimisation =      43.9930 seconds


  Peak dynamic memory used =      19.13 MB 


  Timing analysis for GULP :

--------------------------------------------------------------------------------
  Task / Subroutine                                          Time (Seconds)
--------------------------------------------------------------------------------
  Calculation of reciprocal space energy and derivatives          1.2427
  Calculation of real space energy and derivatives               38.1388
  Calculation of three-body energy and derivatives                3.7850
  Calculation of matrix inversion                                 0.7440
--------------------------------------------------------------------------------
  Total CPU time                                                 43.9930
--------------------------------------------------------------------------------


  Dump file written as out.res                                                 
  CIF file written as out.cif                                                 


  Job Finished at 08:52.38  1st November   2016                               

