********************************************************************************
*                       GENERAL UTILITY LATTICE PROGRAM                        *
*                                 Julian Gale                                  *
*                      Nanochemistry Research Institute                        *
*                           Department of Chemistry                            *
*                    Curtin University, Western Australia                      *
********************************************************************************
* Version = 4.2.0 * Last modified =  20th January 2014                         *
********************************************************************************
*  optimise     - perform optimisation run                                     *
*  conp         - constant pressure calculation                                *
*  qok          - running with non charge neutral cell is OK                   *
********************************************************************************

  Job Started  at 12:13.16  1st November   2016                               

  Number of CPUs =     1


  Total number of configurations input =   1

********************************************************************************
*  Input for Configuration =   1                                               *
********************************************************************************

  Formula = Ge3Si57O120F6                                               

  Number of irreducible atoms/shells =     312


  Total number atoms/shells =     312

  Dimensionality = 3               :  Bulk   


  Charge on solid   =  -6.000000 =>neutralising background added


  Cartesian lattice vectors (Angstroms) :

       11.911517    0.000000    0.000000
       -5.955859   10.318872    0.000000
       -0.012411   -0.001036   29.687967

  Cell parameters (Angstroms/Degrees):

  a =      11.9115    alpha =  89.9898
  b =      11.9143    beta  =  90.0240
  c =      29.6880    gamma = 119.9927

  Initial cell volume =        3649.049601 Angs**3

  Temperature of configuration =  0.000     K 

  Pressure of configuration =         0.000 GPa 

  Fractional coordinates of asymmetric unit :

--------------------------------------------------------------------------------
   No.  Atomic       x           y          z         Charge      Occupancy
        Label      (Frac)      (Frac)     (Frac)        (e)         (Frac)  
--------------------------------------------------------------------------------
      1 Ge    c    0.699600    0.375700    0.033890     4.00000    1.000000    
      2 Si    c    0.623835 *  0.320353 *  0.364736 *   4.00000    1.000000    
      3 Si    c    0.673447 *  0.295901 *  0.698397 *   4.00000    1.000000    
      4 Si    c    0.295871 *  0.623082 *  0.534299 *   4.00000    1.000000    
      5 Si    c    0.378947 *  0.675367 *  0.865064 *   4.00000    1.000000    
      6 Si    c    0.324010 *  0.699018 *  0.199117 *   4.00000    1.000000    
      7 Si    c    0.374769 *  0.686722 *  0.299701 *   4.00000    1.000000    
      8 Si    c    0.326806 *  0.617560 *  0.964307 *   4.00000    1.000000    
      9 Si    c    0.294247 *  0.676500 *  0.634173 *   4.00000    1.000000    
     10 Si    c    0.621256 *  0.297617 *  0.798238 *   4.00000    1.000000    
     11 Si    c    0.674997 *  0.380126 *  0.465904 *   4.00000    1.000000    
     12 Si    c    0.692682 *  0.319253 *  0.134113 *   4.00000    1.000000    
     13 Si    c    0.528753 *  0.406477 *  0.964577 *   4.00000    1.000000    
     14 Si    c    0.582473 *  0.104189 *  0.302060 *   4.00000    1.000000    
     15 Si    c    0.880829 *  0.468691 *  0.633131 *   4.00000    1.000000    
     16 Si    c    0.464389 *  0.593527 *  0.465779 *   4.00000    1.000000    
     17 Si    c    0.415088 *  0.884497 *  0.799954 *   4.00000    1.000000    
     18 Si    c    0.114750 *  0.530768 *  0.132126 *   4.00000    1.000000    
     19 Ge    c    0.431635 *  0.526071 *  0.367577 *   4.00000    1.000000    
     20 Si    c    0.117544 *  0.584534 *  0.029290 *   4.00000    1.000000    
     21 Si    c    0.466735 *  0.884958 *  0.699142 *   4.00000    1.000000    
     22 Si    c    0.581862 *  0.466791 *  0.863654 *   4.00000    1.000000    
     23 Si    c    0.883626 *  0.418717 *  0.532512 *   4.00000    1.000000    
     24 Si    c    0.533310 *  0.109806 *  0.201913 *   4.00000    1.000000    
     25 Si    c    0.300486 *  0.396892 *  0.848782 *   4.00000    1.000000    
     26 Si    c    0.604621 *  0.901018 *  0.185830 *   4.00000    1.000000    
     27 Si    c    0.093430 *  0.699686 *  0.518549 *   4.00000    1.000000    
     28 Si    c    0.706124 *  0.604256 *  0.345544 *   4.00000    1.000000    
     29 Si    c    0.394194 *  0.093797 *  0.683801 *   4.00000    1.000000    
     30 Si    c    0.900883 *  0.298374 *  0.014312 *   4.00000    1.000000    
     31 Si    c    0.391952 *  0.304886 *  0.479403 *   4.00000    1.000000    
     32 Si    c    0.898685 *  0.603380 *  0.147388 *   4.00000    1.000000    
     33 Si    c    0.698168 *  0.095234 *  0.813365 *   4.00000    1.000000    
     34 Si    c    0.604851 *  0.691605 *  0.979537 *   4.00000    1.000000    
     35 Si    c    0.090922 *  0.396489 *  0.647840 *   4.00000    1.000000    
     36 Si    c    0.300081 *  0.892906 *  0.314264 *   4.00000    1.000000    
     37 Si    c    0.250305 *  0.335349 *  0.948161 *   4.00000    1.000000    
     38 Si    c    0.658683 *  0.901551 *  0.285860 *   4.00000    1.000000    
     39 Si    c    0.083792 *  0.748342 *  0.618323 *   4.00000    1.000000    
     40 Si    c    0.745663 *  0.666182 *  0.447694 *   4.00000    1.000000    
     41 Si    c    0.338277 *  0.087138 *  0.783768 *   4.00000    1.000000    
     42 Si    c    0.909836 *  0.249244 *  0.115962 *   4.00000    1.000000    
     43 Si    c    0.334307 *  0.245788 *  0.378243 *   4.00000    1.000000    
     44 Ge    c    0.906722 *  0.655099 *  0.045755 *   4.00000    1.000000    
     45 Si    c    0.746297 *  0.086792 *  0.713399 *   4.00000    1.000000    
     46 Si    c    0.660545 *  0.746393 *  0.879582 *   4.00000    1.000000    
     47 Si    c    0.084992 *  0.340376 *  0.547846 *   4.00000    1.000000    
     48 Si    c    0.252639 *  0.909078 *  0.214777 *   4.00000    1.000000    
     49 Si    c    0.971049 *  0.119881 *  0.963884 *   4.00000    1.000000    
     50 Si    c    0.885835 *  0.849907 *  0.297914 *   4.00000    1.000000    
     51 Si    c    0.148148 *  0.029260 *  0.631991 *   4.00000    1.000000    
     52 Si    c    0.027629 *  0.879081 *  0.465726 *   4.00000    1.000000    
     53 Si    c    0.120282 *  0.149551 *  0.798134 *   4.00000    1.000000    
     54 Si    c    0.849326 *  0.969101 *  0.132014 *   4.00000    1.000000    
     55 Si    c    0.121790 *  0.960725 *  0.364738 *   4.00000    1.000000    
     56 Si    c    0.851955 *  0.879764 *  0.030917 *   4.00000    1.000000    
     57 Si    c    0.026334 *  0.149069 *  0.697934 *   4.00000    1.000000    
     58 Si    c    0.878125 *  0.026761 *  0.863741 *   4.00000    1.000000    
     59 Si    c    0.146760 *  0.121846 *  0.531326 *   4.00000    1.000000    
     60 Si    c    0.974841 *  0.852640 *  0.197619 *   4.00000    1.000000    
     61 O2    c    0.922095 *  0.002916 *  0.998369 *   0.87073    1.000000    
     62 O2    c    0.004619 *  0.929797 *  0.331387 *   0.87073    1.000000    
     63 O2    c    0.068607 *  0.073388 *  0.663561 *   0.87073    1.000000    
     64 O2    c    0.068114 *  0.002696 *  0.497452 *   0.87073    1.000000    
     65 O2    c    0.998412 *  0.069221 *  0.830460 *   0.87073    1.000000    
     66 O2    c    0.935681 *  0.930618 *  0.162869 *   0.87073    1.000000    
     67 O3    c    0.339897 *  0.568225 *  0.330949 *   1.33043    1.000000    
     68 O2    c    0.417022 *  0.758587 *  0.666965 *   0.87073    1.000000    
     69 O2    c    0.245772 *  0.656989 *  0.998367 *   0.87073    1.000000    
     70 O2    c    0.660270 *  0.420654 *  0.830761 *   0.87073    1.000000    
     71 O2    c    0.582173 *  0.238040 *  0.171127 *   0.87073    1.000000    
     72 O2    c    0.758013 *  0.343584 *  0.499569 *   0.87073    1.000000    
     73 O3    c    0.567584 *  0.325731 *  0.996715 *   1.33043    1.000000    
     74 O2    c    0.755475 *  0.419381 *  0.665419 *   0.87073    1.000000    
     75 O2    c    0.660256 *  0.229782 *  0.334905 *   0.87073    1.000000    
     76 O2    c    0.422540 *  0.665165 *  0.503241 *   0.87073    1.000000    
     77 O2    c    0.238686 *  0.578633 *  0.164885 *   0.87073    1.000000    
     78 O2    c    0.339230 *  0.760371 *  0.832789 *   0.87073    1.000000    
     79 O2    c    0.126091 *  0.207361 *  0.968703 *   0.87073    1.000000    
     80 O2    c    0.785428 *  0.901696 *  0.306089 *   0.87073    1.000000    
     81 O2    c    0.082419 *  0.874396 *  0.638197 *   0.87073    1.000000    
     82 O2    c    0.872197 *  0.788609 *  0.469580 *   0.87073    1.000000    
     83 O2    c    0.211679 *  0.086324 *  0.804099 *   0.87073    1.000000    
     84 O2    c    0.910083 *  0.124361 *  0.137020 *   0.87073    1.000000    
     85 O2    c    0.217220 *  0.112888 *  0.359031 *   0.87073    1.000000    
     86 O3    c    0.928695 *  0.804947 *  0.026771 *   1.33043    1.000000    
     87 O2    c    0.871370 *  0.084252 *  0.692943 *   0.87073    1.000000    
     88 O2    c    0.787100 *  0.871942 *  0.858761 *   0.87073    1.000000    
     89 O2    c    0.082021 *  0.212415 *  0.527468 *   0.87073    1.000000    
     90 O2    c    0.129652 *  0.913778 *  0.193421 *   0.87073    1.000000    
     91 O2    c    0.936497 *  0.874297 *  0.247156 *   0.87073    1.000000    
     92 O2    c    0.137445 *  0.067019 *  0.581048 *   0.87073    1.000000    
     93 O2    c    0.930953 *  0.064606 *  0.913920 *   0.87073    1.000000    
     94 O2    c    0.068329 *  0.134332 *  0.747562 *   0.87073    1.000000    
     95 O2    c    0.854614 *  0.931581 *  0.081115 *   0.87073    1.000000    
     96 O2    c    0.068412 *  0.925926 *  0.415133 *   0.87073    1.000000    
     97 O2    c    0.907091 *  0.207670 *  0.975082 *   0.87073    1.000000    
     98 O2    c    0.817093 *  0.696749 *  0.309380 *   0.87073    1.000000    
     99 O2    c    0.299684 *  0.097228 *  0.644903 *   0.87073    1.000000    
    100 O2    c    0.097025 *  0.798140 *  0.480083 *   0.87073    1.000000    
    101 O2    c    0.202533 *  0.302100 *  0.809828 *   0.87073    1.000000    
    102 O2    c    0.699553 *  0.897607 *  0.147333 *   0.87073    1.000000    
    103 O2    c    0.199284 *  0.885727 *  0.352888 *   0.87073    1.000000    
    104 O2    c    0.699914 *  0.785679 *  0.018683 *   0.87073    1.000000    
    105 O2    c    0.093736 *  0.301710 *  0.686449 *   0.87073    1.000000    
    106 O2    c    0.795896 *  0.097159 *  0.851819 *   0.87073    1.000000    
    107 O2    c    0.298500 *  0.208189 *  0.518438 *   0.87073    1.000000    
    108 O2    c    0.904169 *  0.698620 *  0.187978 *   0.87073    1.000000    
    109 O2    c    0.323958 *  0.638458 *  0.247976 *   0.87073    1.000000    
    110 O2    c    0.351915 *  0.679673 *  0.584182 *   0.87073    1.000000    
    111 O2    c    0.320904 *  0.675111 *  0.914905 *   0.87073    1.000000    
    112 O2    c    0.676504 *  0.354983 *  0.748142 *   0.87073    1.000000    
    113 O3    c    0.625320 *  0.311426 *  0.086602 *   1.33043    1.000000    
    114 O2    c    0.674368 *  0.324694 *  0.416019 *   0.87073    1.000000    
    115 O2    c    0.371099 *  0.321462 *  0.964756 *   0.87073    1.000000    
    116 O2    c    0.671099 *  0.036050 *  0.304236 *   0.87073    1.000000    
    117 O2    c    0.949280 *  0.625666 *  0.635635 *   0.87073    1.000000    
    118 O2    c    0.623586 *  0.677405 *  0.465580 *   0.87073    1.000000    
    119 O2    c    0.327533 *  0.954024 *  0.802102 *   0.87073    1.000000    
    120 O2    c    0.040876 *  0.373872 *  0.134215 *   0.87073    1.000000    
    121 O3    c    0.315763 *  0.358029 *  0.358499 *   1.33043    1.000000    
    122 O3    c    0.054309 *  0.674476 *  0.027170 *   1.33043    1.000000    
    123 O2    c    0.623457 *  0.953350 *  0.695339 *   0.87073    1.000000    
    124 O2    c    0.668940 *  0.623667 *  0.860278 *   0.87073    1.000000    
    125 O2    c    0.952841 *  0.331185 *  0.528678 *   0.87073    1.000000    
    126 O2    c    0.376790 *  0.041351 *  0.196842 *   0.87073    1.000000    
    127 O3    c    0.764063 *  0.287641 *  0.007601 *   1.33043    1.000000    
    128 O2    c    0.701477 *  0.465047 *  0.343753 *   0.87073    1.000000    
    129 O2    c    0.529550 *  0.227516 *  0.676162 *   0.87073    1.000000    
    130 O2    c    0.226482 *  0.696691 *  0.511187 *   0.87073    1.000000    
    131 O2    c    0.303940 *  0.533300 *  0.841217 *   0.87073    1.000000    
    132 O2    c    0.467596 *  0.769885 *  0.176640 *   0.87073    1.000000    
    133 O2    c    0.298430 *  0.757983 *  0.319688 *   0.87073    1.000000    
    134 O2    c    0.470875 *  0.693948 *  0.986081 *   0.87073    1.000000    
    135 O2    c    0.225148 *  0.531231 *  0.655027 *   0.87073    1.000000    
    136 O2    c    0.697729 *  0.229784 *  0.820091 *   0.87073    1.000000    
    137 O2    c    0.528756 *  0.308493 *  0.485333 *   0.87073    1.000000    
    138 O2    c    0.766191 *  0.466371 *  0.154416 *   0.87073    1.000000    
    139 O1    c    0.767642 *  0.541374 *  0.020881 *   1.73396    1.000000    
    140 O2    c    0.468851 *  0.255186 *  0.361478 *   0.87073    1.000000    
    141 O2    c    0.749047 *  0.214446 *  0.693505 *   0.87073    1.000000    
    142 O2    c    0.214497 *  0.465777 *  0.529269 *   0.87073    1.000000    
    143 O2    c    0.536170 *  0.752275 *  0.860894 *   0.87073    1.000000    
    144 O2    c    0.247697 *  0.779841 *  0.195434 *   0.87073    1.000000    
    145 O2    c    0.532072 *  0.776983 *  0.305081 *   0.87073    1.000000    
    146 O2    c    0.249548 *  0.460469 *  0.968979 *   0.87073    1.000000    
    147 O2    c    0.209376 *  0.748348 *  0.638574 *   0.87073    1.000000    
    148 O2    c    0.464517 *  0.214123 *  0.802845 *   0.87073    1.000000    
    149 O2    c    0.737662 *  0.535117 *  0.466121 *   0.87073    1.000000    
    150 O2    c    0.784885 *  0.254676 *  0.133016 *   0.87073    1.000000    
    151 O2    c    0.226595 *  0.320685 *  0.894248 *   0.87073    1.000000    
    152 O2    c    0.676718 *  0.899810 *  0.231865 *   0.87073    1.000000    
    153 O2    c    0.089288 *  0.770591 *  0.564463 *   0.87073    1.000000    
    154 O2    c    0.763931 *  0.678218 *  0.393868 *   0.87073    1.000000    
    155 O2    c    0.319425 *  0.089436 *  0.729829 *   0.87073    1.000000    
    156 O2    c    0.911970 *  0.237363 *  0.062051 *   0.87073    1.000000    
    157 O2    c    0.321783 *  0.235338 *  0.432999 *   0.87073    1.000000    
    158 O3    c    0.900452 *  0.680938 *  0.103692 *   1.33043    1.000000    
    159 O2    c    0.767995 *  0.089930 *  0.767206 *   0.87073    1.000000    
    160 O2    c    0.680791 *  0.762799 *  0.933505 *   0.87073    1.000000    
    161 O2    c    0.085247 *  0.321083 *  0.601681 *   0.87073    1.000000    
    162 O2    c    0.231632 *  0.905412 *  0.268689 *   0.87073    1.000000    
    163 O2    c    0.583297 *  0.548779 *  0.987374 *   0.87073    1.000000    
    164 O2    c    0.440072 *  0.019071 *  0.324752 *   0.87073    1.000000    
    165 O2    c    0.965576 *  0.411785 *  0.656097 *   0.87073    1.000000    
    166 O2    c    0.411104 *  0.447139 *  0.485733 *   0.87073    1.000000    
    167 O2    c    0.557678 *  0.970202 *  0.822116 *   0.87073    1.000000    
    168 O2    c    0.023214 *  0.583742 *  0.151161 *   0.87073    1.000000    
    169 O3    c    0.574545 *  0.596841 *  0.332459 *   1.33043    1.000000    
    170 O2    c    0.022488 *  0.443248 *  0.007462 *   0.87073    1.000000    
    171 O2    c    0.407084 *  0.966821 *  0.675479 *   0.87073    1.000000    
    172 O2    c    0.439621 *  0.407863 *  0.840667 *   0.87073    1.000000    
    173 O2    c    0.964608 *  0.561056 *  0.509535 *   0.87073    1.000000    
    174 O2    c    0.597070 *  0.031569 *  0.178151 *   0.87073    1.000000    
    175 O2    c    0.584526 *  0.163523 *  0.252529 *   0.87073    1.000000    
    176 O2    c    0.826954 *  0.414911 *  0.582598 *   0.87073    1.000000    
    177 O2    c    0.584200 *  0.413296 *  0.913647 *   0.87073    1.000000    
    178 O2    c    0.414175 *  0.830501 *  0.749476 *   0.87073    1.000000    
    179 O2    c    0.160955 *  0.577471 *  0.080964 *   0.87073    1.000000    
    180 O3    c    0.409047 *  0.599081 *  0.417805 *   1.33043    1.000000    
    181 F     c    0.454801 *  0.905303 *  0.248814 *   0.56000    1.000000    
    182 F     c    0.088580 *  0.546455 *  0.581903 *   0.56000    1.000000    
    183 F     c    0.448838 *  0.545984 *  0.912792 *   0.56000    1.000000    
    184 F     c    0.546400 *  0.093490 *  0.747569 *   0.56000    1.000000    
    185 F     c    0.872020 *  0.458549 *  0.072566 *   0.56000    1.000000    
    186 F     c    0.523998 *  0.472988 *  0.405127 *   0.56000    1.000000    
    187 O2    s    0.919904 *  0.002799 *  0.997984 *  -2.87073    1.000000    
    188 O2    s    0.004378 *  0.924185 *  0.331365 *  -2.87073    1.000000    
    189 O2    s    0.072910 *  0.076888 *  0.663831 *  -2.87073    1.000000    
    190 O2    s    0.072362 *  0.002241 *  0.497702 *  -2.87073    1.000000    
    191 O2    s    0.998655 *  0.073534 *  0.830544 *  -2.87073    1.000000    
    192 O2    s    0.930473 *  0.926268 *  0.163302 *  -2.87073    1.000000    
    193 O3    s    0.350035 *  0.578577 *  0.329904 *  -3.33043    1.000000    
    194 O2    s    0.409202 *  0.762921 *  0.666802 *  -2.87073    1.000000    
    195 O2    s    0.240525 *  0.645192 *  0.998120 *  -2.87073    1.000000    
    196 O2    s    0.648162 *  0.412449 *  0.830700 *  -2.87073    1.000000    
    197 O2    s    0.588790 *  0.233249 *  0.170400 *  -2.87073    1.000000    
    198 O2    s    0.761776 *  0.355064 *  0.499270 *  -2.87073    1.000000    
    199 O3    s    0.572983 *  0.337718 *  0.996060 *  -3.33043    1.000000    
    200 O2    s    0.760225 *  0.411911 *  0.665418 *  -2.87073    1.000000    
    201 O2    s    0.648597 *  0.226822 *  0.334797 *  -2.87073    1.000000    
    202 O2    s    0.413653 *  0.653464 *  0.502656 *  -2.87073    1.000000    
    203 O2    s    0.234098 *  0.585599 *  0.164849 *  -2.87073    1.000000    
    204 O2    s    0.351216 *  0.764736 *  0.832645 *  -2.87073    1.000000    
    205 O2    s    0.122229 *  0.211202 *  0.966067 *  -2.87073    1.000000    
    206 O2    s    0.783003 *  0.896139 *  0.303150 *  -2.87073    1.000000    
    207 O2    s    0.089577 *  0.877763 *  0.635479 *  -2.87073    1.000000    
    208 O2    s    0.875511 *  0.785418 *  0.466887 *  -2.87073    1.000000    
    209 O2    s    0.215168 *  0.093173 *  0.801353 *  -2.87073    1.000000    
    210 O2    s    0.903713 *  0.121433 *  0.134280 *  -2.87073    1.000000    
    211 O2    s    0.219398 *  0.110300 *  0.361797 *  -2.87073    1.000000    
    212 O3    s    0.918728 *  0.802211 *  0.028578 *  -3.33043    1.000000    
    213 O2    s    0.875042 *  0.091478 *  0.695573 *  -2.87073    1.000000    
    214 O2    s    0.783798 *  0.875605 *  0.861426 *  -2.87073    1.000000    
    215 O2    s    0.089257 *  0.215962 *  0.529963 *  -2.87073    1.000000    
    216 O2    s    0.125832 *  0.906736 *  0.196064 *  -2.87073    1.000000    
    217 O2    s    0.935057 *  0.869114 *  0.247360 *  -2.87073    1.000000    
    218 O2    s    0.139671 *  0.069026 *  0.581081 *  -2.87073    1.000000    
    219 O2    s    0.929446 *  0.066515 *  0.913817 *  -2.87073    1.000000    
    220 O2    s    0.069344 *  0.137704 *  0.747560 *  -2.87073    1.000000    
    221 O2    s    0.853719 *  0.930328 *  0.081582 *  -2.87073    1.000000    
    222 O2    s    0.069728 *  0.924463 *  0.415261 *  -2.87073    1.000000    
    223 O2    s    0.913448 *  0.207682 *  0.977987 *  -2.87073    1.000000    
    224 O2    s    0.813185 *  0.703412 *  0.311810 *  -2.87073    1.000000    
    225 O2    s    0.293057 *  0.089601 *  0.647467 *  -2.87073    1.000000    
    226 O2    s    0.089169 *  0.796699 *  0.482516 *  -2.87073    1.000000    
    227 O2    s    0.203620 *  0.295377 *  0.812500 *  -2.87073    1.000000    
    228 O2    s    0.705851 *  0.905635 *  0.149669 *  -2.87073    1.000000    
    229 O2    s    0.201051 *  0.894458 *  0.350293 *  -2.87073    1.000000    
    230 O2    s    0.705614 *  0.785530 *  0.015864 *  -2.87073    1.000000    
    231 O2    s    0.086276 *  0.295324 *  0.683660 *  -2.87073    1.000000    
    232 O2    s    0.794518 *  0.089509 *  0.849111 *  -2.87073    1.000000    
    233 O2    s    0.292175 *  0.209108 *  0.515745 *  -2.87073    1.000000    
    234 O2    s    0.911044 *  0.705323 *  0.184988 *  -2.87073    1.000000    
    235 O2    s    0.328888 *  0.649492 *  0.247856 *  -2.87073    1.000000    
    236 O2    s    0.340132 *  0.673476 *  0.584157 *  -2.87073    1.000000    
    237 O2    s    0.327377 *  0.669313 *  0.914815 *  -2.87073    1.000000    
    238 O2    s    0.670561 *  0.343051 *  0.748125 *  -2.87073    1.000000    
    239 O3    s    0.637292 *  0.316857 *  0.087522 *  -3.33043    1.000000    
    240 O2    s    0.669318 *  0.330042 *  0.416016 *  -2.87073    1.000000    
    241 O2    s    0.373910 *  0.331727 *  0.962875 *  -2.87073    1.000000    
    242 O2    s    0.660582 *  0.029336 *  0.302107 *  -2.87073    1.000000    
    243 O2    s    0.956372 *  0.622335 *  0.633529 *  -2.87073    1.000000    
    244 O2    s    0.621039 *  0.668010 *  0.463667 *  -2.87073    1.000000    
    245 O2    s    0.337741 *  0.960863 *  0.799931 *  -2.87073    1.000000    
    246 O2    s    0.034774 *  0.377099 *  0.132072 *  -2.87073    1.000000    
    247 O3    s    0.325640 *  0.357227 *  0.361287 *  -3.33043    1.000000    
    248 O3    s    0.049352 *  0.663642 *  0.028848 *  -3.33043    1.000000    
    249 O2    s    0.620092 *  0.960288 *  0.697641 *  -2.87073    1.000000    
    250 O2    s    0.658997 *  0.620364 *  0.862682 *  -2.87073    1.000000    
    251 O2    s    0.959368 *  0.341257 *  0.531075 *  -2.87073    1.000000    
    252 O2    s    0.379867 *  0.034397 *  0.199283 *  -2.87073    1.000000    
    253 O3    s    0.773756 *  0.295288 *  0.010345 *  -3.33043    1.000000    
    254 O2    s    0.693788 *  0.463913 *  0.346175 *  -2.87073    1.000000    
    255 O2    s    0.530078 *  0.220389 *  0.679305 *  -2.87073    1.000000    
    256 O2    s    0.219425 *  0.689403 *  0.514382 *  -2.87073    1.000000    
    257 O2    s    0.311278 *  0.533449 *  0.844495 *  -2.87073    1.000000    
    258 O2    s    0.467095 *  0.776321 *  0.179962 *  -2.87073    1.000000    
    259 O2    s    0.306237 *  0.765746 *  0.317035 *  -2.87073    1.000000    
    260 O2    s    0.469871 *  0.685730 *  0.983076 *  -2.87073    1.000000    
    261 O2    s    0.218018 *  0.532008 *  0.652042 *  -2.87073    1.000000    
    262 O2    s    0.689857 *  0.222494 *  0.817079 *  -2.87073    1.000000    
    263 O2    s    0.529861 *  0.315704 *  0.482633 *  -2.87073    1.000000    
    264 O2    s    0.772759 *  0.466040 *  0.151590 *  -2.87073    1.000000    
    265 O1    s    0.774411 *  0.539287 *  0.023786 *  -3.73396    1.000000    
    266 O2    s    0.471983 *  0.261511 *  0.363548 *  -2.87073    1.000000    
    267 O2    s    0.740789 *  0.209091 *  0.696123 *  -2.87073    1.000000    
    268 O2    s    0.208842 *  0.468466 *  0.531759 *  -2.87073    1.000000    
    269 O2    s    0.533170 *  0.743538 *  0.863326 *  -2.87073    1.000000    
    270 O2    s    0.256230 *  0.785313 *  0.197871 *  -2.87073    1.000000    
    271 O2    s    0.530505 *  0.782096 *  0.302420 *  -2.87073    1.000000    
    272 O2    s    0.257691 *  0.463406 *  0.966298 *  -2.87073    1.000000    
    273 O2    s    0.204499 *  0.740692 *  0.635930 *  -2.87073    1.000000    
    274 O2    s    0.467179 *  0.208896 *  0.800297 *  -2.87073    1.000000    
    275 O2    s    0.731610 *  0.532353 *  0.464106 *  -2.87073    1.000000    
    276 O2    s    0.789284 *  0.260867 *  0.131212 *  -2.87073    1.000000    
    277 O2    s    0.236766 *  0.330191 *  0.895121 *  -2.87073    1.000000    
    278 O2    s    0.667228 *  0.900113 *  0.232681 *  -2.87073    1.000000    
    279 O2    s    0.089148 *  0.760751 *  0.565306 *  -2.87073    1.000000    
    280 O2    s    0.756320 *  0.669762 *  0.394991 *  -2.87073    1.000000    
    281 O2    s    0.329264 *  0.089653 *  0.730622 *  -2.87073    1.000000    
    282 O2    s    0.910628 *  0.244829 *  0.063023 *  -2.87073    1.000000    
    283 O2    s    0.330575 *  0.243882 *  0.432501 *  -2.87073    1.000000    
    284 O3    s    0.900637 *  0.670899 *  0.103850 *  -3.33043    1.000000    
    285 O2    s    0.758418 *  0.090153 *  0.766316 *  -2.87073    1.000000    
    286 O2    s    0.670844 *  0.753738 *  0.932542 *  -2.87073    1.000000    
    287 O2    s    0.085797 *  0.330975 *  0.600765 *  -2.87073    1.000000    
    288 O2    s    0.240873 *  0.904537 *  0.267700 *  -2.87073    1.000000    
    289 O2    s    0.579820 *  0.549938 *  0.984162 *  -2.87073    1.000000    
    290 O2    s    0.440193 *  0.014569 *  0.321293 *  -2.87073    1.000000    
    291 O2    s    0.970471 *  0.416292 *  0.652767 *  -2.87073    1.000000    
    292 O2    s    0.414395 *  0.445869 *  0.483023 *  -2.87073    1.000000    
    293 O2    s    0.557938 *  0.974958 *  0.818814 *  -2.87073    1.000000    
    294 O2    s    0.019777 *  0.579974 *  0.148688 *  -2.87073    1.000000    
    295 O3    s    0.579316 *  0.592732 *  0.336260 *  -3.33043    1.000000    
    296 O2    s    0.019374 *  0.442729 *  0.010488 *  -2.87073    1.000000    
    297 O2    s    0.412046 *  0.972167 *  0.678828 *  -2.87073    1.000000    
    298 O2    s    0.439426 *  0.412968 *  0.843941 *  -2.87073    1.000000    
    299 O2    s    0.969920 *  0.560895 *  0.512889 *  -2.87073    1.000000    
    300 O2    s    0.591187 *  0.025616 *  0.181421 *  -2.87073    1.000000    
    301 O2    s    0.578990 *  0.151793 *  0.252443 *  -2.87073    1.000000    
    302 O2    s    0.838365 *  0.420786 *  0.582522 *  -2.87073    1.000000    
    303 O2    s    0.578443 *  0.418243 *  0.913501 *  -2.87073    1.000000    
    304 O2    s    0.419747 *  0.841736 *  0.749424 *  -2.87073    1.000000    
    305 O2    s    0.151730 *  0.573217 *  0.081203 *  -2.87073    1.000000    
    306 O3    s    0.416325 *  0.593778 *  0.419522 *  -3.33043    1.000000    
    307 F     s    0.454931 *  0.905870 *  0.248627 *  -1.56000    1.000000    
    308 F     s    0.088596 *  0.546463 *  0.581750 *  -1.56000    1.000000    
    309 F     s    0.448205 *  0.546430 *  0.912646 *  -1.56000    1.000000    
    310 F     s    0.546640 *  0.093800 *  0.747434 *  -1.56000    1.000000    
    311 F     s    0.866817 *  0.459062 *  0.070986 *  -1.56000    1.000000    
    312 F     s    0.517922 *  0.476767 *  0.402617 *  -1.56000    1.000000    
--------------------------------------------------------------------------------



********************************************************************************
*  General input information                                                   *
********************************************************************************

  Species output for all configurations : 

--------------------------------------------------------------------------------
  Species    Type    Atomic    Atomic    Charge       Radii (Angs)     Library
                     Number     Mass       (e)     Cova   Ionic  VDW   Symbol
--------------------------------------------------------------------------------
    Si       Core       14      28.09   4.000000   1.200  0.000  2.100          
    O1       Core        8      16.00   1.733957   0.730  0.000  1.360          
    O1       Shell       8       0.00  -3.733957   0.730  0.000  1.360          
    O2       Core        8      16.00   0.870733   0.730  0.000  1.360          
    O2       Shell       8       0.00  -2.870733   0.730  0.000  1.360          
    O3       Core        8      16.00   1.330431   0.730  0.000  1.360          
    O3       Shell       8       0.00  -3.330431   0.730  0.000  1.360          
    F        Core        9      19.00   0.560000   0.710  0.000  1.300          
    F        Shell       9       0.00  -1.560000   0.710  0.000  1.300          
    Ge       Core       32      72.61   4.000000   1.170  0.000  1.750          
--------------------------------------------------------------------------------


  Lattice summation method               =    Ewald          (3-D)
                                         =    Parry          (2-D)
                                         =    Saunders et al (1-D)
  Accuracy factor for lattice sums       =   12.000


  Time limit = Infinity

  Maximum range for interatomic potentials =        16.000000 Angstroms

  Taper potentials to zero over   1.0000 Angstroms using polynomial

  General interatomic potentials :

--------------------------------------------------------------------------------
Atom  Types   Potential         A         B         C         D     Cutoffs(Ang)
  1     2                                                            Min    Max 
--------------------------------------------------------------------------------
Si   c O1   s Buckingham    0.132E+04 0.318      10.1      0.00     0.000 16.000
Si   c O2   s Buckingham    0.132E+04 0.318      10.1      0.00     0.000 16.000
Si   c O3   s Buckingham    0.132E+04 0.318      10.1      0.00     0.000 16.000
Ge   c O1   s Buckingham    0.150E+04 0.326      16.8      0.00     0.000 16.000
Ge   c O2   s Buckingham    0.150E+04 0.326      16.8      0.00     0.000 16.000
Ge   c O3   s Buckingham    0.150E+04 0.326      16.8      0.00     0.000 16.000
O1   s O1   s Buckingham    0.228E+05 0.149      10.9      0.00     0.000 16.000
O1   s O2   s Buckingham    0.228E+05 0.149      10.9      0.00     0.000 16.000
O1   s O3   s Buckingham    0.228E+05 0.149      10.9      0.00     0.000 16.000
O2   s O2   s Buckingham    0.228E+05 0.149      10.9      0.00     0.000 16.000
O2   s O3   s Buckingham    0.228E+05 0.149      10.9      0.00     0.000 16.000
O3   s O3   s Buckingham    0.228E+05 0.149      10.9      0.00     0.000 16.000
Si   c F    s Buckingham     977.     0.282      0.00      0.00     0.000 16.000
Ge   c F    s Buckingham     681.     0.320      0.00      0.00     0.000 16.000
F    s F    s Buckingham     540.     0.262      0.00      0.00     0.000 16.000
O1   s F    s Buckingham    0.168E+04 0.268      0.00      0.00     0.000 16.000
O2   s F    s Buckingham    0.168E+04 0.268      0.00      0.00     0.000 16.000
O3   s F    s Buckingham    0.168E+04 0.268      0.00      0.00     0.000 16.000
O2   c O2   s Spring (c-s)   76.0      0.00      0.00      0.00     0.000  0.800
O3   c O3   s Spring (c-s)   128.      0.00      0.00      0.00     0.000  0.800
O1   c O1   s Spring (c-s)   180.      0.00      0.00      0.00     0.000  0.800
F    c F    s Spring (c-s)   33.5      0.00      0.00      0.00     0.000  0.800
--------------------------------------------------------------------------------

  General Three-body potentials :

  Harmonic form:

--------------------------------------------------------------------------------
Atom    Atom    Atom           Force Constants            Theta     Cutoffs  
  1       2       3     (eVrad**-2/eVrad**-3/eVrad**-4)   (deg)  1-2  1-3  2-3
--------------------------------------------------------------------------------
Si    c O1    s O1    s  1.261        0.0000    0.0000   109.470 0.00 0.00 0.00
                                                                 1.90 1.90 3.50
Si    c O1    s O2    s  1.261        0.0000    0.0000   109.470 0.00 0.00 0.00
                                                                 1.90 1.90 3.50
Si    c O2    s O2    s  1.261        0.0000    0.0000   109.470 0.00 0.00 0.00
                                                                 1.90 1.90 3.50
--------------------------------------------------------------------------------

********************************************************************************
*  Output for configuration   1                                                *
********************************************************************************


  Components of energy : 

--------------------------------------------------------------------------------
  Interatomic potentials     =        2066.98484229 eV
  Three-body potentials      =           0.41868093 eV
  Monopole - monopole (real) =       -6613.69562987 eV
  Monopole - monopole (recip)=       -3173.93108897 eV
  Monopole - monopole (total)=       -9787.62671885 eV
  Neutralising energy        =          -6.46460543 eV
--------------------------------------------------------------------------------
  Total lattice energy       =       -7726.68780106 eV
--------------------------------------------------------------------------------
  Total lattice energy       =         -745507.2596 kJ/(mole unit cells)
--------------------------------------------------------------------------------


  Number of variables =      939

  Maximum number of calculations  =          5000
  Maximum Hessian update interval =            10
  Maximum step size               =   0.100000000
  Maximum parameter tolerance     =   0.000010000
  Maximum function  tolerance     =   0.000010000
  Maximum gradient  tolerance     =   0.001000000
  Maximum gradient  component     =   0.010000000

  Symmetry not applied to optimisation

  Cell parameters to be optimised using strains

  Newton-Raphson optimiser to be used

  BFGS hessian update to be used

  Dumpfile to be written after every cycle

  Start of bulk optimisation :

  Cycle:      0 Energy:     -7726.687801  Gnorm:      0.027337  CPU:    2.052
  ** Hessian calculated **
  Cycle:      1 Energy:     -7726.696144  Gnorm:      0.014700  CPU:    6.605
  Cycle:      2 Energy:     -7726.704718  Gnorm:      0.013839  CPU:   10.781
  Cycle:      3 Energy:     -7726.710980  Gnorm:      0.011869  CPU:   14.281
  Cycle:      4 Energy:     -7726.713960  Gnorm:      0.010435  CPU:   17.782
  Cycle:      5 Energy:     -7726.715903  Gnorm:      0.008765  CPU:   21.282
  Cycle:      6 Energy:     -7726.717635  Gnorm:      0.007931  CPU:   24.782
  Cycle:      7 Energy:     -7726.719830  Gnorm:      0.009393  CPU:   28.959
  Cycle:      8 Energy:     -7726.722091  Gnorm:      0.009966  CPU:   32.459
  Cycle:      9 Energy:     -7726.725232  Gnorm:      0.011158  CPU:   36.636
  Cycle:     10 Energy:     -7726.728321  Gnorm:      0.011765  CPU:   40.136
  ** Hessian calculated **
  Cycle:     11 Energy:     -7726.729101  Gnorm:      0.008724  CPU:   44.648
  Cycle:     12 Energy:     -7726.730640  Gnorm:      0.007285  CPU:   49.502
  Cycle:     13 Energy:     -7726.732123  Gnorm:      0.006171  CPU:   53.680
  Cycle:     14 Energy:     -7726.733509  Gnorm:      0.006635  CPU:   57.856
  Cycle:     15 Energy:     -7726.734296  Gnorm:      0.006264  CPU:   61.356
  Cycle:     16 Energy:     -7726.734972  Gnorm:      0.005623  CPU:   65.533
  Cycle:     17 Energy:     -7726.735857  Gnorm:      0.005943  CPU:   69.710
  Cycle:     18 Energy:     -7726.737187  Gnorm:      0.005930  CPU:   73.887
  Cycle:     19 Energy:     -7726.739119  Gnorm:      0.007178  CPU:   78.064
  Cycle:     20 Energy:     -7726.741721  Gnorm:      0.009260  CPU:   82.241
  ** Hessian calculated **
  Cycle:     21 Energy:     -7726.742483  Gnorm:      0.006285  CPU:   87.429
  Cycle:     22 Energy:     -7726.743692  Gnorm:      0.006125  CPU:   92.283
  Cycle:     23 Energy:     -7726.744947  Gnorm:      0.004929  CPU:   96.460
  Cycle:     24 Energy:     -7726.745821  Gnorm:      0.004585  CPU:   99.959
  Cycle:     25 Energy:     -7726.746347  Gnorm:      0.004886  CPU:  103.458
  Cycle:     26 Energy:     -7726.746687  Gnorm:      0.003927  CPU:  107.634
  Cycle:     27 Energy:     -7726.747028  Gnorm:      0.004019  CPU:  111.133
  Cycle:     28 Energy:     -7726.747591  Gnorm:      0.004669  CPU:  115.309
  Cycle:     29 Energy:     -7726.748293  Gnorm:      0.005605  CPU:  119.485
  Cycle:     30 Energy:     -7726.749254  Gnorm:      0.007046  CPU:  123.661
  ** Hessian calculated **
  Cycle:     31 Energy:     -7726.749557  Gnorm:      0.004769  CPU:  128.173
  Cycle:     32 Energy:     -7726.749817  Gnorm:      0.004182  CPU:  130.995
  Cycle:     33 Energy:     -7726.750497  Gnorm:      0.003901  CPU:  135.848
  Cycle:     34 Energy:     -7726.751115  Gnorm:      0.003780  CPU:  140.024
  Cycle:     35 Energy:     -7726.751470  Gnorm:      0.004209  CPU:  143.523
  Cycle:     36 Energy:     -7726.751769  Gnorm:      0.003649  CPU:  147.699
  Cycle:     37 Energy:     -7726.752117  Gnorm:      0.003489  CPU:  151.876
  Cycle:     38 Energy:     -7726.752549  Gnorm:      0.003719  CPU:  156.051
  Cycle:     39 Energy:     -7726.752976  Gnorm:      0.003889  CPU:  160.227
  Cycle:     40 Energy:     -7726.753596  Gnorm:      0.004744  CPU:  164.402
  ** Hessian calculated **
  Cycle:     41 Energy:     -7726.753868  Gnorm:      0.003743  CPU:  170.268
  Cycle:     42 Energy:     -7726.754207  Gnorm:      0.003452  CPU:  174.443
  Cycle:     43 Energy:     -7726.754622  Gnorm:      0.003094  CPU:  178.619
  Cycle:     44 Energy:     -7726.755108  Gnorm:      0.002845  CPU:  182.794
  Cycle:     45 Energy:     -7726.755405  Gnorm:      0.003442  CPU:  186.293
  Cycle:     46 Energy:     -7726.755606  Gnorm:      0.002701  CPU:  189.792
  Cycle:     47 Energy:     -7726.755761  Gnorm:      0.002687  CPU:  193.290
  Cycle:     48 Energy:     -7726.756014  Gnorm:      0.002816  CPU:  197.467
  Cycle:     49 Energy:     -7726.756359  Gnorm:      0.003353  CPU:  201.643
  Cycle:     50 Energy:     -7726.756842  Gnorm:      0.004582  CPU:  205.818
  ** Hessian calculated **
  Cycle:     51 Energy:     -7726.756981  Gnorm:      0.003350  CPU:  210.329
  Cycle:     52 Energy:     -7726.757106  Gnorm:      0.003084  CPU:  213.151
  Cycle:     53 Energy:     -7726.757249  Gnorm:      0.002920  CPU:  215.972
  Cycle:     54 Energy:     -7726.757722  Gnorm:      0.002667  CPU:  220.832
  Cycle:     55 Energy:     -7726.758148  Gnorm:      0.003480  CPU:  225.015
  Cycle:     56 Energy:     -7726.758345  Gnorm:      0.002476  CPU:  228.523
  Cycle:     57 Energy:     -7726.758450  Gnorm:      0.002398  CPU:  232.025
  Cycle:     58 Energy:     -7726.758607  Gnorm:      0.002400  CPU:  236.203
  Cycle:     59 Energy:     -7726.758856  Gnorm:      0.002813  CPU:  240.385
  Cycle:     60 Energy:     -7726.759228  Gnorm:      0.003313  CPU:  244.565
  ** Hessian calculated **
  Cycle:     61 Energy:     -7726.759317  Gnorm:      0.002746  CPU:  249.084
  Cycle:     62 Energy:     -7726.759516  Gnorm:      0.002598  CPU:  253.942
  Cycle:     63 Energy:     -7726.759760  Gnorm:      0.002406  CPU:  258.126
  Cycle:     64 Energy:     -7726.760050  Gnorm:      0.002170  CPU:  262.308
  Cycle:     65 Energy:     -7726.760316  Gnorm:      0.002753  CPU:  266.487
  Cycle:     66 Energy:     -7726.760444  Gnorm:      0.002143  CPU:  269.992
  Cycle:     67 Energy:     -7726.760533  Gnorm:      0.002131  CPU:  273.496
  Cycle:     68 Energy:     -7726.760679  Gnorm:      0.002397  CPU:  277.677
  Cycle:     69 Energy:     -7726.760921  Gnorm:      0.002746  CPU:  281.858
  Cycle:     70 Energy:     -7726.761306  Gnorm:      0.003430  CPU:  286.037
  ** Hessian calculated **
  Cycle:     71 Energy:     -7726.761391  Gnorm:      0.002687  CPU:  290.561
  Cycle:     72 Energy:     -7726.761470  Gnorm:      0.002547  CPU:  293.386
  Cycle:     73 Energy:     -7726.761712  Gnorm:      0.002392  CPU:  298.246
  Cycle:     74 Energy:     -7726.762004  Gnorm:      0.002006  CPU:  302.427
  Cycle:     75 Energy:     -7726.762281  Gnorm:      0.002355  CPU:  306.606
  Cycle:     76 Energy:     -7726.762419  Gnorm:      0.001756  CPU:  310.110
  Cycle:     77 Energy:     -7726.762490  Gnorm:      0.001908  CPU:  313.615
  Cycle:     78 Energy:     -7726.762601  Gnorm:      0.001987  CPU:  317.799
  Cycle:     79 Energy:     -7726.762782  Gnorm:      0.002313  CPU:  321.982
  Cycle:     80 Energy:     -7726.763063  Gnorm:      0.002739  CPU:  326.160
  ** Hessian calculated **
  Cycle:     81 Energy:     -7726.763127  Gnorm:      0.002439  CPU:  330.682
  Cycle:     82 Energy:     -7726.763188  Gnorm:      0.002365  CPU:  333.508
  Cycle:     83 Energy:     -7726.763378  Gnorm:      0.002239  CPU:  338.368
  Cycle:     84 Energy:     -7726.763619  Gnorm:      0.001814  CPU:  342.550
  Cycle:     85 Energy:     -7726.763866  Gnorm:      0.001836  CPU:  346.730
  Cycle:     86 Energy:     -7726.764004  Gnorm:      0.002083  CPU:  350.236
  Cycle:     87 Energy:     -7726.764083  Gnorm:      0.001796  CPU:  353.739
  Cycle:     88 Energy:     -7726.764176  Gnorm:      0.001975  CPU:  357.921
  Cycle:     89 Energy:     -7726.764315  Gnorm:      0.002375  CPU:  362.102
  Cycle:     90 Energy:     -7726.764540  Gnorm:      0.002864  CPU:  366.279
  ** Hessian calculated **
  Cycle:     91 Energy:     -7726.764607  Gnorm:      0.002314  CPU:  370.801
  Cycle:     92 Energy:     -7726.764670  Gnorm:      0.002246  CPU:  373.627
  Cycle:     93 Energy:     -7726.764864  Gnorm:      0.002200  CPU:  378.488
  Cycle:     94 Energy:     -7726.765103  Gnorm:      0.001695  CPU:  382.668
  Cycle:     95 Energy:     -7726.765320  Gnorm:      0.001883  CPU:  386.847
  Cycle:     96 Energy:     -7726.765422  Gnorm:      0.002022  CPU:  390.349
  Cycle:     97 Energy:     -7726.765464  Gnorm:      0.001801  CPU:  393.175
  Cycle:     98 Energy:     -7726.765562  Gnorm:      0.001954  CPU:  398.034
  Cycle:     99 Energy:     -7726.765712  Gnorm:      0.002129  CPU:  402.215
  Cycle:    100 Energy:     -7726.765980  Gnorm:      0.003108  CPU:  407.075
  ** Hessian calculated **
  Cycle:    101 Energy:     -7726.766050  Gnorm:      0.002243  CPU:  411.593
  Cycle:    102 Energy:     -7726.766107  Gnorm:      0.002205  CPU:  414.418
  Cycle:    103 Energy:     -7726.766269  Gnorm:      0.002100  CPU:  419.279
  Cycle:    104 Energy:     -7726.766470  Gnorm:      0.001706  CPU:  423.460
  Cycle:    105 Energy:     -7726.766663  Gnorm:      0.002083  CPU:  427.642
  Cycle:    106 Energy:     -7726.766782  Gnorm:      0.001551  CPU:  431.143
  Cycle:    107 Energy:     -7726.766836  Gnorm:      0.001540  CPU:  434.649
  Cycle:    108 Energy:     -7726.766921  Gnorm:      0.001757  CPU:  438.832
  Cycle:    109 Energy:     -7726.767059  Gnorm:      0.002162  CPU:  443.013
  Cycle:    110 Energy:     -7726.767292  Gnorm:      0.002471  CPU:  447.194
  ** Hessian calculated **
  Cycle:    111 Energy:     -7726.767821  Gnorm:      0.002471  CPU:  453.069
  Cycle:    112 Energy:     -7726.768716  Gnorm:      0.002471  CPU:  457.927
  Cycle:    113 Energy:     -7726.770092  Gnorm:      0.002469  CPU:  462.781
  Cycle:    114 Energy:     -7726.772131  Gnorm:      0.002466  CPU:  467.632
  Cycle:    115 Energy:     -7726.775082  Gnorm:      0.002457  CPU:  472.483
  Cycle:    116 Energy:     -7726.778568  Gnorm:      0.002440  CPU:  476.658
  Cycle:    117 Energy:     -7726.784090  Gnorm:      0.002405  CPU:  481.510
  Cycle:    118 Energy:     -7726.791914  Gnorm:      0.002341  CPU:  486.361
  Cycle:    119 Energy:     -7726.800661  Gnorm:      0.002238  CPU:  490.536
  Cycle:    120 Energy:     -7726.813683  Gnorm:      0.002058  CPU:  495.388
  ** Hessian calculated **
  Cycle:    121 Energy:     -7726.827819  Gnorm:      0.001806  CPU:  501.253
  Cycle:    122 Energy:     -7726.842541  Gnorm:      0.001687  CPU:  505.428
  Cycle:    123 Energy:     -7726.852491  Gnorm:      0.001302  CPU:  509.604
  Cycle:    124 Energy:     -7726.854669  Gnorm:      0.000833  CPU:  513.779
  Cycle:    125 Energy:     -7726.855195  Gnorm:      0.000466  CPU:  517.955
  Cycle:    126 Energy:     -7726.855326  Gnorm:      0.000246  CPU:  522.132
  Cycle:    127 Energy:     -7726.855348  Gnorm:      0.000175  CPU:  524.953
  Cycle:    128 Energy:     -7726.855359  Gnorm:      0.000123  CPU:  527.775
  Cycle:    129 Energy:     -7726.855364  Gnorm:      0.000087  CPU:  530.596
  Cycle:    130 Energy:     -7726.855367  Gnorm:      0.000060  CPU:  533.418
  ** Hessian calculated **
  Cycle:    131 Energy:     -7726.855367  Gnorm:      0.000033  CPU:  537.930
  Cycle:    132 Energy:     -7726.855367  Gnorm:      0.000025  CPU:  540.752


  **** Optimisation achieved ****


  Final energy =   -7726.85536682 eV
  Final Gnorm  =       0.00002141

  Components of energy : 

--------------------------------------------------------------------------------
  Interatomic potentials     =        2064.25845371 eV
  Three-body potentials      =           0.45926303 eV
  Monopole - monopole (real) =       -6614.42407394 eV
  Monopole - monopole (recip)=       -3170.69100554 eV
  Monopole - monopole (total)=       -9785.11507948 eV
  Neutralising energy        =          -6.45800408 eV
--------------------------------------------------------------------------------
  Total lattice energy       =       -7726.85536682 eV
--------------------------------------------------------------------------------
  Total lattice energy       =         -745523.4271 kJ/(mole unit cells)
--------------------------------------------------------------------------------

  Final fractional coordinates of atoms :

--------------------------------------------------------------------------------
   No.  Atomic        x           y          z          Radius
        Label       (Frac)      (Frac)     (Frac)       (Angs) 
--------------------------------------------------------------------------------
     1  Ge    c     0.699600    0.375700    0.033890    0.000000
     2  Si    c     0.598134    0.306362    0.363603    0.000000
     3  Si    c     0.651939    0.280252    0.697735    0.000000
     4  Si    c     0.269639    0.605663    0.533254    0.000000
     5  Si    c     0.361176    0.659886    0.863148    0.000000
     6  Si    c     0.305460    0.691400    0.197829    0.000000
     7  Si    c     0.355557    0.676955    0.299294    0.000000
     8  Si    c     0.310658    0.605189    0.963117    0.000000
     9  Si    c     0.270960    0.660435    0.633787    0.000000
    10  Si    c     0.601478    0.282331    0.798352    0.000000
    11  Si    c     0.649508    0.366903    0.465749    0.000000
    12  Si    c     0.674251    0.307623    0.133082    0.000000
    13  Si    c     0.518528    0.400367    0.965312    0.000000
    14  Si    c     0.561684    0.090946    0.301984    0.000000
    15  Si    c     0.860115    0.454490    0.633364    0.000000
    16  Si    c     0.438288    0.576191    0.465138    0.000000
    17  Si    c     0.396492    0.870990    0.799234    0.000000
    18  Si    c     0.095887    0.519531    0.130926    0.000000
    19  Ge    c     0.405781    0.508468    0.366190    0.000000
    20  Si    c     0.101603    0.574999    0.027400    0.000000
    21  Si    c     0.446380    0.872170    0.697653    0.000000
    22  Si    c     0.565755    0.455488    0.862900    0.000000
    23  Si    c     0.860757    0.404503    0.532021    0.000000
    24  Si    c     0.512842    0.098715    0.200808    0.000000
    25  Si    c     0.284075    0.383957    0.847614    0.000000
    26  Si    c     0.584364    0.892212    0.184699    0.000000
    27  Si    c     0.068024    0.683024    0.517948    0.000000
    28  Si    c     0.678958    0.587637    0.343962    0.000000
    29  Si    c     0.373490    0.079202    0.682837    0.000000
    30  Si    c     0.886577    0.289511    0.011470    0.000000
    31  Si    c     0.366948    0.290129    0.478695    0.000000
    32  Si    c     0.880217    0.591493    0.145333    0.000000
    33  Si    c     0.678457    0.081018    0.812902    0.000000
    34  Si    c     0.589176    0.682285    0.978137    0.000000
    35  Si    c     0.070093    0.382479    0.647487    0.000000
    36  Si    c     0.280895    0.881161    0.314015    0.000000
    37  Si    c     0.238637    0.326122    0.948054    0.000000
    38  Si    c     0.637912    0.890342    0.285755    0.000000
    39  Si    c     0.060934    0.732811    0.618511    0.000000
    40  Si    c     0.719458    0.650217    0.447108    0.000000
    41  Si    c     0.319420    0.072397    0.783506    0.000000
    42  Si    c     0.891811    0.239492    0.114616    0.000000
    43  Si    c     0.309068    0.230496    0.376418    0.000000
    44  Ge    c     0.897255    0.657765    0.042137    0.000000
    45  Si    c     0.725650    0.073114    0.712238    0.000000
    46  Si    c     0.643345    0.733478    0.877424    0.000000
    47  Si    c     0.060946    0.324844    0.546709    0.000000
    48  Si    c     0.233261    0.898623    0.213530    0.000000
    49  Si    c     0.959473    0.113218    0.962450    0.000000
    50  Si    c     0.861007    0.832583    0.296883    0.000000
    51  Si    c     0.124758    0.012858    0.631190    0.000000
    52  Si    c     0.002188    0.863115    0.464903    0.000000
    53  Si    c     0.102555    0.135310    0.797452    0.000000
    54  Si    c     0.829730    0.960968    0.131585    0.000000
    55  Si    c     0.100212    0.945457    0.363889    0.000000
    56  Si    c     0.836232    0.875999    0.029873    0.000000
    57  Si    c     0.005304    0.134486    0.696661    0.000000
    58  Si    c     0.860728    0.012700    0.862583    0.000000
    59  Si    c     0.121709    0.106647    0.530050    0.000000
    60  Si    c     0.953836    0.839262    0.196355    0.000000
    61  O2    c     0.906141    0.000384    0.998622    0.000000
    62  O2    c     0.981842    0.909962    0.330108    0.000000
    63  O2    c     0.045432    0.057722    0.662214    0.000000
    64  O2    c     0.042867    0.987676    0.495969    0.000000
    65  O2    c     0.980461    0.055791    0.829371    0.000000
    66  O2    c     0.914477    0.919316    0.162348    0.000000
    67  O3    c     0.317940    0.556662    0.329629    0.000000
    68  O2    c     0.395752    0.745291    0.665947    0.000000
    69  O2    c     0.229430    0.644719    0.996713    0.000000
    70  O2    c     0.641347    0.405642    0.830565    0.000000
    71  O2    c     0.564633    0.227320    0.170333    0.000000
    72  O2    c     0.733413    0.330127    0.499320    0.000000
    73  O3    c     0.562493    0.325133    0.997485    0.000000
    74  O2    c     0.734835    0.404087    0.665335    0.000000
    75  O2    c     0.636860    0.216570    0.334894    0.000000
    76  O2    c     0.395713    0.646958    0.502389    0.000000
    77  O2    c     0.220226    0.569795    0.164088    0.000000
    78  O2    c     0.321152    0.745636    0.831141    0.000000
    79  O2    c     0.114293    0.197921    0.967963    0.000000
    80  O2    c     0.764375    0.887891    0.305468    0.000000
    81  O2    c     0.060696    0.859197    0.637756    0.000000
    82  O2    c     0.847038    0.773446    0.468220    0.000000
    83  O2    c     0.193637    0.072254    0.803700    0.000000
    84  O2    c     0.892232    0.115284    0.136044    0.000000
    85  O2    c     0.192064    0.096954    0.357895    0.000000
    86  O3    c     0.918718    0.806705    0.025533    0.000000
    87  O2    c     0.850600    0.071495    0.691884    0.000000
    88  O2    c     0.769671    0.859052    0.857225    0.000000
    89  O2    c     0.057484    0.197240    0.526564    0.000000
    90  O2    c     0.108496    0.902050    0.192684    0.000000
    91  O2    c     0.911225    0.855333    0.245953    0.000000
    92  O2    c     0.112685    0.049914    0.579788    0.000000
    93  O2    c     0.917018    0.051350    0.913002    0.000000
    94  O2    c     0.049365    0.119409    0.746457    0.000000
    95  O2    c     0.834550    0.922435    0.080538    0.000000
    96  O2    c     0.045740    0.909645    0.414246    0.000000
    97  O2    c     0.898729    0.203670    0.971951    0.000000
    98  O2    c     0.789506    0.680506    0.308116    0.000000
    99  O2    c     0.276349    0.081436    0.644048    0.000000
   100  O2    c     0.070475    0.782079    0.479879    0.000000
   101  O2    c     0.184808    0.286703    0.809037    0.000000
   102  O2    c     0.680517    0.891414    0.146422    0.000000
   103  O2    c     0.181040    0.874541    0.352648    0.000000
   104  O2    c     0.686402    0.778619    0.016864    0.000000
   105  O2    c     0.073129    0.286174    0.685596    0.000000
   106  O2    c     0.777686    0.082144    0.851301    0.000000
   107  O2    c     0.272689    0.193051    0.517310    0.000000
   108  O2    c     0.885638    0.687480    0.185439    0.000000
   109  O2    c     0.305691    0.631148    0.246956    0.000000
   110  O2    c     0.326562    0.662074    0.583525    0.000000
   111  O2    c     0.303205    0.660191    0.913027    0.000000
   112  O2    c     0.655106    0.338210    0.747853    0.000000
   113  O3    c     0.610804    0.303501    0.085030    0.000000
   114  O2    c     0.647857    0.312016    0.415584    0.000000
   115  O2    c     0.360636    0.315140    0.965343    0.000000
   116  O2    c     0.650701    0.023665    0.304659    0.000000
   117  O2    c     0.928063    0.610352    0.636110    0.000000
   118  O2    c     0.597315    0.659981    0.465103    0.000000
   119  O2    c     0.309358    0.940264    0.801791    0.000000
   120  O2    c     0.022326    0.363994    0.133290    0.000000
   121  O3    c     0.290001    0.341719    0.356296    0.000000
   122  O3    c     0.041475    0.667378    0.025822    0.000000
   123  O2    c     0.602701    0.940852    0.693802    0.000000
   124  O2    c     0.651787    0.611243    0.858575    0.000000
   125  O2    c     0.928609    0.316636    0.527723    0.000000
   126  O2    c     0.356331    0.030409    0.195527    0.000000
   127  O3    c     0.751623    0.280669    0.004157    0.000000
   128  O2    c     0.674776    0.449607    0.342303    0.000000
   129  O2    c     0.507925    0.212198    0.674981    0.000000
   130  O2    c     0.200156    0.679420    0.510176    0.000000
   131  O2    c     0.285925    0.518535    0.839183    0.000000
   132  O2    c     0.447925    0.761899    0.175094    0.000000
   133  O2    c     0.279806    0.747561    0.319458    0.000000
   134  O2    c     0.455272    0.683684    0.984888    0.000000
   135  O2    c     0.203770    0.516641    0.655106    0.000000
   136  O2    c     0.678067    0.214346    0.820208    0.000000
   137  O2    c     0.504212    0.295340    0.485322    0.000000
   138  O2    c     0.750047    0.455075    0.153031    0.000000
   139  O1    c     0.763251    0.539491    0.017389    0.000000
   140  O2    c     0.443344    0.240918    0.359496    0.000000
   141  O2    c     0.727322    0.199643    0.692483    0.000000
   142  O2    c     0.188612    0.449638    0.527841    0.000000
   143  O2    c     0.517900    0.737040    0.858192    0.000000
   144  O2    c     0.228816    0.771241    0.193580    0.000000
   145  O2    c     0.512382    0.766827    0.305169    0.000000
   146  O2    c     0.235963    0.449628    0.968599    0.000000
   147  O2    c     0.186429    0.731717    0.638681    0.000000
   148  O2    c     0.445439    0.198496    0.802969    0.000000
   149  O2    c     0.712119    0.520733    0.466171    0.000000
   150  O2    c     0.767192    0.243814    0.131910    0.000000
   151  O2    c     0.213376    0.310243    0.893757    0.000000
   152  O2    c     0.655690    0.890296    0.231426    0.000000
   153  O2    c     0.064418    0.752772    0.564230    0.000000
   154  O2    c     0.735470    0.660596    0.392900    0.000000
   155  O2    c     0.299900    0.074556    0.729129    0.000000
   156  O2    c     0.895482    0.228819    0.060257    0.000000
   157  O2    c     0.298133    0.221784    0.431559    0.000000
   158  O3    c     0.882073    0.667233    0.100835    0.000000
   159  O2    c     0.747210    0.075850    0.766506    0.000000
   160  O2    c     0.663727    0.751288    0.931741    0.000000
   161  O2    c     0.063394    0.307691    0.600972    0.000000
   162  O2    c     0.212978    0.894021    0.267770    0.000000
   163  O2    c     0.569953    0.542403    0.987315    0.000000
   164  O2    c     0.420598    0.006020    0.324788    0.000000
   165  O2    c     0.945770    0.398182    0.656271    0.000000
   166  O2    c     0.385817    0.431022    0.485187    0.000000
   167  O2    c     0.538993    0.956787    0.821842    0.000000
   168  O2    c     0.004595    0.572386    0.149163    0.000000
   169  O3    c     0.546849    0.578312    0.330495    0.000000
   170  O2    c     0.005428    0.435517    0.005624    0.000000
   171  O2    c     0.386390    0.953578    0.673828    0.000000
   172  O2    c     0.423250    0.396349    0.839570    0.000000
   173  O2    c     0.940020    0.545266    0.508586    0.000000
   174  O2    c     0.575338    0.020825    0.176895    0.000000
   175  O2    c     0.563499    0.150004    0.252089    0.000000
   176  O2    c     0.805904    0.401399    0.582386    0.000000
   177  O2    c     0.570213    0.406407    0.913639    0.000000
   178  O2    c     0.395350    0.819004    0.748284    0.000000
   179  O2    c     0.142516    0.565719    0.079648    0.000000
   180  O3    c     0.382524    0.580412    0.416602    0.000000
   181  F     c     0.434944    0.894530    0.248067    0.000000
   182  F     c     0.065644    0.530706    0.581377    0.000000
   183  F     c     0.432574    0.536151    0.911562    0.000000
   184  F     c     0.526160    0.079527    0.746726    0.000000
   185  F     c     0.851964    0.441277    0.070816    0.000000
   186  F     c     0.498000    0.456470    0.403972    0.000000
   187  O2    s     0.904314    0.999299    0.997981    0.000000
   188  O2    s     0.981530    0.905121    0.330173    0.000000
   189  O2    s     0.049892    0.061196    0.662548    0.000000
   190  O2    s     0.047068    0.987130    0.496319    0.000000
   191  O2    s     0.980770    0.059909    0.829503    0.000000
   192  O2    s     0.909436    0.915137    0.162689    0.000000
   193  O3    s     0.328139    0.566706    0.328772    0.000000
   194  O2    s     0.387833    0.749366    0.665807    0.000000
   195  O2    s     0.224153    0.633231    0.996521    0.000000
   196  O2    s     0.629529    0.397824    0.830467    0.000000
   197  O2    s     0.570722    0.222346    0.169589    0.000000
   198  O2    s     0.737251    0.341585    0.499004    0.000000
   199  O3    s     0.567033    0.336834    0.996467    0.000000
   200  O2    s     0.739494    0.396753    0.665299    0.000000
   201  O2    s     0.625269    0.213479    0.334646    0.000000
   202  O2    s     0.387020    0.635463    0.501796    0.000000
   203  O2    s     0.215486    0.576607    0.163933    0.000000
   204  O2    s     0.333086    0.750101    0.831042    0.000000
   205  O2    s     0.110277    0.201831    0.965367    0.000000
   206  O2    s     0.761591    0.882281    0.302560    0.000000
   207  O2    s     0.067446    0.862305    0.635104    0.000000
   208  O2    s     0.850210    0.770138    0.465696    0.000000
   209  O2    s     0.197022    0.078973    0.800961    0.000000
   210  O2    s     0.885689    0.112192    0.133364    0.000000
   211  O2    s     0.194666    0.094615    0.360600    0.000000
   212  O3    s     0.908515    0.802545    0.027236    0.000000
   213  O2    s     0.854235    0.078390    0.694466    0.000000
   214  O2    s     0.766443    0.862558    0.859834    0.000000
   215  O2    s     0.064626    0.200701    0.528965    0.000000
   216  O2    s     0.104877    0.894997    0.195201    0.000000
   217  O2    s     0.910322    0.850951    0.246163    0.000000
   218  O2    s     0.115021    0.052219    0.579861    0.000000
   219  O2    s     0.915452    0.053951    0.912875    0.000000
   220  O2    s     0.050281    0.122904    0.746480    0.000000
   221  O2    s     0.834200    0.921766    0.080845    0.000000
   222  O2    s     0.046880    0.908350    0.414376    0.000000
   223  O2    s     0.904100    0.202923    0.975085    0.000000
   224  O2    s     0.785905    0.687015    0.310541    0.000000
   225  O2    s     0.269935    0.073858    0.646593    0.000000
   226  O2    s     0.062837    0.780582    0.482214    0.000000
   227  O2    s     0.186027    0.280358    0.811679    0.000000
   228  O2    s     0.686650    0.898967    0.148777    0.000000
   229  O2    s     0.182368    0.882773    0.349999    0.000000
   230  O2    s     0.692101    0.778866    0.014223    0.000000
   231  O2    s     0.065639    0.280090    0.682820    0.000000
   232  O2    s     0.776296    0.074666    0.848552    0.000000
   233  O2    s     0.266540    0.193995    0.514660    0.000000
   234  O2    s     0.892307    0.693927    0.182617    0.000000
   235  O2    s     0.310576    0.642071    0.246859    0.000000
   236  O2    s     0.314857    0.656024    0.583488    0.000000
   237  O2    s     0.309813    0.654557    0.913039    0.000000
   238  O2    s     0.649306    0.326522    0.747832    0.000000
   239  O3    s     0.623217    0.308733    0.086640    0.000000
   240  O2    s     0.642943    0.317222    0.415534    0.000000
   241  O2    s     0.362847    0.324857    0.963401    0.000000
   242  O2    s     0.640263    0.017072    0.302459    0.000000
   243  O2    s     0.934989    0.607205    0.633978    0.000000
   244  O2    s     0.594912    0.650876    0.463188    0.000000
   245  O2    s     0.319357    0.947026    0.799597    0.000000
   246  O2    s     0.016386    0.367183    0.131101    0.000000
   247  O3    s     0.299772    0.340891    0.359147    0.000000
   248  O3    s     0.036321    0.657316    0.027252    0.000000
   249  O2    s     0.599433    0.947608    0.696133    0.000000
   250  O2    s     0.642122    0.608122    0.860988    0.000000
   251  O2    s     0.935304    0.326559    0.530137    0.000000
   252  O2    s     0.359517    0.023626    0.197956    0.000000
   253  O3    s     0.762629    0.288158    0.007056    0.000000
   254  O2    s     0.667197    0.448457    0.344721    0.000000
   255  O2    s     0.508578    0.205193    0.678173    0.000000
   256  O2    s     0.193277    0.672220    0.513390    0.000000
   257  O2    s     0.293387    0.518852    0.842525    0.000000
   258  O2    s     0.447553    0.768306    0.178459    0.000000
   259  O2    s     0.287456    0.755257    0.316812    0.000000
   260  O2    s     0.454247    0.675413    0.981885    0.000000
   261  O2    s     0.196582    0.517321    0.652064    0.000000
   262  O2    s     0.670235    0.207260    0.817155    0.000000
   263  O2    s     0.505110    0.302328    0.482555    0.000000
   264  O2    s     0.756437    0.455151    0.150241    0.000000
   265  O1    s     0.770680    0.539088    0.020470    0.000000
   266  O2    s     0.446434    0.247104    0.361653    0.000000
   267  O2    s     0.719235    0.194313    0.695118    0.000000
   268  O2    s     0.183097    0.452179    0.530387    0.000000
   269  O2    s     0.515268    0.728630    0.860743    0.000000
   270  O2    s     0.237272    0.776621    0.196120    0.000000
   271  O2    s     0.510687    0.771794    0.302459    0.000000
   272  O2    s     0.243981    0.452605    0.965891    0.000000
   273  O2    s     0.181470    0.724305    0.636008    0.000000
   274  O2    s     0.448083    0.193450    0.800387    0.000000
   275  O2    s     0.706057    0.518006    0.464083    0.000000
   276  O2    s     0.771694    0.249865    0.130100    0.000000
   277  O2    s     0.223405    0.319655    0.894586    0.000000
   278  O2    s     0.646260    0.890506    0.232198    0.000000
   279  O2    s     0.064427    0.743252    0.565107    0.000000
   280  O2    s     0.728210    0.652400    0.394022    0.000000
   281  O2    s     0.309693    0.074816    0.729959    0.000000
   282  O2    s     0.894236    0.235977    0.061235    0.000000
   283  O2    s     0.306662    0.230067    0.431104    0.000000
   284  O3    s     0.882945    0.658597    0.101004    0.000000
   285  O2    s     0.737763    0.076096    0.765568    0.000000
   286  O2    s     0.653869    0.742269    0.930789    0.000000
   287  O2    s     0.063817    0.317297    0.600011    0.000000
   288  O2    s     0.222132    0.893209    0.266824    0.000000
   289  O2    s     0.566634    0.543677    0.984053    0.000000
   290  O2    s     0.420588    0.001610    0.321290    0.000000
   291  O2    s     0.950428    0.402572    0.652908    0.000000
   292  O2    s     0.389043    0.429756    0.482467    0.000000
   293  O2    s     0.539154    0.961438    0.818488    0.000000
   294  O2    s     0.001127    0.568579    0.146772    0.000000
   295  O3    s     0.552004    0.574547    0.334285    0.000000
   296  O2    s     0.003185    0.435298    0.008567    0.000000
   297  O2    s     0.391378    0.958775    0.677253    0.000000
   298  O2    s     0.423045    0.401305    0.842850    0.000000
   299  O2    s     0.945472    0.545251    0.512010    0.000000
   300  O2    s     0.569719    0.015032    0.180198    0.000000
   301  O2    s     0.558010    0.138501    0.251952    0.000000
   302  O2    s     0.817240    0.407179    0.582335    0.000000
   303  O2    s     0.564631    0.411084    0.913343    0.000000
   304  O2    s     0.400838    0.830002    0.748248    0.000000
   305  O2    s     0.133421    0.561724    0.079804    0.000000
   306  O3    s     0.389933    0.575331    0.418473    0.000000
   307  F     s     0.435068    0.895045    0.247882    0.000000
   308  F     s     0.065691    0.530693    0.581211    0.000000
   309  F     s     0.431829    0.536774    0.911389    0.000000
   310  F     s     0.526377    0.079873    0.746576    0.000000
   311  F     s     0.842697    0.438776    0.068418    0.000000
   312  F     s     0.491627    0.460289    0.401330    0.000000
--------------------------------------------------------------------------------

  Final Cartesian lattice vectors (Angstroms) :

       11.938899   -0.016131   -0.071950
       -5.983525   10.410045    0.026040
       -0.191764   -0.029614   29.474663


  Final cell parameters and derivatives :

--------------------------------------------------------------------------------
       a           11.939127 Angstrom     dE/de1(xx)     0.000723 eV/strain
       b           12.007177 Angstrom     dE/de2(yy)     0.000855 eV/strain
       c           29.475302 Angstrom     dE/de3(zz)     0.000703 eV/strain
       alpha       89.739897 Degrees      dE/de4(yz)    -0.000455 eV/strain
       beta        90.717974 Degrees      dE/de5(xz)    -0.000504 eV/strain
       gamma      119.967192 Degrees      dE/de6(xy)     0.000003 eV/strain
--------------------------------------------------------------------------------

  Primitive cell volume =          3660.251185 Angs**3

  Density of cell =      1.747993 g/cm**3

  Non-primitive cell volume =          3660.251185 Angs**3


  Final internal derivatives :

--------------------------------------------------------------------------------
   No.  Atomic          a             b             c           Radius
        Label          (eV)          (eV)          (eV)        (eV/Angs)
--------------------------------------------------------------------------------
      1 Ge    c       0.000000      0.000000      0.000000      0.000000
      2 Si    c       0.000246      0.000235     -0.000183      0.000000
      3 Si    c       0.000603      0.000126     -0.000174      0.000000
      4 Si    c      -0.000040      0.000262     -0.000337      0.000000
      5 Si    c       0.000175      0.000095      0.000528      0.000000
      6 Si    c       0.000196     -0.000040      0.000145      0.000000
      7 Si    c       0.000015      0.000171     -0.000059      0.000000
      8 Si    c      -0.000289     -0.000336      0.000317      0.000000
      9 Si    c      -0.000291      0.000089     -0.000395      0.000000
     10 Si    c      -0.000097     -0.000519     -0.000521      0.000000
     11 Si    c      -0.000032     -0.000031      0.000090      0.000000
     12 Si    c       0.000679     -0.000150      0.006154      0.000000
     13 Si    c      -0.000698     -0.000336     -0.001522      0.000000
     14 Si    c      -0.000389     -0.000528     -0.000293      0.000000
     15 Si    c       0.000091     -0.000019      0.000078      0.000000
     16 Si    c       0.000435      0.000221      0.000497      0.000000
     17 Si    c      -0.000673     -0.000320     -0.000114      0.000000
     18 Si    c      -0.000498     -0.000253      0.000465      0.000000
     19 Ge    c       0.000459     -0.000077      0.000942      0.000000
     20 Si    c       0.000234     -0.000218      0.001118      0.000000
     21 Si    c      -0.000049      0.000279      0.000392      0.000000
     22 Si    c       0.000507      0.000512     -0.000180      0.000000
     23 Si    c       0.000402      0.000072      0.000504      0.000000
     24 Si    c      -0.000186     -0.000446      0.000528      0.000000
     25 Si    c       0.000695      0.000417      0.000484      0.000000
     26 Si    c       0.000098     -0.000195     -0.000392      0.000000
     27 Si    c       0.000053      0.000056     -0.000300      0.000000
     28 Si    c       0.000262      0.000151     -0.000537      0.000000
     29 Si    c       0.000792     -0.000004      0.000339      0.000000
     30 Si    c       0.001010      0.000960      0.001418      0.000000
     31 Si    c      -0.000000     -0.000139      0.000108      0.000000
     32 Si    c       0.000118     -0.000501     -0.000102      0.000000
     33 Si    c      -0.000911     -0.000066     -0.000624      0.000000
     34 Si    c      -0.000059     -0.000553     -0.000819      0.000000
     35 Si    c      -0.000124      0.000398     -0.000252      0.000000
     36 Si    c      -0.000524     -0.000140      0.000078      0.000000
     37 Si    c      -0.000229     -0.000738     -0.000191      0.000000
     38 Si    c      -0.000264     -0.000193     -0.000159      0.000000
     39 Si    c       0.000094     -0.000024     -0.000252      0.000000
     40 Si    c       0.000209     -0.000148     -0.000587      0.000000
     41 Si    c      -0.000009     -0.000354     -0.000682      0.000000
     42 Si    c      -0.000044      0.000045      0.000668      0.000000
     43 Si    c       0.000412      0.000220      0.000110      0.000000
     44 Ge    c       0.000433      0.000400     -0.002542      0.000000
     45 Si    c       0.000041      0.000297      0.000535      0.000000
     46 Si    c       0.000867      0.000676      0.000142      0.000000
     47 Si    c       0.000001      0.000196      0.000184      0.000000
     48 Si    c       0.000218     -0.000040     -0.000567      0.000000
     49 Si    c       0.000042      0.000274     -0.000566      0.000000
     50 Si    c      -0.000080     -0.000081     -0.000695      0.000000
     51 Si    c       0.000357      0.000052     -0.000163      0.000000
     52 Si    c      -0.000061     -0.000139     -0.000073      0.000000
     53 Si    c       0.000064      0.000201      0.000907      0.000000
     54 Si    c       0.000040     -0.000208      0.000615      0.000000
     55 Si    c       0.000103      0.000139      0.000798      0.000000
     56 Si    c       0.000361     -0.000041      0.000498      0.000000
     57 Si    c       0.000245      0.000353     -0.000784      0.000000
     58 Si    c       0.000224      0.000185     -0.000952      0.000000
     59 Si    c       0.000238     -0.000036     -0.000152      0.000000
     60 Si    c       0.000290     -0.000029     -0.000617      0.000000
     61 O2    c       0.000660     -0.001529      0.000763      0.000000
     62 O2    c      -0.000250      0.000495     -0.000112      0.000000
     63 O2    c       0.000441     -0.000142      0.000218      0.000000
     64 O2    c       0.000226     -0.000408     -0.000001      0.000000
     65 O2    c      -0.000211      0.000137      0.001091      0.000000
     66 O2    c       0.000176     -0.000067     -0.000261      0.000000
     67 O3    c      -0.000174     -0.000366     -0.000114      0.000000
     68 O2    c      -0.000050      0.000195     -0.000165      0.000000
     69 O2    c       0.000430      0.000650      0.000333      0.000000
     70 O2    c      -0.000163     -0.000032      0.000169      0.000000
     71 O2    c       0.000057     -0.000600      0.001109      0.000000
     72 O2    c       0.000193     -0.000019     -0.000149      0.000000
     73 O3    c       0.000156     -0.001885      0.001798      0.000000
     74 O2    c       0.000305     -0.000135     -0.000432      0.000000
     75 O2    c      -0.000029      0.000028     -0.000217      0.000000
     76 O2    c       0.000013      0.000105     -0.000117      0.000000
     77 O2    c       0.000042      0.000003      0.000083      0.000000
     78 O2    c       0.000133      0.000100      0.000210      0.000000
     79 O2    c       0.000778     -0.000279     -0.000260      0.000000
     80 O2    c      -0.000134      0.000401      0.000428      0.000000
     81 O2    c       0.000184     -0.000003     -0.000006      0.000000
     82 O2    c       0.000101      0.000260      0.000744      0.000000
     83 O2    c       0.000044     -0.000078      0.000182      0.000000
     84 O2    c       0.000046      0.000295     -0.000185      0.000000
     85 O2    c       0.000219      0.000307      0.000230      0.000000
     86 O3    c       0.001628     -0.000788     -0.000722      0.000000
     87 O2    c      -0.000120      0.000023      0.000185      0.000000
     88 O2    c       0.000605     -0.000598     -0.000215      0.000000
     89 O2    c       0.000045     -0.000071      0.000133      0.000000
     90 O2    c       0.000376      0.000054      0.000319      0.000000
     91 O2    c       0.000319      0.000357      0.000599      0.000000
     92 O2    c       0.000082      0.000228     -0.000198      0.000000
     93 O2    c       0.000284     -0.000249     -0.001827      0.000000
     94 O2    c       0.000137      0.000121     -0.000021      0.000000
     95 O2    c       0.000239      0.000088      0.002070      0.000000
     96 O2    c       0.000249     -0.000004      0.000232      0.000000
     97 O2    c      -0.000941      0.001238     -0.000013      0.000000
     98 O2    c       0.000147     -0.000330      0.001195      0.000000
     99 O2    c       0.000145     -0.000000      0.000640      0.000000
    100 O2    c       0.000195      0.000324      0.000159      0.000000
    101 O2    c       0.000157      0.000271      0.000026      0.000000
    102 O2    c       0.000084     -0.000155      0.000618      0.000000
    103 O2    c      -0.000111     -0.000445      0.000493      0.000000
    104 O2    c      -0.000463     -0.000409      0.000323      0.000000
    105 O2    c      -0.000168      0.000337     -0.000336      0.000000
    106 O2    c      -0.000012      0.000381     -0.000393      0.000000
    107 O2    c       0.000151     -0.000088      0.000429      0.000000
    108 O2    c       0.000094     -0.000223     -0.000167      0.000000
    109 O2    c       0.000029     -0.000108     -0.000282      0.000000
    110 O2    c      -0.000007      0.000080      0.000696      0.000000
    111 O2    c       0.000497     -0.000013     -0.000187      0.000000
    112 O2    c       0.000223     -0.000609     -0.000677      0.000000
    113 O3    c      -0.001625     -0.000398      0.002063      0.000000
    114 O2    c      -0.000134      0.000149      0.000513      0.000000
    115 O2    c       0.000065     -0.000054      0.000186      0.000000
    116 O2    c      -0.000059     -0.000256     -0.000460      0.000000
    117 O2    c       0.000257     -0.000248     -0.000225      0.000000
    118 O2    c       0.000508     -0.000316     -0.000950      0.000000
    119 O2    c       0.000313      0.000270     -0.000369      0.000000
    120 O2    c       0.000258      0.000288      0.000243      0.000000
    121 O3    c       0.000113     -0.000215      0.000597      0.000000
    122 O3    c       0.001486      0.001201     -0.000509      0.000000
    123 O2    c      -0.000449      0.000235      0.000054      0.000000
    124 O2    c      -0.000356      0.000621      0.000754      0.000000
    125 O2    c       0.000150      0.000116     -0.000327      0.000000
    126 O2    c      -0.000017      0.000097      0.000378      0.000000
    127 O3    c       0.001675     -0.001310     -0.001713      0.000000
    128 O2    c       0.000089      0.000251      0.000287      0.000000
    129 O2    c      -0.000296     -0.000201      0.000700      0.000000
    130 O2    c      -0.000247      0.000163      0.000086      0.000000
    131 O2    c       0.000061      0.000102      0.000697      0.000000
    132 O2    c       0.000086     -0.000117      0.000607      0.000000
    133 O2    c      -0.000144      0.000362     -0.000462      0.000000
    134 O2    c       0.000191      0.000117      0.000086      0.000000
    135 O2    c      -0.000172      0.000141     -0.000880      0.000000
    136 O2    c      -0.000153     -0.000180     -0.001250      0.000000
    137 O2    c       0.000099      0.000138     -0.001097      0.000000
    138 O2    c       0.000402      0.000241      0.000158      0.000000
    139 O1    c      -0.001701      0.000320     -0.001325      0.000000
    140 O2    c       0.000105     -0.000059      0.000639      0.000000
    141 O2    c      -0.000102     -0.000130      0.000690      0.000000
    142 O2    c      -0.000345      0.000322      0.000730      0.000000
    143 O2    c      -0.000093     -0.000137     -0.000049      0.000000
    144 O2    c       0.000115     -0.000321      0.000405      0.000000
    145 O2    c       0.000042      0.000218     -0.000839      0.000000
    146 O2    c       0.000363     -0.000189     -0.000189      0.000000
    147 O2    c       0.000142      0.000150     -0.000108      0.000000
    148 O2    c       0.000838     -0.000441     -0.000266      0.000000
    149 O2    c      -0.000130     -0.000222     -0.000376      0.000000
    150 O2    c       0.000043      0.000062      0.000145      0.000000
    151 O2    c       0.000042      0.000031     -0.000597      0.000000
    152 O2    c      -0.000149      0.000043      0.000468      0.000000
    153 O2    c       0.000201      0.000160     -0.000590      0.000000
    154 O2    c      -0.000044      0.000146     -0.000266      0.000000
    155 O2    c       0.000551     -0.000312     -0.001438      0.000000
    156 O2    c       0.000463     -0.000273      0.000403      0.000000
    157 O2    c       0.000224     -0.000020     -0.000652      0.000000
    158 O3    c       0.000261      0.001343      0.008944      0.000000
    159 O2    c      -0.000439      0.000378      0.000880      0.000000
    160 O2    c       0.000436     -0.000636      0.001093      0.000000
    161 O2    c      -0.000111      0.000188      0.000336      0.000000
    162 O2    c       0.000189     -0.000076     -0.001441      0.000000
    163 O2    c       0.000210      0.000132     -0.000746      0.000000
    164 O2    c       0.000501     -0.000134     -0.001185      0.000000
    165 O2    c      -0.000099      0.000043     -0.000199      0.000000
    166 O2    c       0.000271      0.000121     -0.001249      0.000000
    167 O2    c       0.000132      0.000342     -0.000872      0.000000
    168 O2    c       0.000546      0.000258      0.000356      0.000000
    169 O3    c       0.000809      0.000344      0.000032      0.000000
    170 O2    c       0.000604     -0.000056     -0.000912      0.000000
    171 O2    c       0.000135     -0.000164      0.000926      0.000000
    172 O2    c       0.000184     -0.000176      0.000119      0.000000
    173 O2    c       0.000248     -0.000368      0.000362      0.000000
    174 O2    c       0.000227      0.000215      0.000072      0.000000
    175 O2    c      -0.000019      0.000191      0.000035      0.000000
    176 O2    c      -0.000163      0.000006     -0.000404      0.000000
    177 O2    c      -0.000015     -0.000104     -0.001228      0.000000
    178 O2    c      -0.000050      0.000346      0.000064      0.000000
    179 O2    c       0.000565      0.000214      0.002214      0.000000
    180 O3    c       0.000578     -0.000244      0.000831      0.000000
    181 F     c      -0.000002     -0.000129      0.000648      0.000000
    182 F     c       0.000228     -0.000109     -0.000413      0.000000
    183 F     c       0.000167     -0.000004      0.000407      0.000000
    184 F     c      -0.000058      0.000075      0.000369      0.000000
    185 F     c      -0.000626      0.000250     -0.001704      0.000000
    186 F     c      -0.000017      0.000103      0.001718      0.000000
    187 O2    s       0.000242     -0.000201      0.000396      0.000000
    188 O2    s      -0.000311      0.000615     -0.000071      0.000000
    189 O2    s       0.000466      0.000047     -0.000096      0.000000
    190 O2    s       0.000275     -0.000412     -0.000290      0.000000
    191 O2    s      -0.000671      0.000306      0.001279      0.000000
    192 O2    s       0.000066      0.000106     -0.000061      0.000000
    193 O3    s       0.000031     -0.000116      0.000095      0.000000
    194 O2    s       0.000121     -0.000132     -0.000033      0.000000
    195 O2    s       0.000526      0.000076      0.000518      0.000000
    196 O2    s      -0.000057      0.000429      0.000040      0.000000
    197 O2    s       0.000591     -0.000268      0.001682      0.000000
    198 O2    s       0.000099      0.000081     -0.000035      0.000000
    199 O3    s       0.001595      0.000591      0.000961      0.000000
    200 O2    s       0.000225      0.000028     -0.000506      0.000000
    201 O2    s       0.000033      0.000159      0.000052      0.000000
    202 O2    s       0.000284      0.000162      0.000066      0.000000
    203 O2    s       0.000183      0.000074      0.000566      0.000000
    204 O2    s       0.000369      0.000041     -0.000200      0.000000
    205 O2    s       0.000908      0.000608     -0.000897      0.000000
    206 O2    s      -0.000161      0.000197      0.000289      0.000000
    207 O2    s       0.000055     -0.000123     -0.000302      0.000000
    208 O2    s       0.000235      0.000450      0.000959      0.000000
    209 O2    s      -0.000006     -0.000027      0.000011      0.000000
    210 O2    s      -0.000074      0.000465     -0.000522      0.000000
    211 O2    s       0.000258      0.000292      0.000712      0.000000
    212 O3    s       0.000850     -0.000946     -0.000361      0.000000
    213 O2    s      -0.000100     -0.000043      0.000341      0.000000
    214 O2    s      -0.000057     -0.000664     -0.000162      0.000000
    215 O2    s       0.000216     -0.000052      0.000193      0.000000
    216 O2    s       0.000456      0.000106      0.000578      0.000000
    217 O2    s       0.000421      0.000416      0.000307      0.000000
    218 O2    s       0.000091      0.000470     -0.000244      0.000000
    219 O2    s      -0.000061      0.000324     -0.001011      0.000000
    220 O2    s       0.000156      0.000377     -0.000091      0.000000
    221 O2    s      -0.000361      0.000755      0.001641      0.000000
    222 O2    s       0.000246      0.000048      0.000136      0.000000
    223 O2    s      -0.000453      0.001197      0.000782      0.000000
    224 O2    s      -0.000005     -0.000387      0.001228      0.000000
    225 O2    s      -0.000034      0.000127      0.000476      0.000000
    226 O2    s       0.000056      0.000103      0.000190      0.000000
    227 O2    s      -0.000022      0.000165     -0.000186      0.000000
    228 O2    s      -0.000117     -0.000097      0.000444      0.000000
    229 O2    s      -0.000029     -0.000482      0.000620      0.000000
    230 O2    s      -0.000438     -0.000031      0.000662      0.000000
    231 O2    s      -0.000012      0.000206     -0.000633      0.000000
    232 O2    s       0.000173     -0.000028     -0.000234      0.000000
    233 O2    s      -0.000011     -0.000065      0.000751      0.000000
    234 O2    s       0.000275     -0.000209      0.000543      0.000000
    235 O2    s       0.000039      0.000033     -0.000152      0.000000
    236 O2    s       0.000299     -0.000085      0.000435      0.000000
    237 O2    s       0.001099     -0.000599     -0.000296      0.000000
    238 O2    s       0.000242     -0.000420     -0.001351      0.000000
    239 O3    s       0.001580      0.001174     -0.000251      0.000000
    240 O2    s      -0.000151      0.000396      0.000378      0.000000
    241 O2    s      -0.000237      0.000318     -0.000173      0.000000
    242 O2    s      -0.000202     -0.000298     -0.001000      0.000000
    243 O2    s      -0.000139     -0.000222     -0.000354      0.000000
    244 O2    s       0.000463     -0.000464     -0.001213      0.000000
    245 O2    s      -0.000059      0.000034     -0.000527      0.000000
    246 O2    s       0.000584      0.000159      0.000575      0.000000
    247 O3    s       0.000445     -0.000232      0.001241      0.000000
    248 O3    s       0.000387      0.000539     -0.000769      0.000000
    249 O2    s      -0.000335     -0.000199      0.000331      0.000000
    250 O2    s      -0.000471      0.000559      0.001064      0.000000
    251 O2    s       0.000187      0.000015     -0.000481      0.000000
    252 O2    s       0.000292      0.000008      0.000644      0.000000
    253 O3    s       0.000576      0.000215     -0.000001      0.000000
    254 O2    s       0.000116      0.000265      0.000339      0.000000
    255 O2    s      -0.000724     -0.000282      0.000502      0.000000
    256 O2    s      -0.000115      0.000247     -0.000364      0.000000
    257 O2    s       0.000456      0.000129      0.001486      0.000000
    258 O2    s       0.000245      0.000037      0.000744      0.000000
    259 O2    s      -0.000249      0.000301     -0.000656      0.000000
    260 O2    s       0.000464     -0.000297     -0.000281      0.000000
    261 O2    s      -0.000092     -0.000195     -0.001190      0.000000
    262 O2    s      -0.000177     -0.000181     -0.001640      0.000000
    263 O2    s      -0.000021      0.000264     -0.001227      0.000000
    264 O2    s       0.000425      0.000078      0.000647      0.000000
    265 O1    s      -0.000617      0.001200     -0.001923      0.000000
    266 O2    s      -0.000049      0.000209      0.000909      0.000000
    267 O2    s       0.000129     -0.000013      0.000716      0.000000
    268 O2    s      -0.000031      0.000151      0.000864      0.000000
    269 O2    s       0.000036     -0.000068      0.000467      0.000000
    270 O2    s       0.000379     -0.000184      0.000663      0.000000
    271 O2    s      -0.000120      0.000579     -0.001340      0.000000
    272 O2    s       0.000615     -0.000093     -0.000416      0.000000
    273 O2    s      -0.000017      0.000162     -0.000222      0.000000
    274 O2    s       0.000948     -0.000037     -0.000781      0.000000
    275 O2    s      -0.000078     -0.000053     -0.000519      0.000000
    276 O2    s      -0.000232      0.000030      0.001182      0.000000
    277 O2    s       0.000084      0.000283     -0.000031      0.000000
    278 O2    s      -0.000395      0.000122      0.000093      0.000000
    279 O2    s       0.000050      0.000350     -0.000578      0.000000
    280 O2    s       0.000022      0.000218     -0.000015      0.000000
    281 O2    s       0.000490     -0.000152     -0.000773      0.000000
    282 O2    s       0.001143     -0.000533      0.000616      0.000000
    283 O2    s       0.000253      0.000152     -0.000231      0.000000
    284 O3    s       0.000680      0.001136      0.004041      0.000000
    285 O2    s      -0.000331      0.000106      0.000519      0.000000
    286 O2    s       0.000122     -0.000299      0.000578      0.000000
    287 O2    s       0.000127      0.000051      0.000322      0.000000
    288 O2    s       0.000386     -0.000266     -0.000736      0.000000
    289 O2    s       0.000091     -0.000102     -0.001123      0.000000
    290 O2    s       0.000989     -0.000042     -0.001998      0.000000
    291 O2    s      -0.000072      0.000101     -0.000111      0.000000
    292 O2    s       0.000360      0.000100     -0.001293      0.000000
    293 O2    s       0.000882      0.000376     -0.000823      0.000000
    294 O2    s       0.000143     -0.000082      0.000661      0.000000
    295 O3    s       0.001077      0.000284      0.000300      0.000000
    296 O2    s       0.001176     -0.000962     -0.000746      0.000000
    297 O2    s       0.000248     -0.000089      0.001055      0.000000
    298 O2    s      -0.000032      0.000222      0.000254      0.000000
    299 O2    s       0.000144     -0.000182      0.000402      0.000000
    300 O2    s       0.000253      0.000037      0.000172      0.000000
    301 O2    s      -0.000066     -0.000133     -0.000428      0.000000
    302 O2    s      -0.000383      0.000279     -0.000118      0.000000
    303 O2    s      -0.000153      0.000373     -0.000499      0.000000
    304 O2    s       0.000145     -0.000123      0.000610      0.000000
    305 O2    s       0.001000     -0.000318      0.001191      0.000000
    306 O3    s       0.001173     -0.000365      0.000715      0.000000
    307 F     s       0.000055     -0.000112      0.000560      0.000000
    308 F     s       0.000211     -0.000143     -0.000434      0.000000
    309 F     s       0.000085      0.000133      0.000479      0.000000
    310 F     s      -0.000069      0.000057      0.000343      0.000000
    311 F     s      -0.001655     -0.000927     -0.001350      0.000000
    312 F     s      -0.000068      0.000170      0.001698      0.000000
--------------------------------------------------------------------------------
  Maximum abs         0.001701      0.001885      0.008944      0.000000
--------------------------------------------------------------------------------


  Time to end of optimisation =     543.5762 seconds


  Peak dynamic memory used =      19.13 MB 


  Timing analysis for GULP :

--------------------------------------------------------------------------------
  Task / Subroutine                                          Time (Seconds)
--------------------------------------------------------------------------------
  Calculation of reciprocal space energy and derivatives         12.6973
  Calculation of real space energy and derivatives              475.2022
  Calculation of three-body energy and derivatives               49.8041
  Calculation of matrix inversion                                 5.2073
  Global summation overhead                                       0.0009
--------------------------------------------------------------------------------
  Total CPU time                                                543.5762
--------------------------------------------------------------------------------


  Dump file written as out.res                                                 
  CIF file written as out.cif                                                 


  Job Finished at 12:22.19  1st November   2016                               

