********************************************************************************
*                       GENERAL UTILITY LATTICE PROGRAM                        *
*                                 Julian Gale                                  *
*                      Nanochemistry Research Institute                        *
*                           Department of Chemistry                            *
*                    Curtin University, Western Australia                      *
********************************************************************************
* Version = 4.2.0 * Last modified =  20th January 2014                         *
********************************************************************************
*  optimise     - perform optimisation run                                     *
*  conp         - constant pressure calculation                                *
*  qok          - running with non charge neutral cell is OK                   *
********************************************************************************

  Job Started  at 16:26.04  1st November   2016                               

  Number of CPUs =     1


  Total number of configurations input =   1

********************************************************************************
*  Input for Configuration =   1                                               *
********************************************************************************

  Formula = Ge3Si57O120F6                                               

  Number of irreducible atoms/shells =     312


  Total number atoms/shells =     312

  Dimensionality = 3               :  Bulk   


  Charge on solid   =  -6.000000 =>neutralising background added


  Cartesian lattice vectors (Angstroms) :

       11.929276    0.000000    0.000000
       -5.975650   10.407798    0.000000
       -0.386448   -0.276066   29.470905

  Cell parameters (Angstroms/Degrees):

  a =      11.9293    alpha =  90.0913
  b =      12.0013    beta  =  90.7512
  c =      29.4747    gamma = 119.8623

  Initial cell volume =        3659.033569 Angs**3

  Temperature of configuration =  0.000     K 

  Pressure of configuration =         0.000 GPa 

  Fractional coordinates of asymmetric unit :

--------------------------------------------------------------------------------
   No.  Atomic       x           y          z         Charge      Occupancy
        Label      (Frac)      (Frac)     (Frac)        (e)         (Frac)  
--------------------------------------------------------------------------------
      1 Ge    c    0.699600    0.375700    0.033890     4.00000    1.000000    
      2 Si    c    0.617831 *  0.318413 *  0.362009 *   4.00000    1.000000    
      3 Si    c    0.671777 *  0.300789 *  0.697032 *   4.00000    1.000000    
      4 Si    c    0.288690 *  0.620491 *  0.530954 *   4.00000    1.000000    
      5 Si    c    0.372998 *  0.675897 *  0.862179 *   4.00000    1.000000    
      6 Si    c    0.319151 *  0.700285 *  0.194579 *   4.00000    1.000000    
      7 Si    c    0.371580 *  0.685879 *  0.295923 *   4.00000    1.000000    
      8 Si    c    0.313486 *  0.617926 *  0.961434 *   4.00000    1.000000    
      9 Si    c    0.290969 *  0.677363 *  0.631500 *   4.00000    1.000000    
     10 Si    c    0.624268 *  0.301593 *  0.798094 *   4.00000    1.000000    
     11 Si    c    0.669681 *  0.382617 *  0.464114 *   4.00000    1.000000    
     12 Si    c    0.682611 *  0.315055 *  0.132486 *   4.00000    1.000000    
     13 Si    c    0.526410 *  0.415671 *  0.965426 *   4.00000    1.000000    
     14 Si    c    0.578322 *  0.100105 *  0.300865 *   4.00000    1.000000    
     15 Si    c    0.879700 *  0.472504 *  0.632361 *   4.00000    1.000000    
     16 Si    c    0.457280 *  0.591633 *  0.462194 *   4.00000    1.000000    
     17 Si    c    0.418567 *  0.887089 *  0.797269 *   4.00000    1.000000    
     18 Si    c    0.105283 *  0.529070 *  0.127865 *   4.00000    1.000000    
     19 Ge    c    0.424901 *  0.520760 *  0.363225 *   4.00000    1.000000    
     20 Si    c    0.098081 *  0.577124 *  0.024614 *   4.00000    1.000000    
     21 Si    c    0.465638 *  0.890713 *  0.695559 *   4.00000    1.000000    
     22 Si    c    0.580052 *  0.469135 *  0.863273 *   4.00000    1.000000    
     23 Si    c    0.880312 *  0.420507 *  0.530931 *   4.00000    1.000000    
     24 Si    c    0.526529 *  0.107683 *  0.199970 *   4.00000    1.000000    
     25 Si    c    0.299628 *  0.401474 *  0.846452 *   4.00000    1.000000    
     26 Si    c    0.598169 *  0.901554 *  0.182229 *   4.00000    1.000000    
     27 Si    c    0.086625 *  0.698255 *  0.516077 *   4.00000    1.000000    
     28 Si    c    0.698263 *  0.598905 *  0.341919 *   4.00000    1.000000    
     29 Si    c    0.392329 *  0.099142 *  0.682605 *   4.00000    1.000000    
     30 Si    c    0.885501 *  0.290012 *  0.010275 *   4.00000    1.000000    
     31 Si    c    0.386835 *  0.306246 *  0.476030 *   4.00000    1.000000    
     32 Si    c    0.889506 *  0.599367 *  0.141698 *   4.00000    1.000000    
     33 Si    c    0.700147 *  0.098797 *  0.810643 *   4.00000    1.000000    
     34 Si    c    0.592858 *  0.696362 *  0.978249 *   4.00000    1.000000    
     35 Si    c    0.090428 *  0.400580 *  0.646116 *   4.00000    1.000000    
     36 Si    c    0.297479 *  0.890433 *  0.311873 *   4.00000    1.000000    
     37 Si    c    0.246121 *  0.339235 *  0.946073 *   4.00000    1.000000    
     38 Si    c    0.653965 *  0.899157 *  0.283138 *   4.00000    1.000000    
     39 Si    c    0.080798 *  0.749945 *  0.616669 *   4.00000    1.000000    
     40 Si    c    0.738681 *  0.665044 *  0.444988 *   4.00000    1.000000    
     41 Si    c    0.343298 *  0.090400 *  0.783642 *   4.00000    1.000000    
     42 Si    c    0.899792 *  0.247986 *  0.113358 *   4.00000    1.000000    
     43 Si    c    0.328484 *  0.242897 *  0.373884 *   4.00000    1.000000    
     44 Si    c    0.894669 *  0.658566 *  0.039205 *   4.00000    1.000000    
     45 Si    c    0.744917 *  0.092803 *  0.709705 *   4.00000    1.000000    
     46 Si    c    0.652984 *  0.746102 *  0.877992 *   4.00000    1.000000    
     47 Si    c    0.080565 *  0.340535 *  0.545318 *   4.00000    1.000000    
     48 Si    c    0.247395 *  0.907681 *  0.211664 *   4.00000    1.000000    
     49 Si    c    0.969519 *  0.119279 *  0.962112 *   4.00000    1.000000    
     50 Si    c    0.878426 *  0.842595 *  0.294730 *   4.00000    1.000000    
     51 Si    c    0.145023 *  0.030473 *  0.628441 *   4.00000    1.000000    
     52 Si    c    0.021347 *  0.877990 *  0.462516 *   4.00000    1.000000    
     53 Ge    c    0.119481 *  0.148527 *  0.795881 *   4.00000    1.000000    
     54 Si    c    0.844270 *  0.972317 *  0.129772 *   4.00000    1.000000    
     55 Si    c    0.118563 *  0.957438 *  0.361497 *   4.00000    1.000000    
     56 Si    c    0.843652 *  0.881841 *  0.028296 *   4.00000    1.000000    
     57 Si    c    0.022276 *  0.150206 *  0.692795 *   4.00000    1.000000    
     58 Si    c    0.873694 *  0.022071 *  0.861704 *   4.00000    1.000000    
     59 Si    c    0.142817 *  0.122818 *  0.527463 *   4.00000    1.000000    
     60 Si    c    0.968357 *  0.850214 *  0.193598 *   4.00000    1.000000    
     61 O2    c    0.925940 *  0.002991 *  0.996720 *   0.87073    1.000000    
     62 O2    c    0.000284 *  0.922963 *  0.327520 *   0.87073    1.000000    
     63 O2    c    0.060646 *  0.076376 *  0.655956 *   0.87073    1.000000    
     64 O2    c    0.063220 *  0.004537 *  0.492869 *   0.87073    1.000000    
     65 O3    c    0.988603 *  0.054498 *  0.828427 *   1.33043    1.000000    
     66 O2    c    0.930536 *  0.933876 *  0.161123 *   0.87073    1.000000    
     67 O3    c    0.335761 *  0.566210 *  0.326100 *   1.33043    1.000000    
     68 O2    c    0.416380 *  0.764670 *  0.663253 *   0.87073    1.000000    
     69 O2    c    0.224401 *  0.652393 *  0.993450 *   0.87073    1.000000    
     70 O2    c    0.660299 *  0.422533 *  0.831597 *   0.87073    1.000000    
     71 O2    c    0.576657 *  0.237664 *  0.170823 *   0.87073    1.000000    
     72 O2    c    0.752638 *  0.345938 *  0.498158 *   0.87073    1.000000    
     73 O3    c    0.565491 *  0.336630 *  0.997993 *   1.33043    1.000000    
     74 O2    c    0.754990 *  0.423886 *  0.664538 *   0.87073    1.000000    
     75 O2    c    0.655069 *  0.225982 *  0.333907 *   0.87073    1.000000    
     76 O2    c    0.413659 *  0.661843 *  0.499550 *   0.87073    1.000000    
     77 O2    c    0.232264 *  0.580281 *  0.160007 *   0.87073    1.000000    
     78 O2    c    0.338581 *  0.763035 *  0.828994 *   0.87073    1.000000    
     79 O2    c    0.123500 *  0.212276 *  0.966859 *   0.87073    1.000000    
     80 O2    c    0.780495 *  0.896728 *  0.302906 *   0.87073    1.000000    
     81 O2    c    0.082072 *  0.877373 *  0.635923 *   0.87073    1.000000    
     82 O2    c    0.866190 *  0.789131 *  0.465978 *   0.87073    1.000000    
     83 O3    c    0.220290 *  0.086786 *  0.805668 *   1.33043    1.000000    
     84 O2    c    0.904198 *  0.125946 *  0.134793 *   0.87073    1.000000    
     85 O2    c    0.211687 *  0.108554 *  0.355531 *   0.87073    1.000000    
     86 O2    c    0.911636 *  0.795692 *  0.023374 *   0.87073    1.000000    
     87 O2    c    0.867884 *  0.091218 *  0.687729 *   0.87073    1.000000    
     88 O2    c    0.778005 *  0.869359 *  0.857523 *   0.87073    1.000000    
     89 O2    c    0.076885 *  0.212178 *  0.525461 *   0.87073    1.000000    
     90 O2    c    0.122465 *  0.910412 *  0.190487 *   0.87073    1.000000    
     91 O2    c    0.926267 *  0.862273 *  0.243654 *   0.87073    1.000000    
     92 O2    c    0.138733 *  0.064127 *  0.576259 *   0.87073    1.000000    
     93 O2    c    0.931054 *  0.061356 *  0.912067 *   0.87073    1.000000    
     94 O3    c    0.063177 *  0.123636 *  0.740810 *   1.33043    1.000000    
     95 O2    c    0.853689 *  0.933851 *  0.078933 *   0.87073    1.000000    
     96 O2    c    0.063982 *  0.922290 *  0.411737 *   0.87073    1.000000    
     97 O2    c    0.897875 *  0.199361 *  0.972489 *   0.87073    1.000000    
     98 O2    c    0.809280 *  0.691222 *  0.306395 *   0.87073    1.000000    
     99 O2    c    0.294999 *  0.101605 *  0.643962 *   0.87073    1.000000    
    100 O2    c    0.088969 *  0.796610 *  0.477931 *   0.87073    1.000000    
    101 O3    c    0.202785 *  0.310418 *  0.806718 *   1.33043    1.000000    
    102 O2    c    0.694347 *  0.901036 *  0.143770 *   0.87073    1.000000    
    103 O2    c    0.198035 *  0.884633 *  0.350525 *   0.87073    1.000000    
    104 O2    c    0.691133 *  0.797950 *  0.016217 *   0.87073    1.000000    
    105 O2    c    0.092432 *  0.303847 *  0.684177 *   0.87073    1.000000    
    106 O2    c    0.798618 *  0.099189 *  0.849122 *   0.87073    1.000000    
    107 O2    c    0.293085 *  0.210556 *  0.514590 *   0.87073    1.000000    
    108 O2    c    0.896345 *  0.699685 *  0.180046 *   0.87073    1.000000    
    109 O2    c    0.320348 *  0.639785 *  0.243495 *   0.87073    1.000000    
    110 O2    c    0.346224 *  0.677280 *  0.581304 *   0.87073    1.000000    
    111 O2    c    0.312530 *  0.676696 *  0.911561 *   0.87073    1.000000    
    112 O2    c    0.676768 *  0.358610 *  0.747629 *   0.87073    1.000000    
    113 O3    c    0.612094 *  0.303448 *  0.085061 *   1.33043    1.000000    
    114 O2    c    0.668429 *  0.326575 *  0.414024 *   0.87073    1.000000    
    115 O2    c    0.368786 *  0.330923 *  0.964507 *   0.87073    1.000000    
    116 O2    c    0.666788 *  0.032041 *  0.302898 *   0.87073    1.000000    
    117 O2    c    0.948324 *  0.628531 *  0.634689 *   0.87073    1.000000    
    118 O2    c    0.616335 *  0.675413 *  0.462545 *   0.87073    1.000000    
    119 O2    c    0.333569 *  0.957636 *  0.800051 *   0.87073    1.000000    
    120 O2    c    0.032678 *  0.373781 *  0.129997 *   0.87073    1.000000    
    121 O3    c    0.309542 *  0.353653 *  0.353411 *   1.33043    1.000000    
    122 O2    c    0.027338 *  0.662214 *  0.023339 *   0.87073    1.000000    
    123 O2    c    0.621669 *  0.960696 *  0.691303 *   0.87073    1.000000    
    124 O2    c    0.664013 *  0.624567 *  0.859820 *   0.87073    1.000000    
    125 O2    c    0.947771 *  0.332073 *  0.526503 *   0.87073    1.000000    
    126 O2    c    0.370116 *  0.039728 *  0.194414 *   0.87073    1.000000    
    127 O3    c    0.750536 *  0.280984 *  0.001895 *   1.33043    1.000000    
    128 O2    c    0.694324 *  0.460813 *  0.340398 *   0.87073    1.000000    
    129 O2    c    0.526821 *  0.232177 *  0.674859 *   0.87073    1.000000    
    130 O2    c    0.218479 *  0.693957 *  0.508267 *   0.87073    1.000000    
    131 O2    c    0.298815 *  0.534668 *  0.838382 *   0.87073    1.000000    
    132 O2    c    0.461860 *  0.771030 *  0.172208 *   0.87073    1.000000    
    133 O2    c    0.296110 *  0.756525 *  0.316662 *   0.87073    1.000000    
    134 O2    c    0.456999 *  0.695010 *  0.984747 *   0.87073    1.000000    
    135 O2    c    0.224536 *  0.534735 *  0.653484 *   0.87073    1.000000    
    136 O2    c    0.701241 *  0.232876 *  0.818974 *   0.87073    1.000000    
    137 O2    c    0.524141 *  0.311724 *  0.483134 *   0.87073    1.000000    
    138 O2    c    0.758506 *  0.465145 *  0.150406 *   0.87073    1.000000    
    139 O3    c    0.768301 *  0.544525 *  0.018022 *   1.33043    1.000000    
    140 O2    c    0.463099 *  0.252986 *  0.357521 *   0.87073    1.000000    
    141 O2    c    0.746568 *  0.219928 *  0.690958 *   0.87073    1.000000    
    142 O2    c    0.207603 *  0.464379 *  0.525938 *   0.87073    1.000000    
    143 O2    c    0.529181 *  0.750898 *  0.857990 *   0.87073    1.000000    
    144 O2    c    0.242789 *  0.780482 *  0.191177 *   0.87073    1.000000    
    145 O2    c    0.528462 *  0.775195 *  0.301830 *   0.87073    1.000000    
    146 O2    c    0.239838 *  0.462438 *  0.965356 *   0.87073    1.000000    
    147 O2    c    0.206850 *  0.749195 *  0.636476 *   0.87073    1.000000    
    148 O2    c    0.469118 *  0.217327 *  0.802978 *   0.87073    1.000000    
    149 O2    c    0.731906 *  0.536404 *  0.464441 *   0.87073    1.000000    
    150 O2    c    0.777167 *  0.252625 *  0.132835 *   0.87073    1.000000    
    151 O2    c    0.224339 *  0.321293 *  0.891383 *   0.87073    1.000000    
    152 O2    c    0.670873 *  0.899995 *  0.228730 *   0.87073    1.000000    
    153 O2    c    0.082956 *  0.768448 *  0.562380 *   0.87073    1.000000    
    154 O2    c    0.754658 *  0.673248 *  0.390807 *   0.87073    1.000000    
    155 O2    c    0.320872 *  0.096344 *  0.729255 *   0.87073    1.000000    
    156 O2    c    0.895142 *  0.230331 *  0.059102 *   0.87073    1.000000    
    157 O2    c    0.317699 *  0.236220 *  0.428983 *   0.87073    1.000000    
    158 O2    c    0.888583 *  0.665514 *  0.094529 *   0.87073    1.000000    
    159 O2    c    0.769859 *  0.095904 *  0.763983 *   0.87073    1.000000    
    160 O2    c    0.668977 *  0.764994 *  0.932372 *   0.87073    1.000000    
    161 O2    c    0.083806 *  0.325077 *  0.599585 *   0.87073    1.000000    
    162 O2    c    0.228165 *  0.903256 *  0.265935 *   0.87073    1.000000    
    163 O2    c    0.576204 *  0.557490 *  0.987657 *   0.87073    1.000000    
    164 O2    c    0.437212 *  0.014814 *  0.323320 *   0.87073    1.000000    
    165 O2    c    0.966517 *  0.417272 *  0.655067 *   0.87073    1.000000    
    166 O2    c    0.404998 *  0.447025 *  0.482222 *   0.87073    1.000000    
    167 O2    c    0.562125 *  0.972741 *  0.819299 *   0.87073    1.000000    
    168 O2    c    0.013468 *  0.580350 *  0.147407 *   0.87073    1.000000    
    169 O3    c    0.566369 *  0.589686 *  0.327938 *   1.33043    1.000000    
    170 O2    c    0.006747 *  0.434976 *  0.003947 *   0.87073    1.000000    
    171 O2    c    0.404057 *  0.972609 *  0.673345 *   0.87073    1.000000    
    172 O2    c    0.438348 *  0.411231 *  0.839136 *   0.87073    1.000000    
    173 O2    c    0.958657 *  0.560218 *  0.507081 *   0.87073    1.000000    
    174 O2    c    0.588375 *  0.029971 *  0.175052 *   0.87073    1.000000    
    175 O2    c    0.578679 *  0.158702 *  0.251239 *   0.87073    1.000000    
    176 O2    c    0.825610 *  0.418474 *  0.581283 *   0.87073    1.000000    
    177 O2    c    0.581118 *  0.420472 *  0.914341 *   0.87073    1.000000    
    178 O2    c    0.417022 *  0.835600 *  0.746060 *   0.87073    1.000000    
    179 O2    c    0.146769 *  0.574292 *  0.076219 *   0.87073    1.000000    
    180 O3    c    0.402024 *  0.594856 *  0.413421 *   1.33043    1.000000    
    181 F     c    0.449724 *  0.903390 *  0.245880 *   0.56000    1.000000    
    182 F     c    0.085385 *  0.546860 *  0.579763 *   0.56000    1.000000    
    183 F     c    0.440255 *  0.548751 *  0.910818 *   0.56000    1.000000    
    184 F     c    0.548116 *  0.099052 *  0.745767 *   0.56000    1.000000    
    185 F     c    0.850183 *  0.433598 *  0.069285 *   0.56000    1.000000    
    186 F     c    0.517309 *  0.470056 *  0.401466 *   0.56000    1.000000    
    187 O2    s    0.921537 *  0.002423 *  0.996391 *  -2.87073    1.000000    
    188 O2    s    0.999782 *  0.917668 *  0.327642 *  -2.87073    1.000000    
    189 O2    s    0.066026 *  0.079212 *  0.656842 *  -2.87073    1.000000    
    190 O2    s    0.067332 *  0.003638 *  0.493338 *  -2.87073    1.000000    
    191 O3    s    0.987610 *  0.059213 *  0.829180 *  -3.33043    1.000000    
    192 O2    s    0.925194 *  0.928841 *  0.161264 *  -2.87073    1.000000    
    193 O3    s    0.345809 *  0.576372 *  0.325293 *  -3.33043    1.000000    
    194 O2    s    0.408226 *  0.768404 *  0.663217 *  -2.87073    1.000000    
    195 O2    s    0.220127 *  0.641008 *  0.993488 *  -2.87073    1.000000    
    196 O2    s    0.648529 *  0.414725 *  0.831309 *  -2.87073    1.000000    
    197 O2    s    0.582587 *  0.232257 *  0.169820 *  -2.87073    1.000000    
    198 O2    s    0.756564 *  0.357392 *  0.497786 *  -2.87073    1.000000    
    199 O3    s    0.571012 *  0.347930 *  0.997116 *  -3.33043    1.000000    
    200 O2    s    0.759504 *  0.416524 *  0.664490 *  -2.87073    1.000000    
    201 O2    s    0.643507 *  0.223146 *  0.333581 *  -2.87073    1.000000    
    202 O2    s    0.405206 *  0.650418 *  0.498999 *  -2.87073    1.000000    
    203 O2    s    0.227427 *  0.586780 *  0.160039 *  -2.87073    1.000000    
    204 O2    s    0.350472 *  0.767097 *  0.829073 *  -2.87073    1.000000    
    205 O2    s    0.119388 *  0.215203 *  0.964241 *  -2.87073    1.000000    
    206 O2    s    0.777855 *  0.891213 *  0.300030 *  -2.87073    1.000000    
    207 O2    s    0.088524 *  0.880236 *  0.633176 *  -2.87073    1.000000    
    208 O2    s    0.869343 *  0.785639 *  0.463456 *  -2.87073    1.000000    
    209 O3    s    0.224459 *  0.092268 *  0.802640 *  -3.33043    1.000000    
    210 O2    s    0.897441 *  0.122499 *  0.132058 *  -2.87073    1.000000    
    211 O2    s    0.214113 *  0.106349 *  0.358208 *  -2.87073    1.000000    
    212 O2    s    0.902553 *  0.790948 *  0.025510 *  -2.87073    1.000000    
    213 O2    s    0.871413 *  0.097643 *  0.690528 *  -2.87073    1.000000    
    214 O2    s    0.775040 *  0.872750 *  0.860128 *  -2.87073    1.000000    
    215 O2    s    0.084229 *  0.215829 *  0.527676 *  -2.87073    1.000000    
    216 O2    s    0.118725 *  0.903622 *  0.192987 *  -2.87073    1.000000    
    217 O2    s    0.925595 *  0.858653 *  0.243796 *  -2.87073    1.000000    
    218 O2    s    0.139867 *  0.067075 *  0.576498 *  -2.87073    1.000000    
    219 O2    s    0.928971 *  0.063547 *  0.912111 *  -2.87073    1.000000    
    220 O3    s    0.063503 *  0.128686 *  0.740256 *  -3.33043    1.000000    
    221 O2    s    0.851468 *  0.932440 *  0.079100 *  -2.87073    1.000000    
    222 O2    s    0.065247 *  0.921184 *  0.411880 *  -2.87073    1.000000    
    223 O2    s    0.904442 *  0.200167 *  0.975345 *  -2.87073    1.000000    
    224 O2    s    0.805402 *  0.697724 *  0.308738 *  -2.87073    1.000000    
    225 O2    s    0.288836 *  0.093737 *  0.646230 *  -2.87073    1.000000    
    226 O2    s    0.081415 *  0.795225 *  0.480222 *  -2.87073    1.000000    
    227 O3    s    0.204936 *  0.305452 *  0.809558 *  -3.33043    1.000000    
    228 O2    s    0.700543 *  0.908697 *  0.146205 *  -2.87073    1.000000    
    229 O2    s    0.199465 *  0.892961 *  0.347846 *  -2.87073    1.000000    
    230 O2    s    0.697271 *  0.796524 *  0.013650 *  -2.87073    1.000000    
    231 O2    s    0.085051 *  0.298002 *  0.681185 *  -2.87073    1.000000    
    232 O2    s    0.796324 *  0.091090 *  0.846455 *  -2.87073    1.000000    
    233 O2    s    0.286955 *  0.211269 *  0.511923 *  -2.87073    1.000000    
    234 O2    s    0.903271 *  0.705265 *  0.177510 *  -2.87073    1.000000    
    235 O2    s    0.325207 *  0.650660 *  0.243417 *  -2.87073    1.000000    
    236 O2    s    0.334515 *  0.671365 *  0.581249 *  -2.87073    1.000000    
    237 O2    s    0.318714 *  0.670656 *  0.911627 *  -2.87073    1.000000    
    238 O2    s    0.670986 *  0.347000 *  0.747559 *  -2.87073    1.000000    
    239 O3    s    0.625048 *  0.309385 *  0.086521 *  -3.33043    1.000000    
    240 O2    s    0.663375 *  0.331632 *  0.413941 *  -2.87073    1.000000    
    241 O2    s    0.371038 *  0.340401 *  0.962527 *  -2.87073    1.000000    
    242 O2    s    0.656378 *  0.025575 *  0.300678 *  -2.87073    1.000000    
    243 O2    s    0.955106 *  0.625261 *  0.632565 *  -2.87073    1.000000    
    244 O2    s    0.613954 *  0.666263 *  0.460643 *  -2.87073    1.000000    
    245 O2    s    0.343702 *  0.964326 *  0.797974 *  -2.87073    1.000000    
    246 O2    s    0.026446 *  0.376906 *  0.128044 *  -2.87073    1.000000    
    247 O3    s    0.319245 *  0.352855 *  0.356296 *  -3.33043    1.000000    
    248 O2    s    0.021593 *  0.652863 *  0.025060 *  -2.87073    1.000000    
    249 O2    s    0.618410 *  0.967343 *  0.693693 *  -2.87073    1.000000    
    250 O2    s    0.654138 *  0.621241 *  0.862096 *  -2.87073    1.000000    
    251 O2    s    0.954534 *  0.342070 *  0.528910 *  -2.87073    1.000000    
    252 O2    s    0.373229 *  0.032754 *  0.196813 *  -2.87073    1.000000    
    253 O3    s    0.761628 *  0.288141 *  0.004953 *  -3.33043    1.000000    
    254 O2    s    0.686752 *  0.459744 *  0.342826 *  -2.87073    1.000000    
    255 O2    s    0.527718 *  0.225383 *  0.677973 *  -2.87073    1.000000    
    256 O2    s    0.211699 *  0.686852 *  0.511447 *  -2.87073    1.000000    
    257 O2    s    0.306633 *  0.535423 *  0.841750 *  -2.87073    1.000000    
    258 O2    s    0.461376 *  0.777344 *  0.175568 *  -2.87073    1.000000    
    259 O2    s    0.303739 *  0.764239 *  0.314033 *  -2.87073    1.000000    
    260 O2    s    0.456287 *  0.687279 *  0.981671 *  -2.87073    1.000000    
    261 O2    s    0.217258 *  0.535279 *  0.650419 *  -2.87073    1.000000    
    262 O2    s    0.693219 *  0.225931 *  0.815911 *  -2.87073    1.000000    
    263 O2    s    0.525069 *  0.318637 *  0.480365 *  -2.87073    1.000000    
    264 O2    s    0.765080 *  0.464900 *  0.147713 *  -2.87073    1.000000    
    265 O3    s    0.778106 *  0.546694 *  0.021272 *  -3.33043    1.000000    
    266 O2    s    0.466142 *  0.259194 *  0.359660 *  -2.87073    1.000000    
    267 O2    s    0.738464 *  0.214610 *  0.693585 *  -2.87073    1.000000    
    268 O2    s    0.202224 *  0.467101 *  0.528491 *  -2.87073    1.000000    
    269 O2    s    0.526272 *  0.742413 *  0.860584 *  -2.87073    1.000000    
    270 O2    s    0.251276 *  0.785786 *  0.193700 *  -2.87073    1.000000    
    271 O2    s    0.526775 *  0.780288 *  0.299190 *  -2.87073    1.000000    
    272 O2    s    0.248215 *  0.465611 *  0.962928 *  -2.87073    1.000000    
    273 O2    s    0.201766 *  0.741664 *  0.633824 *  -2.87073    1.000000    
    274 O2    s    0.472047 *  0.212464 *  0.800370 *  -2.87073    1.000000    
    275 O2    s    0.725829 *  0.533605 *  0.462322 *  -2.87073    1.000000    
    276 O2    s    0.781307 *  0.258496 *  0.130633 *  -2.87073    1.000000    
    277 O2    s    0.234041 *  0.331065 *  0.892444 *  -2.87073    1.000000    
    278 O2    s    0.661419 *  0.900075 *  0.229548 *  -2.87073    1.000000    
    279 O2    s    0.083100 *  0.758997 *  0.563239 *  -2.87073    1.000000    
    280 O2    s    0.747389 *  0.665129 *  0.391927 *  -2.87073    1.000000    
    281 O2    s    0.330580 *  0.096089 *  0.729874 *  -2.87073    1.000000    
    282 O2    s    0.894674 *  0.238117 *  0.060120 *  -2.87073    1.000000    
    283 O2    s    0.326255 *  0.244490 *  0.428509 *  -2.87073    1.000000    
    284 O2    s    0.889222 *  0.657525 *  0.094228 *  -2.87073    1.000000    
    285 O2    s    0.760180 *  0.095911 *  0.763104 *  -2.87073    1.000000    
    286 O2    s    0.659332 *  0.755818 *  0.931372 *  -2.87073    1.000000    
    287 O2    s    0.084131 *  0.334579 *  0.598605 *  -2.87073    1.000000    
    288 O2    s    0.237318 *  0.902436 *  0.264924 *  -2.87073    1.000000    
    289 O2    s    0.572737 *  0.558520 *  0.984350 *  -2.87073    1.000000    
    290 O2    s    0.437253 *  0.010532 *  0.319791 *  -2.87073    1.000000    
    291 O2    s    0.970937 *  0.421463 *  0.651709 *  -2.87073    1.000000    
    292 O2    s    0.408292 *  0.445737 *  0.479524 *  -2.87073    1.000000    
    293 O2    s    0.561948 *  0.977529 *  0.816029 *  -2.87073    1.000000    
    294 O2    s    0.009916 *  0.576779 *  0.144694 *  -2.87073    1.000000    
    295 O3    s    0.571460 *  0.585962 *  0.331762 *  -3.33043    1.000000    
    296 O2    s    0.004081 *  0.435564 *  0.006831 *  -2.87073    1.000000    
    297 O2    s    0.409333 *  0.977783 *  0.676632 *  -2.87073    1.000000    
    298 O2    s    0.438245 *  0.416299 *  0.842400 *  -2.87073    1.000000    
    299 O2    s    0.964231 *  0.560394 *  0.510502 *  -2.87073    1.000000    
    300 O2    s    0.582919 *  0.024142 *  0.178371 *  -2.87073    1.000000    
    301 O2    s    0.573154 *  0.147191 *  0.251093 *  -2.87073    1.000000    
    302 O2    s    0.836863 *  0.424215 *  0.581257 *  -2.87073    1.000000    
    303 O2    s    0.575606 *  0.425173 *  0.913989 *  -2.87073    1.000000    
    304 O2    s    0.422281 *  0.846696 *  0.746077 *  -2.87073    1.000000    
    305 O2    s    0.137412 *  0.569788 *  0.076423 *  -2.87073    1.000000    
    306 O3    s    0.409332 *  0.589782 *  0.415342 *  -3.33043    1.000000    
    307 F     s    0.449811 *  0.903910 *  0.245692 *  -1.56000    1.000000    
    308 F     s    0.085430 *  0.546811 *  0.579601 *  -1.56000    1.000000    
    309 F     s    0.439388 *  0.549202 *  0.910591 *  -1.56000    1.000000    
    310 F     s    0.548416 *  0.099448 *  0.745662 *  -1.56000    1.000000    
    311 F     s    0.839508 *  0.429554 *  0.066884 *  -1.56000    1.000000    
    312 F     s    0.510948 *  0.473786 *  0.398790 *  -1.56000    1.000000    
--------------------------------------------------------------------------------



********************************************************************************
*  General input information                                                   *
********************************************************************************

  Species output for all configurations : 

--------------------------------------------------------------------------------
  Species    Type    Atomic    Atomic    Charge       Radii (Angs)     Library
                     Number     Mass       (e)     Cova   Ionic  VDW   Symbol
--------------------------------------------------------------------------------
    Si       Core       14      28.09   4.000000   1.200  0.000  2.100          
    O1       Core        8      16.00   1.733957   0.730  0.000  1.360          
    O1       Shell       8       0.00  -3.733957   0.730  0.000  1.360          
    O2       Core        8      16.00   0.870733   0.730  0.000  1.360          
    O2       Shell       8       0.00  -2.870733   0.730  0.000  1.360          
    O3       Core        8      16.00   1.330431   0.730  0.000  1.360          
    O3       Shell       8       0.00  -3.330431   0.730  0.000  1.360          
    F        Core        9      19.00   0.560000   0.710  0.000  1.300          
    F        Shell       9       0.00  -1.560000   0.710  0.000  1.300          
    Ge       Core       32      72.61   4.000000   1.170  0.000  1.750          
--------------------------------------------------------------------------------


  Lattice summation method               =    Ewald          (3-D)
                                         =    Parry          (2-D)
                                         =    Saunders et al (1-D)
  Accuracy factor for lattice sums       =   12.000


  Time limit = Infinity

  Maximum range for interatomic potentials =        16.000000 Angstroms

  Taper potentials to zero over   1.0000 Angstroms using polynomial

  General interatomic potentials :

--------------------------------------------------------------------------------
Atom  Types   Potential         A         B         C         D     Cutoffs(Ang)
  1     2                                                            Min    Max 
--------------------------------------------------------------------------------
Si   c O1   s Buckingham    0.132E+04 0.318      10.1      0.00     0.000 16.000
Si   c O2   s Buckingham    0.132E+04 0.318      10.1      0.00     0.000 16.000
Si   c O3   s Buckingham    0.132E+04 0.318      10.1      0.00     0.000 16.000
Ge   c O1   s Buckingham    0.150E+04 0.326      16.8      0.00     0.000 16.000
Ge   c O2   s Buckingham    0.150E+04 0.326      16.8      0.00     0.000 16.000
Ge   c O3   s Buckingham    0.150E+04 0.326      16.8      0.00     0.000 16.000
O1   s O1   s Buckingham    0.228E+05 0.149      10.9      0.00     0.000 16.000
O1   s O2   s Buckingham    0.228E+05 0.149      10.9      0.00     0.000 16.000
O1   s O3   s Buckingham    0.228E+05 0.149      10.9      0.00     0.000 16.000
O2   s O2   s Buckingham    0.228E+05 0.149      10.9      0.00     0.000 16.000
O2   s O3   s Buckingham    0.228E+05 0.149      10.9      0.00     0.000 16.000
O3   s O3   s Buckingham    0.228E+05 0.149      10.9      0.00     0.000 16.000
Si   c F    s Buckingham     977.     0.282      0.00      0.00     0.000 16.000
Ge   c F    s Buckingham     681.     0.320      0.00      0.00     0.000 16.000
F    s F    s Buckingham     540.     0.262      0.00      0.00     0.000 16.000
O1   s F    s Buckingham    0.168E+04 0.268      0.00      0.00     0.000 16.000
O2   s F    s Buckingham    0.168E+04 0.268      0.00      0.00     0.000 16.000
O3   s F    s Buckingham    0.168E+04 0.268      0.00      0.00     0.000 16.000
O2   c O2   s Spring (c-s)   76.0      0.00      0.00      0.00     0.000  0.800
O3   c O3   s Spring (c-s)   128.      0.00      0.00      0.00     0.000  0.800
O1   c O1   s Spring (c-s)   180.      0.00      0.00      0.00     0.000  0.800
F    c F    s Spring (c-s)   33.5      0.00      0.00      0.00     0.000  0.800
--------------------------------------------------------------------------------

  General Three-body potentials :

  Harmonic form:

--------------------------------------------------------------------------------
Atom    Atom    Atom           Force Constants            Theta     Cutoffs  
  1       2       3     (eVrad**-2/eVrad**-3/eVrad**-4)   (deg)  1-2  1-3  2-3
--------------------------------------------------------------------------------
Si    c O1    s O1    s  1.261        0.0000    0.0000   109.470 0.00 0.00 0.00
                                                                 1.90 1.90 3.50
Si    c O1    s O2    s  1.261        0.0000    0.0000   109.470 0.00 0.00 0.00
                                                                 1.90 1.90 3.50
Si    c O2    s O2    s  1.261        0.0000    0.0000   109.470 0.00 0.00 0.00
                                                                 1.90 1.90 3.50
--------------------------------------------------------------------------------

********************************************************************************
*  Output for configuration   1                                                *
********************************************************************************


  Components of energy : 

--------------------------------------------------------------------------------
  Interatomic potentials     =        2064.14578414 eV
  Three-body potentials      =           0.46389076 eV
  Monopole - monopole (real) =       -6614.32270463 eV
  Monopole - monopole (recip)=       -3170.70701727 eV
  Monopole - monopole (total)=       -9785.02972190 eV
  Neutralising energy        =          -6.45872034 eV
--------------------------------------------------------------------------------
  Total lattice energy       =       -7726.87876734 eV
--------------------------------------------------------------------------------
  Total lattice energy       =         -745525.6849 kJ/(mole unit cells)
--------------------------------------------------------------------------------


  Number of variables =      939

  Maximum number of calculations  =          5000
  Maximum Hessian update interval =            10
  Maximum step size               =   0.100000000
  Maximum parameter tolerance     =   0.000010000
  Maximum function  tolerance     =   0.000010000
  Maximum gradient  tolerance     =   0.001000000
  Maximum gradient  component     =   0.010000000

  Symmetry not applied to optimisation

  Cell parameters to be optimised using strains

  Newton-Raphson optimiser to be used

  BFGS hessian update to be used

  Dumpfile to be written after every cycle

  Start of bulk optimisation :

  Cycle:      0 Energy:     -7726.878767  Gnorm:      0.000512  CPU:    2.010
  ** Hessian calculated **
  Cycle:      1 Energy:     -7726.891339  Gnorm:      0.000450  CPU:    6.559
  Cycle:      2 Energy:     -7726.905921  Gnorm:      0.000470  CPU:   10.730
  Cycle:      3 Energy:     -7726.920892  Gnorm:      0.000766  CPU:   14.903
  Cycle:      4 Energy:     -7726.927013  Gnorm:      0.000784  CPU:   19.076
  Cycle:      5 Energy:     -7726.928536  Gnorm:      0.000520  CPU:   23.248
  Cycle:      6 Energy:     -7726.928920  Gnorm:      0.000297  CPU:   27.422
  Cycle:      7 Energy:     -7726.929016  Gnorm:      0.000159  CPU:   31.595
  Cycle:      8 Energy:     -7726.929033  Gnorm:      0.000113  CPU:   34.415
  Cycle:      9 Energy:     -7726.929041  Gnorm:      0.000080  CPU:   37.235
  Cycle:     10 Energy:     -7726.929045  Gnorm:      0.000056  CPU:   40.053
  ** Hessian calculated **
  Cycle:     11 Energy:     -7726.929045  Gnorm:      0.000028  CPU:   44.558


  **** Optimisation achieved ****


  Final energy =   -7726.92904476 eV
  Final Gnorm  =       0.00002102

  Components of energy : 

--------------------------------------------------------------------------------
  Interatomic potentials     =        2064.15681535 eV
  Three-body potentials      =           0.45903949 eV
  Monopole - monopole (real) =       -6615.98297680 eV
  Monopole - monopole (recip)=       -3169.10646146 eV
  Monopole - monopole (total)=       -9785.08943826 eV
  Neutralising energy        =          -6.45546134 eV
--------------------------------------------------------------------------------
  Total lattice energy       =       -7726.92904476 eV
--------------------------------------------------------------------------------
  Total lattice energy       =         -745530.5359 kJ/(mole unit cells)
--------------------------------------------------------------------------------

  Final fractional coordinates of atoms :

--------------------------------------------------------------------------------
   No.  Atomic        x           y          z          Radius
        Label       (Frac)      (Frac)     (Frac)       (Angs) 
--------------------------------------------------------------------------------
     1  Ge    c     0.699600    0.375700    0.033890    0.000000
     2  Si    c     0.597603    0.306336    0.362148    0.000000
     3  Si    c     0.651801    0.284921    0.696887    0.000000
     4  Si    c     0.268261    0.606208    0.531799    0.000000
     5  Si    c     0.360129    0.664403    0.863244    0.000000
     6  Si    c     0.305208    0.691305    0.195770    0.000000
     7  Si    c     0.355713    0.676577    0.297165    0.000000
     8  Si    c     0.304837    0.606943    0.962763    0.000000
     9  Si    c     0.270261    0.662864    0.632368    0.000000
    10  Si    c     0.607142    0.288390    0.798071    0.000000
    11  Si    c     0.649359    0.368753    0.464337    0.000000
    12  Si    c     0.670826    0.306748    0.132190    0.000000
    13  Si    c     0.518319    0.405422    0.965473    0.000000
    14  Si    c     0.561089    0.090110    0.300700    0.000000
    15  Si    c     0.859125    0.457562    0.632296    0.000000
    16  Si    c     0.437204    0.577554    0.463276    0.000000
    17  Si    c     0.401574    0.874188    0.798292    0.000000
    18  Si    c     0.093262    0.519086    0.129458    0.000000
    19  Ge    c     0.405033    0.508166    0.364270    0.000000
    20  Si    c     0.092140    0.571048    0.026317    0.000000
    21  Si    c     0.445988    0.875637    0.696466    0.000000
    22  Si    c     0.567353    0.458785    0.863014    0.000000
    23  Si    c     0.860183    0.406083    0.530927    0.000000
    24  Si    c     0.511461    0.098465    0.199560    0.000000
    25  Si    c     0.286868    0.390424    0.846818    0.000000
    26  Si    c     0.583362    0.892104    0.182706    0.000000
    27  Si    c     0.066393    0.683789    0.516531    0.000000
    28  Si    c     0.677970    0.586983    0.342344    0.000000
    29  Si    c     0.372407    0.083643    0.683113    0.000000
    30  Si    c     0.880471    0.284668    0.010760    0.000000
    31  Si    c     0.366796    0.292124    0.476652    0.000000
    32  Si    c     0.878318    0.590220    0.142830    0.000000
    33  Si    c     0.682940    0.085640    0.811277    0.000000
    34  Si    c     0.584352    0.685621    0.978612    0.000000
    35  Si    c     0.069616    0.385881    0.646436    0.000000
    36  Si    c     0.280814    0.880727    0.312373    0.000000
    37  Si    c     0.237754    0.328804    0.946764    0.000000
    38  Si    c     0.637426    0.889634    0.283763    0.000000
    39  Si    c     0.059917    0.735011    0.617087    0.000000
    40  Si    c     0.718457    0.651383    0.445530    0.000000
    41  Si    c     0.326375    0.077150    0.784299    0.000000
    42  Si    c     0.888119    0.238984    0.113984    0.000000
    43  Si    c     0.308466    0.230443    0.374407    0.000000
    44  Si    c     0.891835    0.656414    0.040543    0.000000
    45  Si    c     0.725266    0.077374    0.710184    0.000000
    46  Si    c     0.640430    0.735203    0.878129    0.000000
    47  Si    c     0.060324    0.326115    0.545681    0.000000
    48  Si    c     0.232622    0.898166    0.211966    0.000000
    49  Si    c     0.960306    0.111140    0.962304    0.000000
    50  Si    c     0.860103    0.830781    0.295259    0.000000
    51  Si    c     0.124819    0.015495    0.629041    0.000000
    52  Si    c     0.001310    0.863936    0.463069    0.000000
    53  Ge    c     0.104749    0.138086    0.796260    0.000000
    54  Si    c     0.829748    0.962516    0.130466    0.000000
    55  Si    c     0.099931    0.945101    0.362173    0.000000
    56  Si    c     0.834199    0.874433    0.029075    0.000000
    57  Si    c     0.002964    0.135961    0.693418    0.000000
    58  Si    c     0.859101    0.012053    0.862316    0.000000
    59  Si    c     0.122590    0.108341    0.528002    0.000000
    60  Si    c     0.953228    0.839604    0.194453    0.000000
    61  O2    c     0.914307    0.995492    0.997326    0.000000
    62  O2    c     0.981382    0.909078    0.328305    0.000000
    63  O2    c     0.041243    0.061832    0.656750    0.000000
    64  O2    c     0.042741    0.989981    0.493563    0.000000
    65  O3    c     0.973797    0.045943    0.828919    0.000000
    66  O2    c     0.914600    0.922265    0.161749    0.000000
    67  O3    c     0.317957    0.556549    0.327416    0.000000
    68  O2    c     0.395281    0.749280    0.664312    0.000000
    69  O2    c     0.218973    0.643996    0.995399    0.000000
    70  O2    c     0.645486    0.410798    0.830911    0.000000
    71  O2    c     0.562561    0.227806    0.169838    0.000000
    72  O2    c     0.732807    0.331874    0.498099    0.000000
    73  O3    c     0.563678    0.331559    0.997733    0.000000
    74  O2    c     0.733954    0.407842    0.664226    0.000000
    75  O2    c     0.636349    0.215734    0.333753    0.000000
    76  O2    c     0.393744    0.647519    0.500702    0.000000
    77  O2    c     0.219199    0.569803    0.161888    0.000000
    78  O2    c     0.323433    0.750783    0.830480    0.000000
    79  O2    c     0.114662    0.200694    0.966889    0.000000
    80  O2    c     0.763859    0.886850    0.303402    0.000000
    81  O2    c     0.061057    0.862278    0.636304    0.000000
    82  O2    c     0.846211    0.775169    0.466362    0.000000
    83  O3    c     0.203994    0.074794    0.806312    0.000000
    84  O2    c     0.890463    0.116064    0.135617    0.000000
    85  O2    c     0.191386    0.096401    0.356195    0.000000
    86  O2    c     0.908193    0.793516    0.025261    0.000000
    87  O2    c     0.848459    0.075562    0.688541    0.000000
    88  O2    c     0.765010    0.859309    0.857879    0.000000
    89  O2    c     0.057014    0.198000    0.525899    0.000000
    90  O2    c     0.107331    0.900813    0.191111    0.000000
    91  O2    c     0.909700    0.850928    0.244361    0.000000
    92  O2    c     0.118642    0.050006    0.576910    0.000000
    93  O2    c     0.917645    0.052229    0.912545    0.000000
    94  O3    c     0.046748    0.112396    0.741418    0.000000
    95  O2    c     0.839496    0.925502    0.079488    0.000000
    96  O2    c     0.045171    0.908940    0.412390    0.000000
    97  O2    c     0.893258    0.195318    0.972768    0.000000
    98  O2    c     0.788727    0.679259    0.306729    0.000000
    99  O2    c     0.274567    0.085516    0.644566    0.000000
   100  O2    c     0.068731    0.782371    0.478435    0.000000
   101  O3    c     0.189330    0.299772    0.807236    0.000000
   102  O2    c     0.679851    0.891747    0.144361    0.000000
   103  O2    c     0.181162    0.874380    0.351003    0.000000
   104  O2    c     0.682945    0.786675    0.016459    0.000000
   105  O2    c     0.071701    0.289229    0.684513    0.000000
   106  O2    c     0.781826    0.087088    0.849820    0.000000
   107  O2    c     0.272734    0.195649    0.515026    0.000000
   108  O2    c     0.882906    0.689107    0.181226    0.000000
   109  O2    c     0.305751    0.630863    0.244733    0.000000
   110  O2    c     0.325377    0.662914    0.582148    0.000000
   111  O2    c     0.301464    0.665018    0.912959    0.000000
   112  O2    c     0.657850    0.343576    0.747310    0.000000
   113  O3    c     0.606354    0.300333    0.084231    0.000000
   114  O2    c     0.647555    0.313166    0.414181    0.000000
   115  O2    c     0.360525    0.320289    0.965081    0.000000
   116  O2    c     0.650036    0.022610    0.303152    0.000000
   117  O2    c     0.927317    0.613423    0.634887    0.000000
   118  O2    c     0.596173    0.661218    0.463434    0.000000
   119  O2    c     0.316265    0.944427    0.801061    0.000000
   120  O2    c     0.020391    0.363891    0.131343    0.000000
   121  O3    c     0.289408    0.341472    0.354192    0.000000
   122  O2    c     0.024061    0.658845    0.025012    0.000000
   123  O2    c     0.601915    0.945271    0.691962    0.000000
   124  O2    c     0.651505    0.614189    0.859459    0.000000
   125  O2    c     0.927822    0.317819    0.526657    0.000000
   126  O2    c     0.354995    0.030036    0.194283    0.000000
   127  O3    c     0.747384    0.278704    0.002008    0.000000
   128  O2    c     0.673975    0.448986    0.340782    0.000000
   129  O2    c     0.506794    0.216159    0.674904    0.000000
   130  O2    c     0.198366    0.679733    0.508876    0.000000
   131  O2    c     0.285621    0.523545    0.839390    0.000000
   132  O2    c     0.447329    0.761569    0.173000    0.000000
   133  O2    c     0.280046    0.747303    0.317520    0.000000
   134  O2    c     0.448659    0.683972    0.985569    0.000000
   135  O2    c     0.203374    0.519886    0.654057    0.000000
   136  O2    c     0.684107    0.219774    0.819014    0.000000
   137  O2    c     0.504138    0.297703    0.483624    0.000000
   138  O2    c     0.746970    0.456160    0.150807    0.000000
   139  O3    c     0.766656    0.543180    0.018262    0.000000
   140  O2    c     0.442897    0.240821    0.357696    0.000000
   141  O2    c     0.726466    0.203915    0.690988    0.000000
   142  O2    c     0.187436    0.450271    0.526577    0.000000
   143  O2    c     0.516117    0.739748    0.858521    0.000000
   144  O2    c     0.228315    0.771007    0.191701    0.000000
   145  O2    c     0.512398    0.766102    0.302939    0.000000
   146  O2    c     0.231362    0.451392    0.966659    0.000000
   147  O2    c     0.185717    0.734202    0.637107    0.000000
   148  O2    c     0.452214    0.204183    0.803393    0.000000
   149  O2    c     0.711659    0.522453    0.464730    0.000000
   150  O2    c     0.764873    0.243658    0.132653    0.000000
   151  O2    c     0.214254    0.310871    0.892157    0.000000
   152  O2    c     0.655094    0.890346    0.229402    0.000000
   153  O2    c     0.062376    0.753718    0.562797    0.000000
   154  O2    c     0.733933    0.660528    0.391327    0.000000
   155  O2    c     0.302356    0.082155    0.729947    0.000000
   156  O2    c     0.887089    0.223462    0.059691    0.000000
   157  O2    c     0.298047    0.223067    0.429510    0.000000
   158  O2    c     0.881046    0.658991    0.095744    0.000000
   159  O2    c     0.750952    0.081372    0.764427    0.000000
   160  O2    c     0.658482    0.754168    0.932447    0.000000
   161  O2    c     0.063150    0.310512    0.599957    0.000000
   162  O2    c     0.212534    0.893585    0.266195    0.000000
   163  O2    c     0.568147    0.547083    0.987757    0.000000
   164  O2    c     0.420309    0.005300    0.323384    0.000000
   165  O2    c     0.945569    0.402230    0.655244    0.000000
   166  O2    c     0.384989    0.432730    0.483131    0.000000
   167  O2    c     0.545015    0.960133    0.820187    0.000000
   168  O2    c     0.001471    0.570303    0.148969    0.000000
   169  O3    c     0.545924    0.577429    0.328650    0.000000
   170  O2    c     0.001190    0.430016    0.005071    0.000000
   171  O2    c     0.383830    0.956921    0.674150    0.000000
   172  O2    c     0.425696    0.401305    0.839003    0.000000
   173  O2    c     0.938762    0.545989    0.507232    0.000000
   174  O2    c     0.573238    0.020180    0.175198    0.000000
   175  O2    c     0.562382    0.148953    0.250947    0.000000
   176  O2    c     0.805276    0.403883    0.581228    0.000000
   177  O2    c     0.570024    0.409984    0.913894    0.000000
   178  O2    c     0.398705    0.821473    0.747193    0.000000
   179  O2    c     0.137604    0.565951    0.078122    0.000000
   180  O3    c     0.381741    0.581178    0.414606    0.000000
   181  F     c     0.434096    0.893653    0.246314    0.000000
   182  F     c     0.064553    0.532284    0.580121    0.000000
   183  F     c     0.429842    0.537947    0.911368    0.000000
   184  F     c     0.528571    0.083935    0.746152    0.000000
   185  F     c     0.846051    0.429875    0.070116    0.000000
   186  F     c     0.497164    0.456837    0.402153    0.000000
   187  O2    s     0.910368    0.994797    0.996983    0.000000
   188  O2    s     0.981006    0.904185    0.328391    0.000000
   189  O2    s     0.046550    0.064647    0.657593    0.000000
   190  O2    s     0.046928    0.989161    0.494001    0.000000
   191  O3    s     0.972815    0.050369    0.829687    0.000000
   192  O2    s     0.909476    0.917551    0.161915    0.000000
   193  O3    s     0.328115    0.566527    0.326594    0.000000
   194  O2    s     0.387329    0.753126    0.664236    0.000000
   195  O2    s     0.214202    0.632535    0.995375    0.000000
   196  O2    s     0.633687    0.402956    0.830726    0.000000
   197  O2    s     0.568541    0.222602    0.168992    0.000000
   198  O2    s     0.736665    0.343308    0.497766    0.000000
   199  O3    s     0.568194    0.342763    0.996736    0.000000
   200  O2    s     0.738643    0.400595    0.664218    0.000000
   201  O2    s     0.624757    0.212719    0.333454    0.000000
   202  O2    s     0.385240    0.636128    0.500109    0.000000
   203  O2    s     0.214318    0.576510    0.161806    0.000000
   204  O2    s     0.335370    0.754889    0.830460    0.000000
   205  O2    s     0.110497    0.204026    0.964372    0.000000
   206  O2    s     0.761068    0.881179    0.300546    0.000000
   207  O2    s     0.067603    0.865174    0.633588    0.000000
   208  O2    s     0.849336    0.771711    0.463878    0.000000
   209  O3    s     0.208196    0.080282    0.803267    0.000000
   210  O2    s     0.883839    0.112713    0.132848    0.000000
   211  O2    s     0.194040    0.094161    0.358854    0.000000
   212  O2    s     0.898599    0.788041    0.027234    0.000000
   213  O2    s     0.851992    0.082150    0.691283    0.000000
   214  O2    s     0.761926    0.862617    0.860488    0.000000
   215  O2    s     0.064277    0.201600    0.528114    0.000000
   216  O2    s     0.103633    0.893938    0.193597    0.000000
   217  O2    s     0.909003    0.847353    0.244493    0.000000
   218  O2    s     0.119751    0.052819    0.577128    0.000000
   219  O2    s     0.915940    0.054448    0.912597    0.000000
   220  O3    s     0.046914    0.117191    0.740848    0.000000
   221  O2    s     0.837779    0.924016    0.079683    0.000000
   222  O2    s     0.046323    0.907877    0.412521    0.000000
   223  O2    s     0.899298    0.195610    0.975673    0.000000
   224  O2    s     0.785108    0.685796    0.309102    0.000000
   225  O2    s     0.268474    0.077821    0.646823    0.000000
   226  O2    s     0.061198    0.780987    0.480727    0.000000
   227  O3    s     0.191450    0.294812    0.810045    0.000000
   228  O2    s     0.686019    0.899336    0.146791    0.000000
   229  O2    s     0.182429    0.882563    0.348347    0.000000
   230  O2    s     0.689054    0.785761    0.013956    0.000000
   231  O2    s     0.064433    0.283409    0.681534    0.000000
   232  O2    s     0.779723    0.079109    0.847145    0.000000
   233  O2    s     0.266659    0.196491    0.512391    0.000000
   234  O2    s     0.889890    0.694821    0.178647    0.000000
   235  O2    s     0.310611    0.641788    0.244662    0.000000
   236  O2    s     0.313732    0.657004    0.582098    0.000000
   237  O2    s     0.307728    0.659056    0.912972    0.000000
   238  O2    s     0.652108    0.332001    0.747291    0.000000
   239  O3    s     0.619041    0.305824    0.086028    0.000000
   240  O2    s     0.642629    0.318323    0.414114    0.000000
   241  O2    s     0.362697    0.329706    0.963081    0.000000
   242  O2    s     0.639626    0.016072    0.300927    0.000000
   243  O2    s     0.934160    0.610201    0.632760    0.000000
   244  O2    s     0.593820    0.652162    0.461518    0.000000
   245  O2    s     0.326438    0.951134    0.798953    0.000000
   246  O2    s     0.014265    0.367118    0.129341    0.000000
   247  O3    s     0.299121    0.340628    0.357057    0.000000
   248  O2    s     0.017998    0.649445    0.026705    0.000000
   249  O2    s     0.598691    0.951923    0.694347    0.000000
   250  O2    s     0.641654    0.610836    0.861787    0.000000
   251  O2    s     0.934525    0.327767    0.529064    0.000000
   252  O2    s     0.358187    0.023211    0.196682    0.000000
   253  O3    s     0.758629    0.285738    0.005119    0.000000
   254  O2    s     0.666413    0.447879    0.343194    0.000000
   255  O2    s     0.507694    0.209420    0.678045    0.000000
   256  O2    s     0.191554    0.672605    0.512061    0.000000
   257  O2    s     0.293518    0.524244    0.842696    0.000000
   258  O2    s     0.446944    0.767996    0.176370    0.000000
   259  O2    s     0.287645    0.754993    0.314888    0.000000
   260  O2    s     0.447881    0.676246    0.982486    0.000000
   261  O2    s     0.196196    0.520508    0.650994    0.000000
   262  O2    s     0.676071    0.212780    0.816003    0.000000
   263  O2    s     0.505022    0.304609    0.480847    0.000000
   264  O2    s     0.753671    0.456126    0.148142    0.000000
   265  O3    s     0.776155    0.544829    0.021637    0.000000
   266  O2    s     0.445934    0.246994    0.359862    0.000000
   267  O2    s     0.718440    0.198667    0.693641    0.000000
   268  O2    s     0.182007    0.452913    0.529122    0.000000
   269  O2    s     0.513293    0.731275    0.861121    0.000000
   270  O2    s     0.236783    0.776391    0.194259    0.000000
   271  O2    s     0.510635    0.771093    0.300263    0.000000
   272  O2    s     0.239692    0.454631    0.964185    0.000000
   273  O2    s     0.180735    0.726723    0.634457    0.000000
   274  O2    s     0.455127    0.199320    0.800772    0.000000
   275  O2    s     0.705589    0.519704    0.462634    0.000000
   276  O2    s     0.769194    0.249555    0.130532    0.000000
   277  O2    s     0.223912    0.320640    0.893145    0.000000
   278  O2    s     0.645650    0.890464    0.230183    0.000000
   279  O2    s     0.062528    0.744278    0.563670    0.000000
   280  O2    s     0.726770    0.652395    0.392445    0.000000
   281  O2    s     0.312081    0.081866    0.730530    0.000000
   282  O2    s     0.886544    0.231161    0.060691    0.000000
   283  O2    s     0.306540    0.231316    0.429045    0.000000
   284  O2    s     0.881767    0.651196    0.095374    0.000000
   285  O2    s     0.741343    0.081427    0.763581    0.000000
   286  O2    s     0.648788    0.744962    0.931499    0.000000
   287  O2    s     0.063506    0.320017    0.598965    0.000000
   288  O2    s     0.221700    0.892777    0.265232    0.000000
   289  O2    s     0.564671    0.548300    0.984477    0.000000
   290  O2    s     0.420293    0.000910    0.319874    0.000000
   291  O2    s     0.950065    0.406468    0.651875    0.000000
   292  O2    s     0.388275    0.431476    0.480425    0.000000
   293  O2    s     0.544882    0.964873    0.816901    0.000000
   294  O2    s     0.997953    0.566843    0.146211    0.000000
   295  O3    s     0.551156    0.573747    0.332454    0.000000
   296  O2    s     0.998565    0.430500    0.007966    0.000000
   297  O2    s     0.389198    0.962174    0.677415    0.000000
   298  O2    s     0.425519    0.406206    0.842306    0.000000
   299  O2    s     0.944268    0.546102    0.510671    0.000000
   300  O2    s     0.567815    0.014469    0.178504    0.000000
   301  O2    s     0.556904    0.137517    0.250787    0.000000
   302  O2    s     0.816550    0.409620    0.581202    0.000000
   303  O2    s     0.564633    0.414760    0.913565    0.000000
   304  O2    s     0.403966    0.832588    0.747162    0.000000
   305  O2    s     0.128221    0.561506    0.078233    0.000000
   306  O3    s     0.389110    0.576125    0.416517    0.000000
   307  F     s     0.434176    0.894112    0.246128    0.000000
   308  F     s     0.064572    0.532239    0.579955    0.000000
   309  F     s     0.429012    0.538416    0.911158    0.000000
   310  F     s     0.528764    0.084257    0.746034    0.000000
   311  F     s     0.835195    0.426003    0.067493    0.000000
   312  F     s     0.490719    0.460646    0.399467    0.000000
--------------------------------------------------------------------------------

  Final Cartesian lattice vectors (Angstroms) :

       11.937126    0.003460   -0.001532
       -5.976563   10.415192    0.011930
       -0.390566   -0.244812   29.470098


  Final cell parameters and derivatives :

--------------------------------------------------------------------------------
       a           11.937126 Angstrom     dE/de1(xx)     0.002226 eV/strain
       b           12.008150 Angstrom     dE/de2(yy)     0.001305 eV/strain
       c           29.473703 Angstrom     dE/de3(zz)     0.002563 eV/strain
       alpha       89.977977 Degrees      dE/de4(yz)    -0.000279 eV/strain
       beta        90.766757 Degrees      dE/de5(xz)     0.000069 eV/strain
       gamma      119.831937 Degrees      dE/de6(xy)     0.000368 eV/strain
--------------------------------------------------------------------------------

  Primitive cell volume =          3664.578096 Angs**3

  Density of cell =      1.745929 g/cm**3

  Non-primitive cell volume =          3664.578096 Angs**3


  Final internal derivatives :

--------------------------------------------------------------------------------
   No.  Atomic          a             b             c           Radius
        Label          (eV)          (eV)          (eV)        (eV/Angs)
--------------------------------------------------------------------------------
      1 Ge    c       0.000000      0.000000      0.000000      0.000000
      2 Si    c       0.000013      0.000307      0.000483      0.000000
      3 Si    c       0.000017      0.000030     -0.000612      0.000000
      4 Si    c       0.000217      0.000044      0.000137      0.000000
      5 Si    c       0.000306     -0.000186      0.000374      0.000000
      6 Si    c       0.000335      0.000025      0.000708      0.000000
      7 Si    c       0.000221      0.000439     -0.000505      0.000000
      8 Si    c       0.000763     -0.000364     -0.000570      0.000000
      9 Si    c       0.000184      0.000063     -0.000247      0.000000
     10 Si    c      -0.000130     -0.000512     -0.000622      0.000000
     11 Si    c       0.000153      0.000034      0.000113      0.000000
     12 Si    c       0.000747     -0.000331      0.007839      0.000000
     13 Si    c      -0.002390      0.001976     -0.005712      0.000000
     14 Si    c      -0.000047     -0.000053     -0.000347      0.000000
     15 Si    c       0.000037     -0.000080     -0.000191      0.000000
     16 Si    c       0.000121      0.000136     -0.000162      0.000000
     17 Si    c       0.000225      0.000345      0.000165      0.000000
     18 Si    c       0.000317      0.000087      0.001377      0.000000
     19 Ge    c       0.000392      0.000037      0.000626      0.000000
     20 Si    c      -0.000467     -0.000349     -0.000451      0.000000
     21 Si    c       0.000237      0.000071      0.000020      0.000000
     22 Si    c      -0.000555      0.000493     -0.000279      0.000000
     23 Si    c       0.000094      0.000027     -0.000026      0.000000
     24 Si    c      -0.000158     -0.000182      0.000934      0.000000
     25 Si    c       0.000407     -0.000205     -0.000570      0.000000
     26 Si    c       0.000211     -0.000107      0.000036      0.000000
     27 Si    c       0.000190      0.000139      0.000002      0.000000
     28 Si    c       0.000135      0.000202     -0.000088      0.000000
     29 Si    c       0.000006      0.000071     -0.000313      0.000000
     30 Si    c       0.000750      0.000234     -0.001456      0.000000
     31 Si    c       0.000178     -0.000057      0.000054      0.000000
     32 Si    c       0.000481      0.000077      0.001496      0.000000
     33 Si    c      -0.000087     -0.000136      0.000196      0.000000
     34 Si    c      -0.000278      0.000066     -0.000234      0.000000
     35 Si    c       0.000114     -0.000068     -0.000235      0.000000
     36 Si    c       0.000137      0.000204     -0.000259      0.000000
     37 Si    c       0.000082      0.000072      0.000134      0.000000
     38 Si    c       0.000032      0.000010     -0.000205      0.000000
     39 Si    c       0.000146     -0.000011     -0.000361      0.000000
     40 Si    c       0.000209      0.000128     -0.000054      0.000000
     41 Si    c       0.000121      0.000223      0.000405      0.000000
     42 Si    c       0.000815     -0.000376      0.001275      0.000000
     43 Si    c       0.000182      0.000014      0.000232      0.000000
     44 Si    c       0.000095     -0.000546     -0.003556      0.000000
     45 Si    c       0.000022     -0.000087     -0.000100      0.000000
     46 Si    c       0.000013      0.000053     -0.000392      0.000000
     47 Si    c       0.000130      0.000043      0.000172      0.000000
     48 Si    c       0.000031      0.000052      0.000245      0.000000
     49 Si    c       0.000319     -0.000392      0.000765      0.000000
     50 Si    c       0.000298      0.000082     -0.000171      0.000000
     51 Si    c       0.000147      0.000104     -0.000160      0.000000
     52 Si    c       0.000136      0.000007     -0.000113      0.000000
     53 Ge    c       0.000331      0.000036      0.000450      0.000000
     54 Si    c      -0.000187      0.000188      0.000784      0.000000
     55 Si    c       0.000043      0.000050      0.000440      0.000000
     56 Si    c      -0.000079      0.001356     -0.000846      0.000000
     57 Si    c       0.000017      0.000064     -0.001938      0.000000
     58 Si    c       0.000216      0.000078     -0.000443      0.000000
     59 Si    c       0.000255      0.000053      0.000219      0.000000
     60 Si    c       0.000229      0.000166      0.000093      0.000000
     61 O2    c       0.000338     -0.000151      0.000102      0.000000
     62 O2    c       0.000211      0.000287      0.000039      0.000000
     63 O2    c       0.000131     -0.000042     -0.000036      0.000000
     64 O2    c       0.000225      0.000059      0.000097      0.000000
     65 O3    c       0.000344     -0.000546      0.000369      0.000000
     66 O2    c       0.000140      0.000148      0.000261      0.000000
     67 O3    c      -0.000007      0.000056     -0.000382      0.000000
     68 O2    c      -0.000044     -0.000045     -0.000151      0.000000
     69 O2    c      -0.000117      0.000580      0.000061      0.000000
     70 O2    c       0.000229      0.000289      0.000257      0.000000
     71 O2    c      -0.000490     -0.000284      0.001434      0.000000
     72 O2    c       0.000280      0.000129      0.000089      0.000000
     73 O3    c      -0.000511     -0.003718      0.002729      0.000000
     74 O2    c       0.000211     -0.000076      0.000019      0.000000
     75 O2    c       0.000210      0.000011     -0.000072      0.000000
     76 O2    c       0.000165     -0.000066      0.000044      0.000000
     77 O2    c      -0.000027     -0.000204     -0.000787      0.000000
     78 O2    c      -0.000149      0.000244     -0.000420      0.000000
     79 O2    c       0.001250     -0.000085      0.000201      0.000000
     80 O2    c      -0.000161      0.000335     -0.000090      0.000000
     81 O2    c       0.000145     -0.000109     -0.000181      0.000000
     82 O2    c       0.000313      0.000015     -0.000180      0.000000
     83 O3    c       0.000193      0.000023     -0.000283      0.000000
     84 O2    c       0.000141     -0.000195      0.000100      0.000000
     85 O2    c       0.000220      0.000340      0.000043      0.000000
     86 O2    c       0.002737     -0.002506     -0.001342      0.000000
     87 O2    c      -0.000152      0.000025      0.000046      0.000000
     88 O2    c       0.000157     -0.000144      0.000176      0.000000
     89 O2    c       0.000260      0.000053      0.000159      0.000000
     90 O2    c       0.000139     -0.000040      0.000390      0.000000
     91 O2    c       0.000238      0.000000     -0.000431      0.000000
     92 O2    c       0.000099      0.000093      0.000031      0.000000
     93 O2    c       0.000202     -0.000456     -0.002907      0.000000
     94 O3    c       0.000505     -0.000507      0.002035      0.000000
     95 O2    c      -0.000247      0.000882      0.004856      0.000000
     96 O2    c       0.000141      0.000045      0.000203      0.000000
     97 O2    c      -0.001606      0.001258      0.000228      0.000000
     98 O2    c       0.000154     -0.000421      0.000602      0.000000
     99 O2    c       0.000057     -0.000052      0.000123      0.000000
    100 O2    c       0.000100      0.000039      0.000298      0.000000
    101 O3    c       0.000189      0.000074      0.000052      0.000000
    102 O2    c       0.000156      0.000185      0.000134      0.000000
    103 O2    c       0.000512     -0.000183     -0.000362      0.000000
    104 O2    c      -0.002627      0.000528     -0.000827      0.000000
    105 O2    c       0.000063      0.000252     -0.000531      0.000000
    106 O2    c      -0.000282      0.000421     -0.000193      0.000000
    107 O2    c       0.000066      0.000105     -0.000217      0.000000
    108 O2    c       0.000158     -0.000028      0.000492      0.000000
    109 O2    c       0.000032      0.000161     -0.000009      0.000000
    110 O2    c      -0.000009     -0.000026      0.000132      0.000000
    111 O2    c       0.000129     -0.000013     -0.000183      0.000000
    112 O2    c       0.000156      0.000071     -0.000494      0.000000
    113 O3    c      -0.003419     -0.000861     -0.001453      0.000000
    114 O2    c       0.000079      0.000153      0.000007      0.000000
    115 O2    c      -0.001186      0.000421     -0.000325      0.000000
    116 O2    c       0.000116      0.000106     -0.000050      0.000000
    117 O2    c       0.000196     -0.000001     -0.000182      0.000000
    118 O2    c       0.000127     -0.000035     -0.000029      0.000000
    119 O2    c       0.000133      0.000010     -0.000137      0.000000
    120 O2    c       0.000537      0.000173      0.000396      0.000000
    121 O3    c       0.000298      0.000007      0.000065      0.000000
    122 O2    c       0.000007      0.000681     -0.000553      0.000000
    123 O2    c      -0.000007      0.000066      0.000100      0.000000
    124 O2    c      -0.000001     -0.000027      0.000305      0.000000
    125 O2    c       0.000263      0.000119      0.000167      0.000000
    126 O2    c       0.000156     -0.000103      0.000275      0.000000
    127 O3    c      -0.000143     -0.000294     -0.000601      0.000000
    128 O2    c       0.000088      0.000223      0.000056      0.000000
    129 O2    c       0.000195     -0.000057      0.000250      0.000000
    130 O2    c       0.000077      0.000003      0.000277      0.000000
    131 O2    c       0.000130      0.000150      0.000135      0.000000
    132 O2    c       0.000091      0.000136      0.000232      0.000000
    133 O2    c       0.000157      0.000159     -0.000091      0.000000
    134 O2    c       0.000518     -0.000233     -0.000194      0.000000
    135 O2    c       0.000043      0.000003     -0.000248      0.000000
    136 O2    c       0.000120      0.000094     -0.000031      0.000000
    137 O2    c       0.000217      0.000153     -0.000262      0.000000
    138 O2    c      -0.000122      0.000266      0.000182      0.000000
    139 O3    c      -0.001053     -0.001234     -0.001414      0.000000
    140 O2    c       0.000240      0.000126      0.000085      0.000000
    141 O2    c       0.000026      0.000012      0.000098      0.000000
    142 O2    c       0.000100      0.000050      0.000191      0.000000
    143 O2    c       0.000234     -0.000118      0.000164      0.000000
    144 O2    c       0.000083      0.000130      0.000185      0.000000
    145 O2    c      -0.000003      0.000166     -0.000116      0.000000
    146 O2    c       0.000191     -0.000022      0.000016      0.000000
    147 O2    c       0.000029     -0.000041     -0.000206      0.000000
    148 O2    c       0.000183      0.000037     -0.000111      0.000000
    149 O2    c       0.000134      0.000012     -0.000109      0.000000
    150 O2    c       0.000109     -0.000229      0.000453      0.000000
    151 O2    c       0.000100     -0.000140      0.000496      0.000000
    152 O2    c       0.000004      0.000154      0.000101      0.000000
    153 O2    c       0.000158     -0.000125      0.000282      0.000000
    154 O2    c       0.000162     -0.000041     -0.000055      0.000000
    155 O2    c       0.000106     -0.000021      0.000167      0.000000
    156 O2    c       0.000446     -0.000530     -0.001464      0.000000
    157 O2    c       0.000246      0.000123     -0.000086      0.000000
    158 O2    c      -0.000080      0.000718      0.001717      0.000000
    159 O2    c       0.000037      0.000095     -0.000324      0.000000
    160 O2    c       0.000056      0.000034      0.000282      0.000000
    161 O2    c       0.000110      0.000129     -0.000188      0.000000
    162 O2    c       0.000235     -0.000016     -0.000221      0.000000
    163 O2    c      -0.000138      0.000717      0.000003      0.000000
    164 O2    c       0.000282      0.000057     -0.000189      0.000000
    165 O2    c       0.000211     -0.000029     -0.000312      0.000000
    166 O2    c       0.000205      0.000164     -0.000133      0.000000
    167 O2    c       0.000039      0.000101     -0.000245      0.000000
    168 O2    c       0.000351     -0.000072      0.000384      0.000000
    169 O3    c       0.000370     -0.000051      0.000395      0.000000
    170 O2    c       0.000347     -0.000220     -0.000468      0.000000
    171 O2    c       0.000122     -0.000023      0.000121      0.000000
    172 O2    c       0.000214      0.000025      0.000469      0.000000
    173 O2    c       0.000209     -0.000040      0.000260      0.000000
    174 O2    c       0.000147     -0.000068      0.000231      0.000000
    175 O2    c       0.000147     -0.000015     -0.000013      0.000000
    176 O2    c       0.000271      0.000030     -0.000064      0.000000
    177 O2    c      -0.000085      0.000429     -0.002027      0.000000
    178 O2    c       0.000061      0.000030     -0.000212      0.000000
    179 O2    c       0.000554     -0.000006      0.000335      0.000000
    180 O3    c       0.000320     -0.000078      0.000562      0.000000
    181 F     c       0.000164      0.000071     -0.000044      0.000000
    182 F     c       0.000131      0.000007     -0.000028      0.000000
    183 F     c       0.000227     -0.000116      0.000151      0.000000
    184 F     c       0.000088      0.000015     -0.000088      0.000000
    185 F     c       0.000265      0.000216     -0.000748      0.000000
    186 F     c       0.000164      0.000134     -0.000073      0.000000
    187 O2    s       0.000840      0.000042     -0.000247      0.000000
    188 O2    s       0.000227      0.000347      0.000136      0.000000
    189 O2    s       0.000171     -0.000068     -0.000784      0.000000
    190 O2    s       0.000384     -0.000004      0.000113      0.000000
    191 O3    s       0.000267     -0.000032     -0.000357      0.000000
    192 O2    s       0.000187      0.000036      0.000295      0.000000
    193 O3    s       0.000612      0.000061     -0.000073      0.000000
    194 O2    s      -0.000057      0.000157     -0.000131      0.000000
    195 O2    s       0.000082     -0.000102     -0.000684      0.000000
    196 O2    s       0.000166      0.000133      0.000392      0.000000
    197 O2    s       0.000129     -0.000238      0.002269      0.000000
    198 O2    s       0.000152      0.000160      0.000031      0.000000
    199 O3    s       0.001199      0.002630      0.001938      0.000000
    200 O2    s       0.000301     -0.000236     -0.000003      0.000000
    201 O2    s       0.000067      0.000071      0.000006      0.000000
    202 O2    s       0.000176      0.000078     -0.000168      0.000000
    203 O2    s       0.000196      0.000061     -0.000041      0.000000
    204 O2    s       0.000117      0.000135     -0.000242      0.000000
    205 O2    s       0.001192      0.000132      0.000226      0.000000
    206 O2    s      -0.000082      0.000276     -0.000375      0.000000
    207 O2    s       0.000250     -0.000106     -0.000288      0.000000
    208 O2    s       0.000290     -0.000043     -0.000190      0.000000
    209 O3    s       0.000195     -0.000041      0.000003      0.000000
    210 O2    s       0.000128     -0.000096      0.001125      0.000000
    211 O2    s       0.000291      0.000239      0.000295      0.000000
    212 O2    s       0.001925     -0.001095     -0.002518      0.000000
    213 O2    s      -0.000165      0.000009     -0.000133      0.000000
    214 O2    s       0.000047      0.000015      0.000027      0.000000
    215 O2    s       0.000301      0.000012      0.000284      0.000000
    216 O2    s       0.000180      0.000081      0.000299      0.000000
    217 O2    s       0.000240      0.000261     -0.000277      0.000000
    218 O2    s       0.000213      0.000085     -0.000124      0.000000
    219 O2    s      -0.000052     -0.000477     -0.001640      0.000000
    220 O3    s      -0.000074      0.000202      0.000615      0.000000
    221 O2    s       0.000277      0.000894      0.002921      0.000000
    222 O2    s       0.000230     -0.000096      0.000199      0.000000
    223 O2    s      -0.001111      0.001076      0.000611      0.000000
    224 O2    s       0.000083     -0.000149      0.000645      0.000000
    225 O2    s       0.000110     -0.000082     -0.000025      0.000000
    226 O2    s       0.000170      0.000081      0.000200      0.000000
    227 O3    s      -0.000229      0.000264     -0.000474      0.000000
    228 O2    s       0.000092     -0.000034      0.000522      0.000000
    229 O2    s       0.000319     -0.000068     -0.000153      0.000000
    230 O2    s      -0.001745      0.000174     -0.001766      0.000000
    231 O2    s      -0.000025      0.000210     -0.000604      0.000000
    232 O2    s      -0.000176      0.000305     -0.000392      0.000000
    233 O2    s       0.000181      0.000050     -0.000106      0.000000
    234 O2    s       0.000126      0.000207      0.000637      0.000000
    235 O2    s       0.000325      0.000133     -0.000118      0.000000
    236 O2    s      -0.000013      0.000106      0.000063      0.000000
    237 O2    s       0.000111      0.000091     -0.000402      0.000000
    238 O2    s       0.000328     -0.000179     -0.000519      0.000000
    239 O3    s       0.002018      0.001053     -0.001894      0.000000
    240 O2    s       0.000076      0.000252      0.000112      0.000000
    241 O2    s      -0.000174      0.000181     -0.000034      0.000000
    242 O2    s       0.000094      0.000097     -0.000246      0.000000
    243 O2    s       0.000345     -0.000183     -0.000229      0.000000
    244 O2    s       0.000193      0.000052     -0.000188      0.000000
    245 O2    s       0.000232      0.000106     -0.000372      0.000000
    246 O2    s       0.000055      0.000328      0.000592      0.000000
    247 O3    s       0.000488     -0.000115      0.000636      0.000000
    248 O2    s       0.000271     -0.000083     -0.000616      0.000000
    249 O2    s       0.000021      0.000150      0.000173      0.000000
    250 O2    s       0.000321     -0.000159     -0.000367      0.000000
    251 O2    s       0.000162      0.000113      0.000373      0.000000
    252 O2    s       0.000295      0.000032      0.000393      0.000000
    253 O3    s       0.000367      0.000087      0.000268      0.000000
    254 O2    s       0.000056      0.000189      0.000281      0.000000
    255 O2    s       0.000237     -0.000122      0.000074      0.000000
    256 O2    s       0.000169      0.000011      0.000361      0.000000
    257 O2    s      -0.000042      0.000096     -0.000359      0.000000
    258 O2    s       0.000275      0.000112      0.000505      0.000000
    259 O2    s       0.000192      0.000216     -0.000296      0.000000
    260 O2    s       0.000055      0.000161      0.000443      0.000000
    261 O2    s      -0.000080      0.000097     -0.000267      0.000000
    262 O2    s       0.000101     -0.000055     -0.000389      0.000000
    263 O2    s       0.000147      0.000123     -0.000230      0.000000
    264 O2    s       0.000243     -0.000131      0.000467      0.000000
    265 O3    s       0.000151     -0.000637      0.001238      0.000000
    266 O2    s       0.000203      0.000218      0.000299      0.000000
    267 O2    s       0.000003      0.000043      0.000233      0.000000
    268 O2    s       0.000084      0.000133      0.000308      0.000000
    269 O2    s       0.000064      0.000141     -0.000405      0.000000
    270 O2    s       0.000237      0.000241      0.000276      0.000000
    271 O2    s       0.000075      0.000104     -0.000611      0.000000
    272 O2    s       0.000068      0.000342     -0.000317      0.000000
    273 O2    s       0.000117     -0.000135     -0.000427      0.000000
    274 O2    s       0.000188     -0.000290     -0.000106      0.000000
    275 O2    s       0.000216      0.000024     -0.000095      0.000000
    276 O2    s      -0.000332      0.000098      0.001217      0.000000
    277 O2    s      -0.000070      0.000293      0.000167      0.000000
    278 O2    s       0.000109      0.000050      0.000023      0.000000
    279 O2    s       0.000336     -0.000151      0.000036      0.000000
    280 O2    s       0.000156      0.000081     -0.000144      0.000000
    281 O2    s       0.000382     -0.000170      0.000070      0.000000
    282 O2    s      -0.000479      0.000491     -0.000356      0.000000
    283 O2    s       0.000334      0.000135     -0.000035      0.000000
    284 O2    s       0.000165     -0.000060      0.001314      0.000000
    285 O2    s      -0.000018      0.000071     -0.000170      0.000000
    286 O2    s       0.000176     -0.000113      0.000078      0.000000
    287 O2    s       0.000018      0.000174      0.000000      0.000000
    288 O2    s       0.000414      0.000088     -0.000043      0.000000
    289 O2    s       0.000208     -0.000594     -0.000304      0.000000
    290 O2    s       0.000178      0.000117     -0.000443      0.000000
    291 O2    s       0.000121      0.000008     -0.000441      0.000000
    292 O2    s       0.000334      0.000045     -0.000403      0.000000
    293 O2    s       0.000167      0.000051     -0.000201      0.000000
    294 O2    s       0.000325     -0.000132     -0.000214      0.000000
    295 O3    s       0.000449     -0.000079      0.000952      0.000000
    296 O2    s      -0.000221     -0.000086      0.000325      0.000000
    297 O2    s       0.000202     -0.000058      0.000230      0.000000
    298 O2    s       0.000266     -0.000024     -0.000660      0.000000
    299 O2    s       0.000301     -0.000016      0.000371      0.000000
    300 O2    s       0.000156      0.000051      0.000185      0.000000
    301 O2    s       0.000155     -0.000019      0.000012      0.000000
    302 O2    s       0.000355     -0.000075      0.000050      0.000000
    303 O2    s       0.000743      0.000033     -0.001019      0.000000
    304 O2    s       0.000168      0.000210     -0.000136      0.000000
    305 O2    s      -0.000105      0.000009      0.000960      0.000000
    306 O3    s       0.000514      0.000013      0.000401      0.000000
    307 F     s       0.000175      0.000016     -0.000151      0.000000
    308 F     s       0.000109     -0.000009      0.000009      0.000000
    309 F     s       0.000045      0.000177      0.000396      0.000000
    310 F     s       0.000158      0.000032     -0.000282      0.000000
    311 F     s      -0.000549     -0.000195     -0.000798      0.000000
    312 F     s       0.000085      0.000152     -0.000364      0.000000
--------------------------------------------------------------------------------
  Maximum abs         0.003419      0.003718      0.007839      0.000000
--------------------------------------------------------------------------------


  Time to end of optimisation =      47.3804 seconds


  Peak dynamic memory used =      19.13 MB 


  Timing analysis for GULP :

--------------------------------------------------------------------------------
  Task / Subroutine                                          Time (Seconds)
--------------------------------------------------------------------------------
  Calculation of reciprocal space energy and derivatives          1.3045
  Calculation of real space energy and derivatives               41.0793
  Calculation of three-body energy and derivatives                4.1647
  Calculation of matrix inversion                                 0.7444
--------------------------------------------------------------------------------
  Total CPU time                                                 47.3804
--------------------------------------------------------------------------------


  Dump file written as out.res                                                 
  CIF file written as out.cif                                                 


  Job Finished at 16:26.51  1st November   2016                               

