********************************************************************************
*                       GENERAL UTILITY LATTICE PROGRAM                        *
*                                 Julian Gale                                  *
*                      Nanochemistry Research Institute                        *
*                           Department of Chemistry                            *
*                    Curtin University, Western Australia                      *
********************************************************************************
* Version = 4.2.0 * Last modified =  20th January 2014                         *
********************************************************************************
*  optimise     - perform optimisation run                                     *
*  conp         - constant pressure calculation                                *
*  qok          - running with non charge neutral cell is OK                   *
********************************************************************************

  Job Started  at 15:18.59  3rd November   2016                               

  Number of CPUs =     1


  Total number of configurations input =   1

********************************************************************************
*  Input for Configuration =   1                                               *
********************************************************************************

  Formula = Ge3Si57O120F6                                               

  Number of irreducible atoms/shells =     312


  Total number atoms/shells =     312

  Dimensionality = 3               :  Bulk   


  Charge on solid   =  -6.000000 =>neutralising background added


  Cartesian lattice vectors (Angstroms) :

       11.944907    0.000000    0.000000
       -6.123531   10.389806    0.000000
       -0.096847   -0.160788   29.442632

  Cell parameters (Angstroms/Degrees):

  a =      11.9449    alpha =  90.1739
  b =      12.0601    beta  =  90.1885
  c =      29.4432    gamma = 120.5142

  Initial cell volume =        3653.985560 Angs**3

  Temperature of configuration =  0.000     K 

  Pressure of configuration =         0.000 GPa 

  Fractional coordinates of asymmetric unit :

--------------------------------------------------------------------------------
   No.  Atomic       x           y          z         Charge      Occupancy
        Label      (Frac)      (Frac)     (Frac)        (e)         (Frac)  
--------------------------------------------------------------------------------
      1 Ge    c    0.699600    0.375700    0.033890     4.00000    1.000000    
      2 Si    c    0.630068 *  0.319744 *  0.363490 *   4.00000    1.000000    
      3 Si    c    0.677360 *  0.298115 *  0.701747 *   4.00000    1.000000    
      4 Si    c    0.299053 *  0.622279 *  0.528322 *   4.00000    1.000000    
      5 Si    c    0.378555 *  0.674233 *  0.862633 *   4.00000    1.000000    
      6 Si    c    0.317583 *  0.704994 *  0.196191 *   4.00000    1.000000    
      7 Si    c    0.366972 *  0.695861 *  0.296907 *   4.00000    1.000000    
      8 Si    c    0.320295 *  0.621870 *  0.962817 *   4.00000    1.000000    
      9 Si    c    0.298456 *  0.677907 *  0.630589 *   4.00000    1.000000    
     10 Si    c    0.621624 *  0.295405 *  0.802328 *   4.00000    1.000000    
     11 Si    c    0.688151 *  0.382314 *  0.466447 *   4.00000    1.000000    
     12 Si    c    0.687567 *  0.317881 *  0.132921 *   4.00000    1.000000    
     13 Si    c    0.528249 *  0.417738 *  0.967407 *   4.00000    1.000000    
     14 Si    c    0.581983 *  0.101209 *  0.302173 *   4.00000    1.000000    
     15 Si    c    0.876812 *  0.468797 *  0.634232 *   4.00000    1.000000    
     16 Si    c    0.474042 *  0.586967 *  0.462698 *   4.00000    1.000000    
     17 Si    c    0.414838 *  0.884108 *  0.798697 *   4.00000    1.000000    
     18 Si    c    0.108275 *  0.533233 *  0.128612 *   4.00000    1.000000    
     19 Si    c    0.412860 *  0.530090 *  0.359512 *   4.00000    1.000000    
     20 Si    c    0.103900 *  0.582416 *  0.025424 *   4.00000    1.000000    
     21 Si    c    0.468815 *  0.889089 *  0.697133 *   4.00000    1.000000    
     22 Si    c    0.582842 *  0.469624 *  0.865490 *   4.00000    1.000000    
     23 Ge    c    0.905311 *  0.433815 *  0.534996 *   4.00000    1.000000    
     24 Si    c    0.530607 *  0.111309 *  0.201401 *   4.00000    1.000000    
     25 Si    c    0.301832 *  0.397956 *  0.848768 *   4.00000    1.000000    
     26 Si    c    0.599855 *  0.904323 *  0.183791 *   4.00000    1.000000    
     27 Si    c    0.098462 *  0.705985 *  0.511307 *   4.00000    1.000000    
     28 Ge    c    0.687449 *  0.587457 *  0.354558 *   4.00000    1.000000    
     29 Si    c    0.398656 *  0.096604 *  0.684693 *   4.00000    1.000000    
     30 Si    c    0.889987 *  0.294854 *  0.010977 *   4.00000    1.000000    
     31 Si    c    0.403548 *  0.304317 *  0.478326 *   4.00000    1.000000    
     32 Si    c    0.893737 *  0.603851 *  0.142460 *   4.00000    1.000000    
     33 Si    c    0.698117 *  0.094338 *  0.814457 *   4.00000    1.000000    
     34 Si    c    0.599079 *  0.698824 *  0.979405 *   4.00000    1.000000    
     35 Si    c    0.092025 *  0.396558 *  0.646145 *   4.00000    1.000000    
     36 Si    c    0.296076 *  0.898571 *  0.314099 *   4.00000    1.000000    
     37 Si    c    0.249045 *  0.342384 *  0.949102 *   4.00000    1.000000    
     38 Si    c    0.654917 *  0.899767 *  0.284527 *   4.00000    1.000000    
     39 Si    c    0.083768 *  0.748877 *  0.614631 *   4.00000    1.000000    
     40 Si    c    0.759030 *  0.667254 *  0.450961 *   4.00000    1.000000    
     41 Si    c    0.338604 *  0.085243 *  0.785209 *   4.00000    1.000000    
     42 Si    c    0.903763 *  0.250385 *  0.113869 *   4.00000    1.000000    
     43 Si    c    0.342415 *  0.250926 *  0.376443 *   4.00000    1.000000    
     44 Si    c    0.899092 *  0.660557 *  0.039735 *   4.00000    1.000000    
     45 Si    c    0.749240 *  0.090572 *  0.713509 *   4.00000    1.000000    
     46 Si    c    0.659821 *  0.747172 *  0.878686 *   4.00000    1.000000    
     47 Si    c    0.085334 *  0.334900 *  0.543951 *   4.00000    1.000000    
     48 Si    c    0.247691 *  0.912311 *  0.213430 *   4.00000    1.000000    
     49 Si    c    0.971218 *  0.121626 *  0.963977 *   4.00000    1.000000    
     50 Si    c    0.871847 *  0.835330 *  0.299040 *   4.00000    1.000000    
     51 Si    c    0.152207 *  0.030022 *  0.631818 *   4.00000    1.000000    
     52 Si    c    0.035825 *  0.887465 *  0.464529 *   4.00000    1.000000    
     53 Si    c    0.122308 *  0.149177 *  0.797727 *   4.00000    1.000000    
     54 Si    c    0.847656 *  0.974166 *  0.131748 *   4.00000    1.000000    
     55 Si    c    0.118704 *  0.970522 *  0.362739 *   4.00000    1.000000    
     56 Si    c    0.848396 *  0.882671 *  0.030326 *   4.00000    1.000000    
     57 Si    c    0.029176 *  0.150663 *  0.696529 *   4.00000    1.000000    
     58 Si    c    0.879073 *  0.025623 *  0.863381 *   4.00000    1.000000    
     59 Si    c    0.159119 *  0.125577 *  0.530792 *   4.00000    1.000000    
     60 Si    c    0.967064 *  0.851242 *  0.196813 *   4.00000    1.000000    
     61 O2    c    0.927021 *  0.005898 *  0.998837 *   0.87073    1.000000    
     62 O2    c    0.999688 *  0.929490 *  0.328981 *   0.87073    1.000000    
     63 O2    c    0.068496 *  0.071793 *  0.662430 *   0.87073    1.000000    
     64 O2    c    0.077493 *  0.008527 *  0.497004 *   0.87073    1.000000    
     65 O2    c    0.997607 *  0.069162 *  0.828988 *   0.87073    1.000000    
     66 O2    c    0.929440 *  0.936216 *  0.165052 *   0.87073    1.000000    
     67 O2    c    0.325236 *  0.571814 *  0.329323 *   0.87073    1.000000    
     68 O2    c    0.420203 *  0.764636 *  0.663639 *   0.87073    1.000000    
     69 O2    c    0.232276 *  0.658985 *  0.994279 *   0.87073    1.000000    
     70 O2    c    0.660403 *  0.418210 *  0.834726 *   0.87073    1.000000    
     71 O2    c    0.581507 *  0.240726 *  0.171917 *   0.87073    1.000000    
     72 O3    c    0.767146 *  0.345780 *  0.499186 *   1.33043    1.000000    
     73 O3    c    0.564888 *  0.336361 *  0.999436 *   1.33043    1.000000    
     74 O2    c    0.763948 *  0.426610 *  0.671981 *   0.87073    1.000000    
     75 O2    c    0.661223 *  0.221889 *  0.336298 *   0.87073    1.000000    
     76 O2    c    0.422312 *  0.659009 *  0.496097 *   0.87073    1.000000    
     77 O2    c    0.233595 *  0.585003 *  0.161428 *   0.87073    1.000000    
     78 O2    c    0.338704 *  0.757275 *  0.829864 *   0.87073    1.000000    
     79 O2    c    0.125438 *  0.215049 *  0.969953 *   0.87073    1.000000    
     80 O2    c    0.777068 *  0.894964 *  0.305229 *   0.87073    1.000000    
     81 O2    c    0.089119 *  0.875820 *  0.635927 *   0.87073    1.000000    
     82 O2    c    0.884181 *  0.789737 *  0.475190 *   0.87073    1.000000    
     83 O2    c    0.211453 *  0.084893 *  0.804521 *   0.87073    1.000000    
     84 O2    c    0.908729 *  0.128645 *  0.134797 *   0.87073    1.000000    
     85 O2    c    0.215570 *  0.124100 *  0.356775 *   0.87073    1.000000    
     86 O2    c    0.916422 *  0.797801 *  0.023782 *   0.87073    1.000000    
     87 O2    c    0.873881 *  0.088484 *  0.692597 *   0.87073    1.000000    
     88 O2    c    0.787465 *  0.871816 *  0.857996 *   0.87073    1.000000    
     89 O2    c    0.097717 *  0.215710 *  0.525995 *   0.87073    1.000000    
     90 O2    c    0.122867 *  0.914942 *  0.192949 *   0.87073    1.000000    
     91 O2    c    0.921920 *  0.854612 *  0.247129 *   0.87073    1.000000    
     92 O2    c    0.146303 *  0.070626 *  0.580837 *   0.87073    1.000000    
     93 O2    c    0.935909 *  0.063261 *  0.913672 *   0.87073    1.000000    
     94 O2    c    0.073484 *  0.137012 *  0.746257 *   0.87073    1.000000    
     95 O2    c    0.859272 *  0.931418 *  0.081559 *   0.87073    1.000000    
     96 O2    c    0.064928 *  0.938136 *  0.413592 *   0.87073    1.000000    
     97 O2    c    0.901021 *  0.202923 *  0.973201 *   0.87073    1.000000    
     98 O3    c    0.799995 *  0.690662 *  0.312104 *   1.33043    1.000000    
     99 O2    c    0.302934 *  0.100476 *  0.646233 *   0.87073    1.000000    
    100 O2    c    0.118048 *  0.817507 *  0.475804 *   0.87073    1.000000    
    101 O2    c    0.204990 *  0.300363 *  0.809648 *   0.87073    1.000000    
    102 O2    c    0.695863 *  0.904566 *  0.144744 *   0.87073    1.000000    
    103 O2    c    0.199420 *  0.898549 *  0.352800 *   0.87073    1.000000    
    104 O2    c    0.695515 *  0.798241 *  0.018028 *   0.87073    1.000000    
    105 O2    c    0.096601 *  0.302204 *  0.684387 *   0.87073    1.000000    
    106 O2    c    0.795838 *  0.094366 *  0.852780 *   0.87073    1.000000    
    107 O2    c    0.310975 *  0.209391 *  0.517891 *   0.87073    1.000000    
    108 O2    c    0.898293 *  0.702371 *  0.180785 *   0.87073    1.000000    
    109 O2    c    0.312769 *  0.642449 *  0.245698 *   0.87073    1.000000    
    110 O2    c    0.349527 *  0.675182 *  0.579773 *   0.87073    1.000000    
    111 O2    c    0.319463 *  0.676371 *  0.912268 *   0.87073    1.000000    
    112 O2    c    0.677057 *  0.352651 *  0.752169 *   0.87073    1.000000    
    113 O3    c    0.614973 *  0.303232 *  0.085807 *   1.33043    1.000000    
    114 O2    c    0.684716 *  0.330221 *  0.415053 *   0.87073    1.000000    
    115 O2    c    0.370278 *  0.332499 *  0.967201 *   0.87073    1.000000    
    116 O2    c    0.668011 *  0.032119 *  0.303714 *   0.87073    1.000000    
    117 O2    c    0.951937 *  0.626882 *  0.633496 *   0.87073    1.000000    
    118 O2    c    0.630678 *  0.674576 *  0.466014 *   0.87073    1.000000    
    119 O2    c    0.326895 *  0.951790 *  0.801964 *   0.87073    1.000000    
    120 O2    c    0.036952 *  0.377790 *  0.130191 *   0.87073    1.000000    
    121 O2    c    0.332504 *  0.372734 *  0.358792 *   0.87073    1.000000    
    122 O2    c    0.032722 *  0.665988 *  0.023399 *   0.87073    1.000000    
    123 O2    c    0.625847 *  0.959075 *  0.693842 *   0.87073    1.000000    
    124 O2    c    0.669798 *  0.625278 *  0.860637 *   0.87073    1.000000    
    125 O3    c    0.954776 *  0.317787 *  0.524424 *   1.33043    1.000000    
    126 O2    c    0.373576 *  0.043813 *  0.196260 *   0.87073    1.000000    
    127 O3    c    0.754919 *  0.284971 *  0.001966 *   1.33043    1.000000    
    128 O3    c    0.704104 *  0.454434 *  0.338367 *   1.33043    1.000000    
    129 O2    c    0.534682 *  0.229796 *  0.677627 *   0.87073    1.000000    
    130 O2    c    0.230449 *  0.697509 *  0.507991 *   0.87073    1.000000    
    131 O2    c    0.304207 *  0.531646 *  0.839363 *   0.87073    1.000000    
    132 O2    c    0.461939 *  0.773738 *  0.174247 *   0.87073    1.000000    
    133 O2    c    0.291771 *  0.762958 *  0.319438 *   0.87073    1.000000    
    134 O2    c    0.464359 *  0.699512 *  0.985551 *   0.87073    1.000000    
    135 O2    c    0.226425 *  0.533371 *  0.650728 *   0.87073    1.000000    
    136 O2    c    0.697489 *  0.226731 *  0.823069 *   0.87073    1.000000    
    137 O2    c    0.538131 *  0.307951 *  0.484256 *   0.87073    1.000000    
    138 O2    c    0.761924 *  0.467909 *  0.150512 *   0.87073    1.000000    
    139 O3    c    0.771675 *  0.546115 *  0.018730 *   1.33043    1.000000    
    140 O2    c    0.471688 *  0.254692 *  0.359307 *   0.87073    1.000000    
    141 O2    c    0.753485 *  0.218842 *  0.695267 *   0.87073    1.000000    
    142 O2    c    0.211221 *  0.467587 *  0.526153 *   0.87073    1.000000    
    143 O2    c    0.535980 *  0.750690 *  0.858192 *   0.87073    1.000000    
    144 O2    c    0.242352 *  0.785135 *  0.192701 *   0.87073    1.000000    
    145 O2    c    0.523430 *  0.776582 *  0.302548 *   0.87073    1.000000    
    146 O2    c    0.246028 *  0.466613 *  0.968279 *   0.87073    1.000000    
    147 O2    c    0.207129 *  0.740256 *  0.632055 *   0.87073    1.000000    
    148 O2    c    0.464699 *  0.209367 *  0.806318 *   0.87073    1.000000    
    149 O2    c    0.748351 *  0.537169 *  0.470332 *   0.87073    1.000000    
    150 O2    c    0.781233 *  0.255262 *  0.133582 *   0.87073    1.000000    
    151 O2    c    0.226931 *  0.324566 *  0.894616 *   0.87073    1.000000    
    152 O2    c    0.672010 *  0.901626 *  0.229926 *   0.87073    1.000000    
    153 O2    c    0.086713 *  0.764009 *  0.560399 *   0.87073    1.000000    
    154 O3    c    0.790196 *  0.693480 *  0.398435 *   1.33043    1.000000    
    155 O2    c    0.322927 *  0.090648 *  0.730830 *   0.87073    1.000000    
    156 O2    c    0.898861 *  0.233903 *  0.059496 *   0.87073    1.000000    
    157 O2    c    0.331061 *  0.239237 *  0.431104 *   0.87073    1.000000    
    158 O2    c    0.895293 *  0.669932 *  0.095042 *   0.87073    1.000000    
    159 O2    c    0.768508 *  0.091284 *  0.767815 *   0.87073    1.000000    
    160 O2    c    0.676548 *  0.767260 *  0.933097 *   0.87073    1.000000    
    161 O2    c    0.085856 *  0.325476 *  0.599095 *   0.87073    1.000000    
    162 O2    c    0.228233 *  0.908648 *  0.267792 *   0.87073    1.000000    
    163 O2    c    0.580064 *  0.559615 *  0.989442 *   0.87073    1.000000    
    164 O2    c    0.438844 *  0.019190 *  0.324622 *   0.87073    1.000000    
    165 O2    c    0.971449 *  0.417909 *  0.653843 *   0.87073    1.000000    
    166 O2    c    0.421398 *  0.445320 *  0.483789 *   0.87073    1.000000    
    167 O2    c    0.556941 *  0.969193 *  0.821986 *   0.87073    1.000000    
    168 O2    c    0.016760 *  0.584108 *  0.148282 *   0.87073    1.000000    
    169 O3    c    0.549232 *  0.591707 *  0.334587 *   1.33043    1.000000    
    170 O2    c    0.013928 *  0.439756 *  0.004582 *   0.87073    1.000000    
    171 O2    c    0.408108 *  0.969634 *  0.674317 *   0.87073    1.000000    
    172 O2    c    0.441128 *  0.409320 *  0.841290 *   0.87073    1.000000    
    173 O3    c    0.972753 *  0.574546 *  0.499119 *   1.33043    1.000000    
    174 O2    c    0.590976 *  0.032433 *  0.176739 *   0.87073    1.000000    
    175 O2    c    0.583363 *  0.160759 *  0.252578 *   0.87073    1.000000    
    176 O3    c    0.813218 *  0.411519 *  0.586176 *   1.33043    1.000000    
    177 O2    c    0.584094 *  0.421698 *  0.916514 *   0.87073    1.000000    
    178 O2    c    0.414759 *  0.832827 *  0.747355 *   0.87073    1.000000    
    179 O2    c    0.152303 *  0.580949 *  0.077038 *   0.87073    1.000000    
    180 O2    c    0.419725 *  0.582566 *  0.411796 *   0.87073    1.000000    
    181 F     c    0.447278 *  0.902377 *  0.247735 *   0.56000    1.000000    
    182 F     c    0.053398 *  0.525994 *  0.571195 *   0.56000    1.000000    
    183 F     c    0.448723 *  0.550640 *  0.912344 *   0.56000    1.000000    
    184 F     c    0.546858 *  0.093314 *  0.747742 *   0.56000    1.000000    
    185 F     c    0.853565 *  0.436380 *  0.069209 *   0.56000    1.000000    
    186 F     c    0.577070 *  0.482637 *  0.402629 *   0.56000    1.000000    
    187 O2    s    0.923115 *  0.005107 *  0.998435 *  -2.87073    1.000000    
    188 O2    s    0.000013 *  0.924346 *  0.329732 *  -2.87073    1.000000    
    189 O2    s    0.073355 *  0.075805 *  0.662799 *  -2.87073    1.000000    
    190 O2    s    0.082330 *  0.008415 *  0.497238 *  -2.87073    1.000000    
    191 O2    s    0.998440 *  0.073340 *  0.829290 *  -2.87073    1.000000    
    192 O2    s    0.924512 *  0.931277 *  0.164803 *  -2.87073    1.000000    
    193 O2    s    0.337997 *  0.580064 *  0.329047 *  -2.87073    1.000000    
    194 O2    s    0.412030 *  0.767779 *  0.663432 *  -2.87073    1.000000    
    195 O2    s    0.227808 *  0.647207 *  0.994317 *  -2.87073    1.000000    
    196 O2    s    0.648465 *  0.410471 *  0.834423 *  -2.87073    1.000000    
    197 O2    s    0.587301 *  0.235192 *  0.170910 *  -2.87073    1.000000    
    198 O3    s    0.767857 *  0.355959 *  0.498009 *  -3.33043    1.000000    
    199 O3    s    0.571211 *  0.347957 *  0.998681 *  -3.33043    1.000000    
    200 O2    s    0.766668 *  0.417712 *  0.671171 *  -2.87073    1.000000    
    201 O2    s    0.649624 *  0.219427 *  0.335568 *  -2.87073    1.000000    
    202 O2    s    0.414604 *  0.647838 *  0.496101 *  -2.87073    1.000000    
    203 O2    s    0.228674 *  0.591540 *  0.161439 *  -2.87073    1.000000    
    204 O2    s    0.350732 *  0.762187 *  0.829906 *  -2.87073    1.000000    
    205 O2    s    0.121518 *  0.218170 *  0.967147 *  -2.87073    1.000000    
    206 O2    s    0.773329 *  0.889470 *  0.302382 *  -2.87073    1.000000    
    207 O2    s    0.095182 *  0.878895 *  0.633320 *  -2.87073    1.000000    
    208 O2    s    0.887740 *  0.787855 *  0.471707 *  -2.87073    1.000000    
    209 O2    s    0.215250 *  0.091688 *  0.801814 *  -2.87073    1.000000    
    210 O2    s    0.901876 *  0.125209 *  0.132337 *  -2.87073    1.000000    
    211 O2    s    0.219013 *  0.121607 *  0.359465 *  -2.87073    1.000000    
    212 O2    s    0.907361 *  0.793158 *  0.026061 *  -2.87073    1.000000    
    213 O2    s    0.877669 *  0.095360 *  0.695135 *  -2.87073    1.000000    
    214 O2    s    0.784141 *  0.875454 *  0.860674 *  -2.87073    1.000000    
    215 O2    s    0.103342 *  0.218619 *  0.528486 *  -2.87073    1.000000    
    216 O2    s    0.119416 *  0.907958 *  0.195452 *  -2.87073    1.000000    
    217 O2    s    0.921875 *  0.852180 *  0.246732 *  -2.87073    1.000000    
    218 O2    s    0.148446 *  0.072278 *  0.580948 *  -2.87073    1.000000    
    219 O2    s    0.933371 *  0.065487 *  0.913555 *  -2.87073    1.000000    
    220 O2    s    0.073849 *  0.139918 *  0.746286 *  -2.87073    1.000000    
    221 O2    s    0.856748 *  0.930859 *  0.081524 *  -2.87073    1.000000    
    222 O2    s    0.067646 *  0.936012 *  0.413754 *  -2.87073    1.000000    
    223 O2    s    0.907545 *  0.203508 *  0.976098 *  -2.87073    1.000000    
    224 O3    s    0.800816 *  0.700363 *  0.313356 *  -3.33043    1.000000    
    225 O2    s    0.296397 *  0.092434 *  0.648620 *  -2.87073    1.000000    
    226 O2    s    0.107666 *  0.813491 *  0.478233 *  -2.87073    1.000000    
    227 O2    s    0.205886 *  0.293950 *  0.812316 *  -2.87073    1.000000    
    228 O2    s    0.702232 *  0.911962 *  0.147343 *  -2.87073    1.000000    
    229 O2    s    0.200857 *  0.906031 *  0.349886 *  -2.87073    1.000000    
    230 O2    s    0.701781 *  0.797001 *  0.015368 *  -2.87073    1.000000    
    231 O2    s    0.089167 *  0.296214 *  0.681712 *  -2.87073    1.000000    
    232 O2    s    0.794465 *  0.087096 *  0.849922 *  -2.87073    1.000000    
    233 O2    s    0.304465 *  0.210408 *  0.515146 *  -2.87073    1.000000    
    234 O2    s    0.905010 *  0.707636 *  0.178420 *  -2.87073    1.000000    
    235 O2    s    0.318684 *  0.654172 *  0.245810 *  -2.87073    1.000000    
    236 O2    s    0.339210 *  0.670139 *  0.579832 *  -2.87073    1.000000    
    237 O2    s    0.325560 *  0.670540 *  0.912358 *  -2.87073    1.000000    
    238 O2    s    0.671307 *  0.340946 *  0.752084 *  -2.87073    1.000000    
    239 O3    s    0.627940 *  0.309511 *  0.087094 *  -3.33043    1.000000    
    240 O2    s    0.679566 *  0.334566 *  0.415026 *  -2.87073    1.000000    
    241 O2    s    0.372948 *  0.342389 *  0.965179 *  -2.87073    1.000000    
    242 O2    s    0.657568 *  0.025553 *  0.301525 *  -2.87073    1.000000    
    243 O2    s    0.958635 *  0.624505 *  0.631556 *  -2.87073    1.000000    
    244 O2    s    0.626746 *  0.664681 *  0.464173 *  -2.87073    1.000000    
    245 O2    s    0.337090 *  0.958796 *  0.799859 *  -2.87073    1.000000    
    246 O2    s    0.030593 *  0.380811 *  0.128333 *  -2.87073    1.000000    
    247 O2    s    0.341577 *  0.375685 *  0.360725 *  -2.87073    1.000000    
    248 O2    s    0.026981 *  0.656582 *  0.025231 *  -2.87073    1.000000    
    249 O2    s    0.622312 *  0.965463 *  0.696232 *  -2.87073    1.000000    
    250 O2    s    0.659809 *  0.622002 *  0.863024 *  -2.87073    1.000000    
    251 O3    s    0.965668 *  0.327357 *  0.527276 *  -3.33043    1.000000    
    252 O2    s    0.376300 *  0.036748 *  0.198614 *  -2.87073    1.000000    
    253 O3    s    0.765563 *  0.291952 *  0.005103 *  -3.33043    1.000000    
    254 O3    s    0.695286 *  0.449957 *  0.342141 *  -3.33043    1.000000    
    255 O2    s    0.534856 *  0.222629 *  0.680876 *  -2.87073    1.000000    
    256 O2    s    0.224500 *  0.690381 *  0.510508 *  -2.87073    1.000000    
    257 O2    s    0.311555 *  0.532236 *  0.842750 *  -2.87073    1.000000    
    258 O2    s    0.461355 *  0.780243 *  0.177547 *  -2.87073    1.000000    
    259 O2    s    0.299911 *  0.770330 *  0.316511 *  -2.87073    1.000000    
    260 O2    s    0.463411 *  0.691437 *  0.982532 *  -2.87073    1.000000    
    261 O2    s    0.219991 *  0.534266 *  0.648130 *  -2.87073    1.000000    
    262 O2    s    0.689738 *  0.219888 *  0.819993 *  -2.87073    1.000000    
    263 O2    s    0.537866 *  0.314976 *  0.481789 *  -2.87073    1.000000    
    264 O2    s    0.768630 *  0.467674 *  0.147885 *  -2.87073    1.000000    
    265 O3    s    0.781320 *  0.548274 *  0.021906 *  -3.33043    1.000000    
    266 O2    s    0.472949 *  0.260772 *  0.361576 *  -2.87073    1.000000    
    267 O2    s    0.745184 *  0.213098 *  0.697851 *  -2.87073    1.000000    
    268 O2    s    0.207843 *  0.470850 *  0.528178 *  -2.87073    1.000000    
    269 O2    s    0.532881 *  0.742261 *  0.860826 *  -2.87073    1.000000    
    270 O2    s    0.250815 *  0.790232 *  0.195241 *  -2.87073    1.000000    
    271 O2    s    0.520989 *  0.781479 *  0.300010 *  -2.87073    1.000000    
    272 O2    s    0.254141 *  0.469586 *  0.965689 *  -2.87073    1.000000    
    273 O2    s    0.203646 *  0.734356 *  0.630030 *  -2.87073    1.000000    
    274 O2    s    0.467437 *  0.204753 *  0.803624 *  -2.87073    1.000000    
    275 O2    s    0.743173 *  0.535316 *  0.467859 *  -2.87073    1.000000    
    276 O2    s    0.785489 *  0.261074 *  0.131323 *  -2.87073    1.000000    
    277 O2    s    0.237061 *  0.334139 *  0.895467 *  -2.87073    1.000000    
    278 O2    s    0.662529 *  0.901697 *  0.230739 *  -2.87073    1.000000    
    279 O2    s    0.087487 *  0.756645 *  0.561520 *  -2.87073    1.000000    
    280 O3    s    0.779933 *  0.683512 *  0.400910 *  -3.33043    1.000000    
    281 O2    s    0.332603 *  0.090684 *  0.731688 *  -2.87073    1.000000    
    282 O2    s    0.898454 *  0.241672 *  0.060538 *  -2.87073    1.000000    
    283 O2    s    0.339979 *  0.247429 *  0.430421 *  -2.87073    1.000000    
    284 O2    s    0.895381 *  0.661658 *  0.094708 *  -2.87073    1.000000    
    285 O2    s    0.759163 *  0.091523 *  0.766850 *  -2.87073    1.000000    
    286 O2    s    0.666770 *  0.758071 *  0.932109 *  -2.87073    1.000000    
    287 O2    s    0.086445 *  0.334116 *  0.598577 *  -2.87073    1.000000    
    288 O2    s    0.237374 *  0.907973 *  0.266870 *  -2.87073    1.000000    
    289 O2    s    0.576566 *  0.560397 *  0.986061 *  -2.87073    1.000000    
    290 O2    s    0.438282 *  0.014498 *  0.321133 *  -2.87073    1.000000    
    291 O2    s    0.975630 *  0.420721 *  0.651038 *  -2.87073    1.000000    
    292 O2    s    0.425092 *  0.445054 *  0.480985 *  -2.87073    1.000000    
    293 O2    s    0.557313 *  0.974019 *  0.818701 *  -2.87073    1.000000    
    294 O2    s    0.013333 *  0.580596 *  0.145528 *  -2.87073    1.000000    
    295 O3    s    0.545066 *  0.584819 *  0.338606 *  -3.33043    1.000000    
    296 O2    s    0.010733 *  0.440280 *  0.007471 *  -2.87073    1.000000    
    297 O2    s    0.413537 *  0.974729 *  0.677782 *  -2.87073    1.000000    
    298 O2    s    0.440908 *  0.414505 *  0.844590 *  -2.87073    1.000000    
    299 O3    s    0.982141 *  0.579584 *  0.502766 *  -3.33043    1.000000    
    300 O2    s    0.585554 *  0.026722 *  0.180028 *  -2.87073    1.000000    
    301 O2    s    0.577602 *  0.149306 *  0.252349 *  -2.87073    1.000000    
    302 O3    s    0.825968 *  0.419001 *  0.587830 *  -3.33043    1.000000    
    303 O2    s    0.578384 *  0.426526 *  0.916173 *  -2.87073    1.000000    
    304 O2    s    0.420440 *  0.843977 *  0.747299 *  -2.87073    1.000000    
    305 O2    s    0.142670 *  0.576025 *  0.077205 *  -2.87073    1.000000    
    306 O2    s    0.424780 *  0.577976 *  0.412093 *  -2.87073    1.000000    
    307 F     s    0.446972 *  0.902168 *  0.247601 *  -1.56000    1.000000    
    308 F     s    0.042927 *  0.519577 *  0.568623 *  -1.56000    1.000000    
    309 F     s    0.448251 *  0.551106 *  0.912126 *  -1.56000    1.000000    
    310 F     s    0.546967 *  0.093544 *  0.747515 *  -1.56000    1.000000    
    311 F     s    0.843536 *  0.432413 *  0.066996 *  -1.56000    1.000000    
    312 F     s    0.583760 *  0.489241 *  0.399726 *  -1.56000    1.000000    
--------------------------------------------------------------------------------



********************************************************************************
*  General input information                                                   *
********************************************************************************

  Species output for all configurations : 

--------------------------------------------------------------------------------
  Species    Type    Atomic    Atomic    Charge       Radii (Angs)     Library
                     Number     Mass       (e)     Cova   Ionic  VDW   Symbol
--------------------------------------------------------------------------------
    Si       Core       14      28.09   4.000000   1.200  0.000  2.100          
    O1       Core        8      16.00   1.733957   0.730  0.000  1.360          
    O1       Shell       8       0.00  -3.733957   0.730  0.000  1.360          
    O2       Core        8      16.00   0.870733   0.730  0.000  1.360          
    O2       Shell       8       0.00  -2.870733   0.730  0.000  1.360          
    O3       Core        8      16.00   1.330431   0.730  0.000  1.360          
    O3       Shell       8       0.00  -3.330431   0.730  0.000  1.360          
    F        Core        9      19.00   0.560000   0.710  0.000  1.300          
    F        Shell       9       0.00  -1.560000   0.710  0.000  1.300          
    Ge       Core       32      72.61   4.000000   1.170  0.000  1.750          
--------------------------------------------------------------------------------


  Lattice summation method               =    Ewald          (3-D)
                                         =    Parry          (2-D)
                                         =    Saunders et al (1-D)
  Accuracy factor for lattice sums       =   12.000


  Time limit = Infinity

  Maximum range for interatomic potentials =        16.000000 Angstroms

  Taper potentials to zero over   1.0000 Angstroms using polynomial

  General interatomic potentials :

--------------------------------------------------------------------------------
Atom  Types   Potential         A         B         C         D     Cutoffs(Ang)
  1     2                                                            Min    Max 
--------------------------------------------------------------------------------
Si   c O1   s Buckingham    0.132E+04 0.318      10.1      0.00     0.000 16.000
Si   c O2   s Buckingham    0.132E+04 0.318      10.1      0.00     0.000 16.000
Si   c O3   s Buckingham    0.132E+04 0.318      10.1      0.00     0.000 16.000
Ge   c O1   s Buckingham    0.150E+04 0.326      16.8      0.00     0.000 16.000
Ge   c O2   s Buckingham    0.150E+04 0.326      16.8      0.00     0.000 16.000
Ge   c O3   s Buckingham    0.150E+04 0.326      16.8      0.00     0.000 16.000
O1   s O1   s Buckingham    0.228E+05 0.149      10.9      0.00     0.000 16.000
O1   s O2   s Buckingham    0.228E+05 0.149      10.9      0.00     0.000 16.000
O1   s O3   s Buckingham    0.228E+05 0.149      10.9      0.00     0.000 16.000
O2   s O2   s Buckingham    0.228E+05 0.149      10.9      0.00     0.000 16.000
O2   s O3   s Buckingham    0.228E+05 0.149      10.9      0.00     0.000 16.000
O3   s O3   s Buckingham    0.228E+05 0.149      10.9      0.00     0.000 16.000
Si   c F    s Buckingham     977.     0.282      0.00      0.00     0.000 16.000
Ge   c F    s Buckingham     681.     0.320      0.00      0.00     0.000 16.000
F    s F    s Buckingham     540.     0.262      0.00      0.00     0.000 16.000
O1   s F    s Buckingham    0.168E+04 0.268      0.00      0.00     0.000 16.000
O2   s F    s Buckingham    0.168E+04 0.268      0.00      0.00     0.000 16.000
O3   s F    s Buckingham    0.168E+04 0.268      0.00      0.00     0.000 16.000
O2   c O2   s Spring (c-s)   76.0      0.00      0.00      0.00     0.000  0.800
O3   c O3   s Spring (c-s)   128.      0.00      0.00      0.00     0.000  0.800
O1   c O1   s Spring (c-s)   180.      0.00      0.00      0.00     0.000  0.800
F    c F    s Spring (c-s)   33.5      0.00      0.00      0.00     0.000  0.800
--------------------------------------------------------------------------------

  General Three-body potentials :

  Harmonic form:

--------------------------------------------------------------------------------
Atom    Atom    Atom           Force Constants            Theta     Cutoffs  
  1       2       3     (eVrad**-2/eVrad**-3/eVrad**-4)   (deg)  1-2  1-3  2-3
--------------------------------------------------------------------------------
Si    c O1    s O1    s  1.261        0.0000    0.0000   109.470 0.00 0.00 0.00
                                                                 1.90 1.90 3.50
Si    c O1    s O2    s  1.261        0.0000    0.0000   109.470 0.00 0.00 0.00
                                                                 1.90 1.90 3.50
Si    c O2    s O2    s  1.261        0.0000    0.0000   109.470 0.00 0.00 0.00
                                                                 1.90 1.90 3.50
--------------------------------------------------------------------------------

********************************************************************************
*  Output for configuration   1                                                *
********************************************************************************


  Components of energy : 

--------------------------------------------------------------------------------
  Interatomic potentials     =        2066.69309409 eV
  Three-body potentials      =           0.46919989 eV
  Monopole - monopole (real) =       -6616.00723192 eV
  Monopole - monopole (recip)=       -3172.16203243 eV
  Monopole - monopole (total)=       -9788.16926434 eV
  Neutralising energy        =          -6.46169323 eV
--------------------------------------------------------------------------------
  Total lattice energy       =       -7727.46866359 eV
--------------------------------------------------------------------------------
  Total lattice energy       =         -745582.6009 kJ/(mole unit cells)
--------------------------------------------------------------------------------


  Number of variables =      939

  Maximum number of calculations  =          5000
  Maximum Hessian update interval =            10
  Maximum step size               =   0.100000000
  Maximum parameter tolerance     =   0.000010000
  Maximum function  tolerance     =   0.000010000
  Maximum gradient  tolerance     =   0.001000000
  Maximum gradient  component     =   0.010000000

  Symmetry not applied to optimisation

  Cell parameters to be optimised using strains

  Newton-Raphson optimiser to be used

  BFGS hessian update to be used

  Dumpfile to be written after every cycle

  Start of bulk optimisation :

  Cycle:      0 Energy:     -7727.468664  Gnorm:      0.013902  CPU:    2.030
  ** Hessian calculated **
  Cycle:      1 Energy:     -7727.506853  Gnorm:      0.011661  CPU:    6.651
  Cycle:      2 Energy:     -7727.548386  Gnorm:      0.008587  CPU:   10.888
  Cycle:      3 Energy:     -7727.580495  Gnorm:      0.004697  CPU:   15.124
  Cycle:      4 Energy:     -7727.588126  Gnorm:      0.002531  CPU:   19.358
  Cycle:      5 Energy:     -7727.590006  Gnorm:      0.001336  CPU:   23.592
  Cycle:      6 Energy:     -7727.590480  Gnorm:      0.000680  CPU:   27.827
  Cycle:      7 Energy:     -7727.590599  Gnorm:      0.000349  CPU:   32.063
  Cycle:      8 Energy:     -7727.590620  Gnorm:      0.000244  CPU:   34.920
  Cycle:      9 Energy:     -7727.590630  Gnorm:      0.000172  CPU:   37.775
  Cycle:     10 Energy:     -7727.590635  Gnorm:      0.000120  CPU:   40.632
  ** Hessian calculated **
  Cycle:     11 Energy:     -7727.590635  Gnorm:      0.000049  CPU:   45.197
  Cycle:     12 Energy:     -7727.590635  Gnorm:      0.000034  CPU:   48.053


  **** Optimisation achieved ****


  Final energy =   -7727.59063471 eV
  Final Gnorm  =       0.00002646

  Components of energy : 

--------------------------------------------------------------------------------
  Interatomic potentials     =        2067.16099777 eV
  Three-body potentials      =           0.48432413 eV
  Monopole - monopole (real) =       -6616.66459627 eV
  Monopole - monopole (recip)=       -3172.10977023 eV
  Monopole - monopole (total)=       -9788.77436650 eV
  Neutralising energy        =          -6.46159012 eV
--------------------------------------------------------------------------------
  Total lattice energy       =       -7727.59063471 eV
--------------------------------------------------------------------------------
  Total lattice energy       =         -745594.3692 kJ/(mole unit cells)
--------------------------------------------------------------------------------

  Final fractional coordinates of atoms :

--------------------------------------------------------------------------------
   No.  Atomic        x           y          z          Radius
        Label       (Frac)      (Frac)     (Frac)       (Angs) 
--------------------------------------------------------------------------------
     1  Ge    c     0.699600    0.375700    0.033890    0.000000
     2  Si    c     0.618232    0.311852    0.361281    0.000000
     3  Si    c     0.666490    0.290702    0.700376    0.000000
     4  Si    c     0.287509    0.617028    0.525589    0.000000
     5  Si    c     0.365730    0.662822    0.860618    0.000000
     6  Si    c     0.299680    0.693921    0.194670    0.000000
     7  Si    c     0.346701    0.682942    0.295214    0.000000
     8  Si    c     0.307554    0.612067    0.961045    0.000000
     9  Si    c     0.287618    0.671956    0.628173    0.000000
    10  Si    c     0.608514    0.284519    0.801212    0.000000
    11  Si    c     0.679644    0.380384    0.463938    0.000000
    12  Si    c     0.671196    0.307934    0.132213    0.000000
    13  Si    c     0.521207    0.411300    0.967460    0.000000
    14  Si    c     0.563237    0.088304    0.301247    0.000000
    15  Si    c     0.866076    0.462873    0.632698    0.000000
    16  Si    c     0.463149    0.582426    0.459868    0.000000
    17  Si    c     0.401835    0.872658    0.796534    0.000000
    18  Si    c     0.091492    0.522563    0.127366    0.000000
    19  Si    c     0.398651    0.520621    0.356808    0.000000
    20  Si    c     0.091310    0.573843    0.024061    0.000000
    21  Si    c     0.458417    0.882058    0.694837    0.000000
    22  Si    c     0.572415    0.460322    0.864716    0.000000
    23  Ge    c     0.895081    0.429520    0.533121    0.000000
    24  Si    c     0.512390    0.099153    0.200090    0.000000
    25  Si    c     0.291144    0.387411    0.847592    0.000000
    26  Si    c     0.581995    0.892326    0.182407    0.000000
    27  Si    c     0.087199    0.701157    0.509007    0.000000
    28  Ge    c     0.673639    0.578166    0.352202    0.000000
    29  Si    c     0.387927    0.088924    0.682904    0.000000
    30  Si    c     0.879304    0.285316    0.009144    0.000000
    31  Si    c     0.394155    0.301003    0.476099    0.000000
    32  Si    c     0.877490    0.593966    0.141801    0.000000
    33  Si    c     0.684661    0.083203    0.812828    0.000000
    34  Si    c     0.586920    0.691265    0.977633    0.000000
    35  Si    c     0.081989    0.391079    0.644117    0.000000
    36  Si    c     0.276685    0.885336    0.312413    0.000000
    37  Si    c     0.240798    0.334376    0.948218    0.000000
    38  Si    c     0.635138    0.885947    0.283436    0.000000
    39  Si    c     0.072445    0.742746    0.612627    0.000000
    40  Si    c     0.748995    0.664458    0.448079    0.000000
    41  Si    c     0.325881    0.073996    0.783481    0.000000
    42  Si    c     0.887763    0.240433    0.112643    0.000000
    43  Si    c     0.329853    0.242658    0.374489    0.000000
    44  Si    c     0.891049    0.658173    0.038996    0.000000
    45  Si    c     0.738373    0.083290    0.711821    0.000000
    46  Si    c     0.647501    0.737218    0.876745    0.000000
    47  Si    c     0.074624    0.330063    0.541615    0.000000
    48  Si    c     0.229333    0.900031    0.211676    0.000000
    49  Si    c     0.961968    0.113873    0.961769    0.000000
    50  Si    c     0.855851    0.826378    0.297615    0.000000
    51  Si    c     0.142071    0.024185    0.629836    0.000000
    52  Si    c     0.025297    0.883997    0.462809    0.000000
    53  Si    c     0.110744    0.139495    0.795833    0.000000
    54  Si    c     0.831078    0.964965    0.130340    0.000000
    55  Si    c     0.103740    0.963200    0.360655    0.000000
    56  Si    c     0.836057    0.876859    0.028699    0.000000
    57  Si    c     0.019213    0.144912    0.694536    0.000000
    58  Si    c     0.866780    0.015450    0.861424    0.000000
    59  Si    c     0.150509    0.122413    0.528982    0.000000
    60  Si    c     0.949704    0.841406    0.195312    0.000000
    61  O2    c     0.916135    0.998651    0.996859    0.000000
    62  O2    c     0.983521    0.922906    0.327368    0.000000
    63  O2    c     0.057646    0.065545    0.660312    0.000000
    64  O2    c     0.069169    0.004920    0.495409    0.000000
    65  O2    c     0.984045    0.059159    0.826305    0.000000
    66  O2    c     0.912996    0.926011    0.163058    0.000000
    67  O2    c     0.307122    0.558844    0.327309    0.000000
    68  O2    c     0.410220    0.758817    0.660839    0.000000
    69  O2    c     0.219208    0.648928    0.992598    0.000000
    70  O2    c     0.648225    0.406677    0.833966    0.000000
    71  O2    c     0.564195    0.229172    0.170864    0.000000
    72  O3    c     0.757465    0.343372    0.497085    0.000000
    73  O3    c     0.561747    0.334477    0.999474    0.000000
    74  O2    c     0.753357    0.419577    0.670769    0.000000
    75  O2    c     0.644717    0.209503    0.334947    0.000000
    76  O2    c     0.410719    0.654181    0.493135    0.000000
    77  O2    c     0.216779    0.573881    0.160002    0.000000
    78  O2    c     0.325762    0.745087    0.827385    0.000000
    79  O2    c     0.115899    0.206623    0.968580    0.000000
    80  O2    c     0.756890    0.880994    0.304422    0.000000
    81  O2    c     0.078150    0.870021    0.633645    0.000000
    82  O2    c     0.873034    0.786795    0.472831    0.000000
    83  O2    c     0.197976    0.073096    0.802560    0.000000
    84  O2    c     0.891549    0.118860    0.134089    0.000000
    85  O2    c     0.203896    0.115877    0.354384    0.000000
    86  O2    c     0.907320    0.794449    0.023390    0.000000
    87  O2    c     0.863893    0.082685    0.690919    0.000000
    88  O2    c     0.775804    0.861797    0.856268    0.000000
    89  O2    c     0.087595    0.211114    0.523919    0.000000
    90  O2    c     0.105252    0.903891    0.191147    0.000000
    91  O2    c     0.904992    0.847777    0.245485    0.000000
    92  O2    c     0.138332    0.067363    0.578999    0.000000
    93  O2    c     0.926571    0.055368    0.911426    0.000000
    94  O2    c     0.064839    0.131668    0.744120    0.000000
    95  O2    c     0.844033    0.925814    0.079714    0.000000
    96  O2    c     0.053005    0.935340    0.411932    0.000000
    97  O2    c     0.891293    0.194888    0.971149    0.000000
    98  O3    c     0.786973    0.681488    0.309948    0.000000
    99  O2    c     0.292485    0.093649    0.644522    0.000000
   100  O2    c     0.106729    0.813078    0.473714    0.000000
   101  O2    c     0.194325    0.289584    0.808624    0.000000
   102  O2    c     0.679100    0.894068    0.143387    0.000000
   103  O2    c     0.180180    0.886903    0.350901    0.000000
   104  O2    c     0.683947    0.792068    0.015876    0.000000
   105  O2    c     0.086461    0.296138    0.682144    0.000000
   106  O2    c     0.781641    0.082377    0.851332    0.000000
   107  O2    c     0.302492    0.207398    0.516176    0.000000
   108  O2    c     0.880541    0.692049    0.180023    0.000000
   109  O2    c     0.293019    0.629501    0.244000    0.000000
   110  O2    c     0.337789    0.668319    0.577207    0.000000
   111  O2    c     0.305441    0.664918    0.910201    0.000000
   112  O2    c     0.664434    0.342916    0.751088    0.000000
   113  O3    c     0.605507    0.298760    0.084462    0.000000
   114  O2    c     0.676652    0.327392    0.412614    0.000000
   115  O2    c     0.362450    0.326072    0.966832    0.000000
   116  O2    c     0.648222    0.018304    0.302360    0.000000
   117  O2    c     0.941185    0.620858    0.632015    0.000000
   118  O2    c     0.619766    0.670814    0.462922    0.000000
   119  O2    c     0.313656    0.940178    0.799915    0.000000
   120  O2    c     0.020101    0.367526    0.129308    0.000000
   121  O2    c     0.319261    0.363601    0.356696    0.000000
   122  O2    c     0.023614    0.660925    0.022887    0.000000
   123  O2    c     0.615621    0.952375    0.691614    0.000000
   124  O2    c     0.658406    0.615670    0.859030    0.000000
   125  O3    c     0.943448    0.312598    0.522587    0.000000
   126  O2    c     0.355553    0.031341    0.194546    0.000000
   127  O3    c     0.745619    0.278574    0.001227    0.000000
   128  O3    c     0.690801    0.445263    0.335517    0.000000
   129  O2    c     0.523949    0.222274    0.676154    0.000000
   130  O2    c     0.219646    0.693335    0.505652    0.000000
   131  O2    c     0.292263    0.520137    0.837636    0.000000
   132  O2    c     0.444067    0.762550    0.172497    0.000000
   133  O2    c     0.270362    0.748871    0.317925    0.000000
   134  O2    c     0.451784    0.691531    0.983626    0.000000
   135  O2    c     0.215948    0.528070    0.648779    0.000000
   136  O2    c     0.683808    0.215112    0.821740    0.000000
   137  O2    c     0.529407    0.305902    0.481656    0.000000
   138  O2    c     0.746124    0.457942    0.149974    0.000000
   139  O3    c     0.765799    0.542786    0.017313    0.000000
   140  O2    c     0.459759    0.246926    0.357763    0.000000
   141  O2    c     0.743059    0.211960    0.693978    0.000000
   142  O2    c     0.199225    0.462632    0.523054    0.000000
   143  O2    c     0.523337    0.739812    0.856002    0.000000
   144  O2    c     0.223152    0.772871    0.190692    0.000000
   145  O2    c     0.503117    0.763625    0.301436    0.000000
   146  O2    c     0.234797    0.457253    0.967124    0.000000
   147  O2    c     0.196261    0.734319    0.629681    0.000000
   148  O2    c     0.451487    0.197676    0.804986    0.000000
   149  O2    c     0.739459    0.534918    0.467474    0.000000
   150  O2    c     0.764736    0.245068    0.132013    0.000000
   151  O2    c     0.217595    0.314940    0.893752    0.000000
   152  O2    c     0.652275    0.887776    0.228760    0.000000
   153  O2    c     0.073992    0.757457    0.558332    0.000000
   154  O3    c     0.778155    0.688008    0.395419    0.000000
   155  O2    c     0.311191    0.081032    0.729086    0.000000
   156  O2    c     0.885968    0.224885    0.058142    0.000000
   157  O2    c     0.319807    0.233614    0.429302    0.000000
   158  O2    c     0.880009    0.660882    0.094326    0.000000
   159  O2    c     0.756334    0.081786    0.766186    0.000000
   160  O2    c     0.664045    0.758758    0.931134    0.000000
   161  O2    c     0.076840    0.321605    0.596803    0.000000
   162  O2    c     0.209135    0.896107    0.266097    0.000000
   163  O2    c     0.569666    0.553686    0.988483    0.000000
   164  O2    c     0.419780    0.005098    0.323387    0.000000
   165  O2    c     0.961111    0.412046    0.651890    0.000000
   166  O2    c     0.411809    0.441698    0.481350    0.000000
   167  O2    c     0.543574    0.957754    0.820042    0.000000
   168  O2    c     0.000462    0.574060    0.147183    0.000000
   169  O3    c     0.534524    0.580695    0.331575    0.000000
   170  O2    c     0.000312    0.431972    0.002939    0.000000
   171  O2    c     0.397745    0.962601    0.672063    0.000000
   172  O2    c     0.430738    0.399234    0.840405    0.000000
   173  O3    c     0.962139    0.569705    0.496862    0.000000
   174  O2    c     0.573366    0.020545    0.175811    0.000000
   175  O2    c     0.563168    0.146620    0.251535    0.000000
   176  O3    c     0.802812    0.406641    0.584513    0.000000
   177  O2    c     0.575540    0.415743    0.916021    0.000000
   178  O2    c     0.403189    0.823714    0.744870    0.000000
   179  O2    c     0.137053    0.569713    0.075796    0.000000
   180  O2    c     0.408028    0.575539    0.408928    0.000000
   181  F     c     0.424692    0.885994    0.246186    0.000000
   182  F     c     0.042997    0.521293    0.569016    0.000000
   183  F     c     0.436632    0.542270    0.910883    0.000000
   184  F     c     0.534801    0.083361    0.745902    0.000000
   185  F     c     0.846718    0.431913    0.069015    0.000000
   186  F     c     0.566380    0.476336    0.400258    0.000000
   187  O2    s     0.912189    0.997904    0.996484    0.000000
   188  O2    s     0.984005    0.917502    0.328080    0.000000
   189  O2    s     0.062706    0.069672    0.660708    0.000000
   190  O2    s     0.073661    0.004773    0.495598    0.000000
   191  O2    s     0.985248    0.063351    0.826787    0.000000
   192  O2    s     0.907881    0.921187    0.162915    0.000000
   193  O2    s     0.320080    0.567488    0.327001    0.000000
   194  O2    s     0.401904    0.761802    0.660721    0.000000
   195  O2    s     0.214753    0.637326    0.992692    0.000000
   196  O2    s     0.636390    0.399229    0.833610    0.000000
   197  O2    s     0.570044    0.223830    0.169847    0.000000
   198  O3    s     0.758338    0.353497    0.495897    0.000000
   199  O3    s     0.566995    0.345869    0.998373    0.000000
   200  O2    s     0.756015    0.410796    0.669916    0.000000
   201  O2    s     0.633419    0.207480    0.334169    0.000000
   202  O2    s     0.403104    0.642998    0.493177    0.000000
   203  O2    s     0.211698    0.580501    0.160010    0.000000
   204  O2    s     0.337752    0.750196    0.827495    0.000000
   205  O2    s     0.111945    0.209658    0.965762    0.000000
   206  O2    s     0.753607    0.876075    0.301487    0.000000
   207  O2    s     0.084257    0.873051    0.631100    0.000000
   208  O2    s     0.876783    0.784896    0.469382    0.000000
   209  O2    s     0.202020    0.080164    0.799900    0.000000
   210  O2    s     0.884859    0.115431    0.131493    0.000000
   211  O2    s     0.206862    0.113444    0.357146    0.000000
   212  O2    s     0.898075    0.789251    0.025544    0.000000
   213  O2    s     0.867611    0.089430    0.693431    0.000000
   214  O2    s     0.772407    0.865493    0.858890    0.000000
   215  O2    s     0.093310    0.214170    0.526411    0.000000
   216  O2    s     0.101731    0.896891    0.193694    0.000000
   217  O2    s     0.905043    0.844797    0.245124    0.000000
   218  O2    s     0.140134    0.068720    0.579084    0.000000
   219  O2    s     0.923770    0.057386    0.911400    0.000000
   220  O2    s     0.064703    0.134038    0.744191    0.000000
   221  O2    s     0.841657    0.924772    0.079735    0.000000
   222  O2    s     0.055543    0.932603    0.412019    0.000000
   223  O2    s     0.897717    0.195596    0.974113    0.000000
   224  O3    s     0.787377    0.691160    0.311298    0.000000
   225  O2    s     0.285942    0.085614    0.646872    0.000000
   226  O2    s     0.096414    0.809123    0.476155    0.000000
   227  O2    s     0.195118    0.283258    0.811200    0.000000
   228  O2    s     0.685357    0.901433    0.145982    0.000000
   229  O2    s     0.182077    0.894687    0.347978    0.000000
   230  O2    s     0.690311    0.790863    0.013347    0.000000
   231  O2    s     0.079068    0.290266    0.679524    0.000000
   232  O2    s     0.780600    0.075400    0.848416    0.000000
   233  O2    s     0.295857    0.208113    0.513373    0.000000
   234  O2    s     0.887456    0.697375    0.177595    0.000000
   235  O2    s     0.299138    0.641497    0.244170    0.000000
   236  O2    s     0.327584    0.663538    0.577263    0.000000
   237  O2    s     0.311772    0.659320    0.910337    0.000000
   238  O2    s     0.658848    0.331372    0.750940    0.000000
   239  O3    s     0.618415    0.304640    0.086220    0.000000
   240  O2    s     0.671077    0.331247    0.412607    0.000000
   241  O2    s     0.364726    0.335536    0.964795    0.000000
   242  O2    s     0.637862    0.011880    0.300251    0.000000
   243  O2    s     0.947794    0.618504    0.630026    0.000000
   244  O2    s     0.615863    0.660916    0.461144    0.000000
   245  O2    s     0.323896    0.947244    0.797845    0.000000
   246  O2    s     0.013780    0.370508    0.127361    0.000000
   247  O2    s     0.328335    0.366556    0.358597    0.000000
   248  O2    s     0.017548    0.651567    0.024616    0.000000
   249  O2    s     0.612005    0.958647    0.694052    0.000000
   250  O2    s     0.648475    0.612442    0.861452    0.000000
   251  O3    s     0.954502    0.322209    0.525375    0.000000
   252  O2    s     0.358371    0.024430    0.196931    0.000000
   253  O3    s     0.756983    0.285645    0.004269    0.000000
   254  O3    s     0.682096    0.440618    0.339359    0.000000
   255  O2    s     0.524145    0.215139    0.679375    0.000000
   256  O2    s     0.213589    0.686042    0.508132    0.000000
   257  O2    s     0.299669    0.520926    0.841048    0.000000
   258  O2    s     0.443619    0.769084    0.175855    0.000000
   259  O2    s     0.278823    0.756442    0.314982    0.000000
   260  O2    s     0.450890    0.683344    0.980649    0.000000
   261  O2    s     0.209512    0.528851    0.646130    0.000000
   262  O2    s     0.676137    0.208368    0.818654    0.000000
   263  O2    s     0.528993    0.312760    0.479238    0.000000
   264  O2    s     0.752860    0.457915    0.147353    0.000000
   265  O3    s     0.775432    0.544916    0.020648    0.000000
   266  O2    s     0.460921    0.252912    0.359930    0.000000
   267  O2    s     0.734643    0.206146    0.696510    0.000000
   268  O2    s     0.196053    0.465889    0.525189    0.000000
   269  O2    s     0.520328    0.731486    0.858670    0.000000
   270  O2    s     0.231816    0.778179    0.193305    0.000000
   271  O2    s     0.500883    0.768523    0.298850    0.000000
   272  O2    s     0.243051    0.460349    0.964516    0.000000
   273  O2    s     0.192727    0.728420    0.627691    0.000000
   274  O2    s     0.454303    0.193227    0.802280    0.000000
   275  O2    s     0.734149    0.532884    0.465051    0.000000
   276  O2    s     0.769155    0.250906    0.129877    0.000000
   277  O2    s     0.227739    0.324626    0.894540    0.000000
   278  O2    s     0.642999    0.888062    0.229546    0.000000
   279  O2    s     0.075065    0.750321    0.559449    0.000000
   280  O3    s     0.768163    0.678268    0.398058    0.000000
   281  O2    s     0.320898    0.081115    0.729946    0.000000
   282  O2    s     0.885500    0.232489    0.059128    0.000000
   283  O2    s     0.328705    0.241690    0.428538    0.000000
   284  O2    s     0.880781    0.653290    0.093946    0.000000
   285  O2    s     0.746991    0.082086    0.765216    0.000000
   286  O2    s     0.654305    0.749496    0.930174    0.000000
   287  O2    s     0.077148    0.329994    0.596317    0.000000
   288  O2    s     0.218332    0.895410    0.265172    0.000000
   289  O2    s     0.566410    0.554561    0.985127    0.000000
   290  O2    s     0.419413    0.000790    0.319886    0.000000
   291  O2    s     0.965254    0.414887    0.649118    0.000000
   292  O2    s     0.415370    0.441340    0.478526    0.000000
   293  O2    s     0.543969    0.962608    0.816769    0.000000
   294  O2    s     0.996932    0.570545    0.144465    0.000000
   295  O3    s     0.530288    0.574107    0.335637    0.000000
   296  O2    s     0.997660    0.432365    0.005838    0.000000
   297  O2    s     0.403127    0.967658    0.675572    0.000000
   298  O2    s     0.430400    0.404431    0.843680    0.000000
   299  O3    s     0.971597    0.574938    0.500508    0.000000
   300  O2    s     0.567833    0.014886    0.179026    0.000000
   301  O2    s     0.557761    0.135511    0.251267    0.000000
   302  O3    s     0.815498    0.414045    0.586197    0.000000
   303  O2    s     0.569822    0.420195    0.915569    0.000000
   304  O2    s     0.408825    0.834816    0.744891    0.000000
   305  O2    s     0.127532    0.565156    0.075915    0.000000
   306  O2    s     0.412964    0.571002    0.409280    0.000000
   307  F     s     0.424054    0.885401    0.246037    0.000000
   308  F     s     0.032318    0.514761    0.566409    0.000000
   309  F     s     0.436062    0.542815    0.910653    0.000000
   310  F     s     0.534876    0.083496    0.745665    0.000000
   311  F     s     0.835364    0.427681    0.066354    0.000000
   312  F     s     0.573442    0.483242    0.397111    0.000000
--------------------------------------------------------------------------------

  Final Cartesian lattice vectors (Angstroms) :

       11.939534   -0.004948    0.007606
       -6.125080   10.410221   -0.000749
       -0.077989   -0.152097   29.406598


  Final cell parameters and derivatives :

--------------------------------------------------------------------------------
       a           11.939537 Angstrom     dE/de1(xx)     0.000585 eV/strain
       b           12.078465 Angstrom     dE/de2(yy)     0.000399 eV/strain
       c           29.407094 Angstrom     dE/de3(zz)     0.001779 eV/strain
       alpha       90.181909 Degrees      dE/de4(yz)     0.000115 eV/strain
       beta        90.115327 Degrees      dE/de5(xz)    -0.000235 eV/strain
       gamma      120.495091 Degrees      dE/de6(xy)     0.000549 eV/strain
--------------------------------------------------------------------------------

  Primitive cell volume =          3654.160486 Angs**3

  Density of cell =      1.750906 g/cm**3

  Non-primitive cell volume =          3654.160486 Angs**3


  Final internal derivatives :

--------------------------------------------------------------------------------
   No.  Atomic          a             b             c           Radius
        Label          (eV)          (eV)          (eV)        (eV/Angs)
--------------------------------------------------------------------------------
      1 Ge    c       0.000000      0.000000      0.000000      0.000000
      2 Si    c      -0.000592      0.000706      0.000528      0.000000
      3 Si    c       0.000090     -0.000150      0.000247      0.000000
      4 Si    c       0.000134      0.000090      0.000644      0.000000
      5 Si    c       0.000317      0.000146      0.000737      0.000000
      6 Si    c       0.000473     -0.000020     -0.000327      0.000000
      7 Si    c       0.000922      0.000997     -0.000747      0.000000
      8 Si    c       0.000515     -0.000005      0.000029      0.000000
      9 Si    c      -0.000070      0.000072     -0.000135      0.000000
     10 Si    c       0.000134      0.000020     -0.000247      0.000000
     11 Si    c      -0.000678     -0.000590      0.000265      0.000000
     12 Si    c       0.002218      0.000743      0.008406      0.000000
     13 Si    c      -0.000406     -0.001929      0.000668      0.000000
     14 Si    c      -0.000160      0.000098     -0.000252      0.000000
     15 Si    c       0.000030     -0.000065     -0.000017      0.000000
     16 Si    c      -0.000049     -0.000461      0.000864      0.000000
     17 Si    c       0.000050      0.000422      0.000132      0.000000
     18 Si    c       0.000656      0.000177      0.000300      0.000000
     19 Si    c       0.000615     -0.000150      0.000643      0.000000
     20 Si    c       0.000758     -0.000175      0.000610      0.000000
     21 Si    c      -0.000144      0.000116      0.000248      0.000000
     22 Si    c      -0.000335      0.000043      0.000653      0.000000
     23 Ge    c      -0.000030     -0.000209      0.000287      0.000000
     24 Si    c      -0.000059     -0.000392      0.000814      0.000000
     25 Si    c      -0.000067      0.000219      0.000619      0.000000
     26 Si    c       0.000122     -0.000100      0.000580      0.000000
     27 Si    c      -0.000011     -0.000409      0.000521      0.000000
     28 Ge    c      -0.000114     -0.000129      0.001545      0.000000
     29 Si    c       0.000342     -0.000133      0.000750      0.000000
     30 Si    c       0.003279      0.000891      0.000421      0.000000
     31 Si    c      -0.000281     -0.000583      0.000656      0.000000
     32 Si    c       0.000798     -0.000044     -0.001459      0.000000
     33 Si    c      -0.000139      0.000420     -0.000487      0.000000
     34 Si    c       0.000516     -0.000380     -0.000404      0.000000
     35 Si    c      -0.000173      0.000077     -0.000167      0.000000
     36 Si    c       0.000665      0.000565     -0.000760      0.000000
     37 Si    c       0.000365     -0.000196     -0.000553      0.000000
     38 Si    c      -0.000032      0.000399     -0.000335      0.000000
     39 Si    c       0.000199     -0.000088     -0.000279      0.000000
     40 Si    c      -0.000259     -0.000766      0.001719      0.000000
     41 Si    c       0.000516      0.000016      0.000038      0.000000
     42 Si    c       0.000615      0.000686      0.000451      0.000000
     43 Si    c      -0.000114     -0.000220      0.000077      0.000000
     44 Si    c       0.001047      0.000292     -0.002330      0.000000
     45 Si    c      -0.000233      0.000036      0.000375      0.000000
     46 Si    c       0.000226      0.000116      0.000253      0.000000
     47 Si    c       0.000009      0.000101      0.000313      0.000000
     48 Si    c       0.000722      0.000176      0.000427      0.000000
     49 Si    c       0.000231     -0.000460     -0.000448      0.000000
     50 Si    c       0.000502      0.000160     -0.000173      0.000000
     51 Si    c       0.000191      0.000041      0.000754      0.000000
     52 Si    c      -0.000176     -0.000494      0.000596      0.000000
     53 Si    c       0.000149      0.000347      0.000898      0.000000
     54 Si    c       0.000116     -0.000537      0.000922      0.000000
     55 Si    c      -0.000119     -0.000212      0.000074      0.000000
     56 Si    c       0.000284     -0.000605     -0.000421      0.000000
     57 Si    c      -0.000137      0.000063     -0.000355      0.000000
     58 Si    c       0.000118      0.000085     -0.000406      0.000000
     59 Si    c      -0.000275     -0.000562     -0.000110      0.000000
     60 Si    c       0.000629     -0.000175     -0.001243      0.000000
     61 O2    c       0.000026     -0.000090     -0.000093      0.000000
     62 O2    c      -0.000010      0.000276      0.000491      0.000000
     63 O2    c       0.000494      0.000279      0.000308      0.000000
     64 O2    c      -0.000615     -0.000296      0.000885      0.000000
     65 O2    c       0.000174      0.000006      0.000700      0.000000
     66 O2    c      -0.000135     -0.000635      0.000514      0.000000
     67 O2    c       0.000103      0.000740     -0.000232      0.000000
     68 O2    c      -0.000302     -0.000113      0.000098      0.000000
     69 O2    c       0.001148      0.000243      0.000727      0.000000
     70 O2    c       0.000079      0.000241     -0.000366      0.000000
     71 O2    c       0.000022     -0.000467      0.001300      0.000000
     72 O3    c       0.000005     -0.000660     -0.000088      0.000000
     73 O3    c       0.001707     -0.001652      0.001847      0.000000
     74 O2    c       0.000119     -0.000144     -0.000100      0.000000
     75 O2    c       0.000397     -0.000077     -0.001287      0.000000
     76 O2    c      -0.000106     -0.000121      0.000684      0.000000
     77 O2    c       0.000402     -0.000165      0.000287      0.000000
     78 O2    c       0.000185      0.000440      0.000256      0.000000
     79 O2    c       0.000207     -0.000238      0.000098      0.000000
     80 O2    c      -0.000148      0.001487      0.000571      0.000000
     81 O2    c       0.000209     -0.000092      0.000065      0.000000
     82 O2    c      -0.000252     -0.000505      0.000416      0.000000
     83 O2    c       0.000446     -0.000099      0.000392      0.000000
     84 O2    c       0.000298     -0.000008      0.000366      0.000000
     85 O2    c      -0.000137      0.000615      0.000287      0.000000
     86 O2    c       0.001054     -0.000387     -0.000634      0.000000
     87 O2    c      -0.000016     -0.000084      0.000247      0.000000
     88 O2    c       0.000086      0.000196      0.000371      0.000000
     89 O2    c       0.000102     -0.000011      0.000273      0.000000
     90 O2    c       0.000683      0.000089      0.000183      0.000000
     91 O2    c       0.000685      0.000187     -0.000028      0.000000
     92 O2    c      -0.000335     -0.000279     -0.000280      0.000000
     93 O2    c      -0.000002      0.000211      0.001233      0.000000
     94 O2    c      -0.000495     -0.000010     -0.000629      0.000000
     95 O2    c       0.000480     -0.000733      0.000829      0.000000
     96 O2    c      -0.000444     -0.000575      0.001747      0.000000
     97 O2    c       0.001007      0.000179     -0.000216      0.000000
     98 O3    c      -0.000057     -0.001269      0.003216      0.000000
     99 O2    c       0.000297     -0.000064      0.000180      0.000000
    100 O2    c      -0.000246     -0.000520      0.000314      0.000000
    101 O2    c      -0.000099      0.000756      0.000523      0.000000
    102 O2    c       0.000015     -0.000122      0.000685      0.000000
    103 O2    c       0.000917     -0.000414     -0.000332      0.000000
    104 O2    c       0.000248     -0.000816      0.000027      0.000000
    105 O2    c      -0.000236      0.000063      0.000208      0.000000
    106 O2    c       0.000115      0.000632     -0.000176      0.000000
    107 O2    c      -0.000474     -0.000738      0.000166      0.000000
    108 O2    c       0.000609     -0.000657     -0.000440      0.000000
    109 O2    c       0.000330      0.000541      0.000524      0.000000
    110 O2    c       0.000132      0.000350      0.000549      0.000000
    111 O2    c       0.000679      0.000217      0.000074      0.000000
    112 O2    c       0.000189     -0.000102      0.000061      0.000000
    113 O3    c      -0.001767     -0.001155      0.005117      0.000000
    114 O2    c      -0.000519     -0.000602      0.003312      0.000000
    115 O2    c       0.000118     -0.000279     -0.000083      0.000000
    116 O2    c       0.000219      0.000530     -0.000061      0.000000
    117 O2    c       0.000217     -0.000033     -0.000043      0.000000
    118 O2    c      -0.000126     -0.000645      0.000483      0.000000
    119 O2    c       0.000453      0.000342      0.000025      0.000000
    120 O2    c       0.000491      0.000218      0.000088      0.000000
    121 O2    c       0.000185     -0.000096      0.000304      0.000000
    122 O2    c       0.001180      0.001109     -0.000962      0.000000
    123 O2    c      -0.000284     -0.000013      0.000385      0.000000
    124 O2    c      -0.000020      0.000297      0.000002      0.000000
    125 O3    c       0.000257      0.000024     -0.000270      0.000000
    126 O2    c       0.000380      0.000221      0.000007      0.000000
    127 O3    c       0.003218     -0.001104     -0.004837      0.000000
    128 O3    c      -0.000253      0.000937     -0.001083      0.000000
    129 O2    c       0.000184     -0.000163      0.000255      0.000000
    130 O2    c      -0.000027     -0.000049      0.000290      0.000000
    131 O2    c       0.000070      0.000397      0.000149      0.000000
    132 O2    c       0.000320      0.000017      0.000467      0.000000
    133 O2    c       0.000721      0.000499      0.000026      0.000000
    134 O2    c       0.000621     -0.000386      0.000288      0.000000
    135 O2    c      -0.000254      0.000026     -0.000108      0.000000
    136 O2    c      -0.000061      0.000143     -0.000190      0.000000
    137 O2    c      -0.000526     -0.000522     -0.000052      0.000000
    138 O2    c       0.000774      0.000356      0.000350      0.000000
    139 O3    c      -0.000434      0.000226     -0.002706      0.000000
    140 O2    c      -0.000717     -0.000147      0.000037      0.000000
    141 O2    c      -0.000271     -0.000102      0.000135      0.000000
    142 O2    c       0.000088      0.000070      0.000252      0.000000
    143 O2    c       0.000177      0.000229      0.000042      0.000000
    144 O2    c       0.000656      0.000117      0.000405      0.000000
    145 O2    c       0.000608      0.000442      0.000158      0.000000
    146 O2    c       0.000415     -0.000220      0.000256      0.000000
    147 O2    c       0.000225      0.000042     -0.000019      0.000000
    148 O2    c       0.000299      0.000078     -0.000036      0.000000
    149 O2    c      -0.000319     -0.000919      0.000451      0.000000
    150 O2    c       0.000557     -0.000524      0.000456      0.000000
    151 O2    c      -0.000044     -0.000015     -0.000122      0.000000
    152 O2    c       0.000356      0.000421      0.000615      0.000000
    153 O2    c       0.000234      0.000141      0.000654      0.000000
    154 O3    c       0.000364      0.000045     -0.003325      0.000000
    155 O2    c       0.000375     -0.000007      0.000020      0.000000
    156 O2    c       0.000269     -0.000020     -0.000294      0.000000
    157 O2    c      -0.000346     -0.000514     -0.000150      0.000000
    158 O2    c       0.000700      0.001408      0.006110      0.000000
    159 O2    c      -0.000220      0.000165      0.000359      0.000000
    160 O2    c       0.000440     -0.000246      0.000304      0.000000
    161 O2    c      -0.000178     -0.000186      0.000607      0.000000
    162 O2    c       0.000467      0.000127     -0.000108      0.000000
    163 O2    c       0.000371     -0.000164     -0.000028      0.000000
    164 O2    c       0.000199      0.000673     -0.000053      0.000000
    165 O2    c      -0.000130     -0.000135     -0.000043      0.000000
    166 O2    c      -0.000131     -0.000963     -0.000026      0.000000
    167 O2    c       0.000082      0.000334     -0.000146      0.000000
    168 O2    c       0.001411     -0.000123      0.000142      0.000000
    169 O3    c       0.000482      0.000384     -0.000849      0.000000
    170 O2    c       0.002057      0.000321     -0.001428      0.000000
    171 O2    c       0.000076     -0.000110      0.000308      0.000000
    172 O2    c      -0.000198      0.000158      0.000015      0.000000
    173 O3    c       0.000047     -0.000254     -0.000035      0.000000
    174 O2    c       0.000129      0.000302      0.000100      0.000000
    175 O2    c       0.000529      0.000331     -0.000380      0.000000
    176 O3    c       0.000103     -0.000155      0.000558      0.000000
    177 O2    c      -0.000314     -0.000512      0.000193      0.000000
    178 O2    c      -0.000141      0.000213      0.000598      0.000000
    179 O2    c       0.001221      0.000586      0.001686      0.000000
    180 O2    c       0.000225     -0.000003      0.001288      0.000000
    181 F     c       0.000605      0.000575     -0.000032      0.000000
    182 F     c      -0.000269     -0.000211      0.000062      0.000000
    183 F     c       0.000250     -0.000025      0.000081      0.000000
    184 F     c      -0.000052      0.000055      0.000147      0.000000
    185 F     c      -0.000377      0.000583     -0.003177      0.000000
    186 F     c      -0.000063     -0.000170     -0.000538      0.000000
    187 O2    s      -0.000556      0.000487     -0.001083      0.000000
    188 O2    s      -0.000112      0.000672     -0.000192      0.000000
    189 O2    s       0.000383      0.000355      0.000436      0.000000
    190 O2    s      -0.000840     -0.000409      0.000501      0.000000
    191 O2    s       0.000114      0.000140      0.000531      0.000000
    192 O2    s      -0.000196     -0.000344      0.001099      0.000000
    193 O2    s       0.000622      0.000778     -0.000130      0.000000
    194 O2    s       0.000059     -0.000397      0.000497      0.000000
    195 O2    s       0.001332      0.000176      0.000246      0.000000
    196 O2    s      -0.000248      0.000386     -0.000596      0.000000
    197 O2    s       0.000831      0.000283      0.002577      0.000000
    198 O3    s      -0.000633     -0.000442      0.000496      0.000000
    199 O3    s       0.002328     -0.000202      0.004021      0.000000
    200 O2    s      -0.000061      0.000072     -0.000187      0.000000
    201 O2    s       0.000060     -0.000199     -0.001206      0.000000
    202 O2    s       0.000230     -0.000456      0.000314      0.000000
    203 O2    s       0.000642     -0.000401      0.000307      0.000000
    204 O2    s       0.000621      0.000223      0.000477      0.000000
    205 O2    s       0.000072     -0.000528     -0.000070      0.000000
    206 O2    s      -0.000088      0.001611     -0.000446      0.000000
    207 O2    s       0.000127     -0.000020      0.000365      0.000000
    208 O2    s      -0.000535     -0.000510     -0.000642      0.000000
    209 O2    s       0.000416      0.000145     -0.000043      0.000000
    210 O2    s       0.000244      0.000366     -0.000116      0.000000
    211 O2    s      -0.000386      0.000823      0.000537      0.000000
    212 O2    s       0.001495     -0.000475     -0.001717      0.000000
    213 O2    s      -0.000026     -0.000254      0.000148      0.000000
    214 O2    s      -0.000190      0.000511      0.001049      0.000000
    215 O2    s       0.000078     -0.000021      0.000705      0.000000
    216 O2    s       0.000764      0.000028      0.000584      0.000000
    217 O2    s       0.001269      0.000241      0.000169      0.000000
    218 O2    s      -0.000516     -0.000299     -0.000269      0.000000
    219 O2    s      -0.000277      0.000519      0.000829      0.000000
    220 O2    s      -0.000492      0.000022     -0.000669      0.000000
    221 O2    s      -0.000532      0.000181      0.000591      0.000000
    222 O2    s      -0.000989     -0.000492      0.001387      0.000000
    223 O2    s       0.001451      0.000525      0.000630      0.000000
    224 O3    s       0.000370      0.000065     -0.000211      0.000000
    225 O2    s       0.000163      0.000173      0.000827      0.000000
    226 O2    s      -0.000359     -0.000468      0.000755      0.000000
    227 O2    s       0.000047      0.000404      0.000251      0.000000
    228 O2    s      -0.000227      0.000081      0.000953      0.000000
    229 O2    s       0.000913     -0.000401     -0.001284      0.000000
    230 O2    s      -0.000222     -0.000233     -0.000625      0.000000
    231 O2    s      -0.000127     -0.000013     -0.000494      0.000000
    232 O2    s       0.000188      0.000460     -0.000280      0.000000
    233 O2    s      -0.000385     -0.001180      0.000125      0.000000
    234 O2    s       0.001494     -0.000910     -0.000253      0.000000
    235 O2    s       0.000969      0.000899     -0.000471      0.000000
    236 O2    s       0.000487      0.000177      0.000283      0.000000
    237 O2    s       0.000730      0.000633      0.000250      0.000000
    238 O2    s      -0.000168      0.000398     -0.000297      0.000000
    239 O3    s       0.001539      0.001399      0.000425      0.000000
    240 O2    s      -0.000500     -0.001213      0.002190      0.000000
    241 O2    s       0.000178     -0.000917      0.000258      0.000000
    242 O2    s      -0.000006      0.000325     -0.000973      0.000000
    243 O2    s      -0.000006     -0.000024      0.000034      0.000000
    244 O2    s      -0.000127     -0.000676     -0.000070      0.000000
    245 O2    s       0.000282      0.000425     -0.000071      0.000000
    246 O2    s       0.001242     -0.000455      0.000518      0.000000
    247 O2    s       0.000247      0.000130      0.000968      0.000000
    248 O2    s       0.000785      0.000803     -0.001415      0.000000
    249 O2    s       0.000089     -0.000553      0.000380      0.000000
    250 O2    s      -0.000062      0.000128      0.000482      0.000000
    251 O3    s       0.000114     -0.000165      0.001205      0.000000
    252 O2    s       0.000428      0.000634      0.000281      0.000000
    253 O3    s       0.001491      0.000457      0.001122      0.000000
    254 O3    s      -0.000304      0.000568      0.001757      0.000000
    255 O2    s      -0.000115      0.000246      0.000300      0.000000
    256 O2    s      -0.000029     -0.000081      0.000514      0.000000
    257 O2    s       0.000051      0.000315      0.000568      0.000000
    258 O2    s       0.000421     -0.000264      0.000712      0.000000
    259 O2    s       0.001069      0.000662     -0.000662      0.000000
    260 O2    s       0.000663     -0.000080      0.000143      0.000000
    261 O2    s      -0.000014     -0.000166     -0.000166      0.000000
    262 O2    s       0.000082      0.000080     -0.000078      0.000000
    263 O2    s      -0.000220     -0.001184      0.000691      0.000000
    264 O2    s       0.000978     -0.000410      0.000358      0.000000
    265 O3    s      -0.000638     -0.000329      0.000422      0.000000
    266 O2    s      -0.000369     -0.000104      0.000204      0.000000
    267 O2    s      -0.000117     -0.000169      0.000046      0.000000
    268 O2    s       0.000489     -0.000019      0.000721      0.000000
    269 O2    s       0.000146      0.000616      0.000943      0.000000
    270 O2    s       0.000891      0.000014      0.001050      0.000000
    271 O2    s       0.000484      0.000807     -0.000507      0.000000
    272 O2    s       0.000287     -0.000016      0.000046      0.000000
    273 O2    s       0.000172     -0.000014      0.000240      0.000000
    274 O2    s      -0.000085      0.000835     -0.000529      0.000000
    275 O2    s      -0.000489     -0.000703      0.000101      0.000000
    276 O2    s       0.000454     -0.000285      0.002685      0.000000
    277 O2    s       0.000245     -0.000332      0.000006      0.000000
    278 O2    s       0.000510      0.000456     -0.000067      0.000000
    279 O2    s       0.000201      0.000176      0.000061      0.000000
    280 O3    s      -0.000993     -0.000866      0.003702      0.000000
    281 O2    s      -0.000017      0.000615     -0.000204      0.000000
    282 O2    s       0.001560     -0.000364     -0.000710      0.000000
    283 O2    s      -0.000590     -0.000806     -0.000392      0.000000
    284 O2    s       0.001647      0.001471      0.003418      0.000000
    285 O2    s       0.000189     -0.000287      0.000096      0.000000
    286 O2    s       0.000369      0.000332     -0.000264      0.000000
    287 O2    s      -0.000097     -0.000293      0.000432      0.000000
    288 O2    s       0.000714      0.000444     -0.000323      0.000000
    289 O2    s       0.000948     -0.000308      0.000468      0.000000
    290 O2    s       0.000412      0.000878     -0.000592      0.000000
    291 O2    s      -0.000034     -0.000150      0.000059      0.000000
    292 O2    s      -0.000559     -0.000499      0.000545      0.000000
    293 O2    s       0.000562     -0.000109      0.000299      0.000000
    294 O2    s       0.000971     -0.000146     -0.000068      0.000000
    295 O3    s       0.000093      0.000515      0.001800      0.000000
    296 O2    s       0.003175     -0.001490     -0.001477      0.000000
    297 O2    s       0.000108     -0.000083      0.000482      0.000000
    298 O2    s      -0.000175      0.000086     -0.000186      0.000000
    299 O3    s      -0.000178     -0.000124      0.001940      0.000000
    300 O2    s       0.000352      0.000268      0.000603      0.000000
    301 O2    s       0.000460      0.000236     -0.000517      0.000000
    302 O3    s      -0.000209      0.000009     -0.000173      0.000000
    303 O2    s      -0.000302     -0.000952     -0.000222      0.000000
    304 O2    s       0.000459     -0.000368      0.000177      0.000000
    305 O2    s       0.001874      0.000226      0.001191      0.000000
    306 O2    s      -0.000062      0.000267      0.001200      0.000000
    307 F     s       0.000722      0.000662      0.000163      0.000000
    308 F     s      -0.000398     -0.000163     -0.000152      0.000000
    309 F     s       0.000298      0.000120     -0.000299      0.000000
    310 F     s      -0.000010      0.000004      0.000173      0.000000
    311 F     s      -0.002049      0.000461     -0.004437      0.000000
    312 F     s       0.000011      0.000050     -0.000568      0.000000
--------------------------------------------------------------------------------
  Maximum abs         0.003279      0.001929      0.008406      0.000000
--------------------------------------------------------------------------------


  Time to end of optimisation =      50.9117 seconds


  Peak dynamic memory used =      19.13 MB 


  Timing analysis for GULP :

--------------------------------------------------------------------------------
  Task / Subroutine                                          Time (Seconds)
--------------------------------------------------------------------------------
  Calculation of reciprocal space energy and derivatives          1.3509
  Calculation of real space energy and derivatives               44.2969
  Calculation of three-body energy and derivatives                4.4256
  Calculation of matrix inversion                                 0.7449
  Global summation overhead                                       0.0001
--------------------------------------------------------------------------------
  Total CPU time                                                 50.9117
--------------------------------------------------------------------------------


  Dump file written as out.res                                                 
  CIF file written as out.cif                                                 


  Job Finished at 15:19.50  3rd November   2016                               

