********************************************************************************
*                       GENERAL UTILITY LATTICE PROGRAM                        *
*                                 Julian Gale                                  *
*                      Nanochemistry Research Institute                        *
*                           Department of Chemistry                            *
*                    Curtin University, Western Australia                      *
********************************************************************************
* Version = 4.2.0 * Last modified =  20th January 2014                         *
********************************************************************************
*  optimise     - perform optimisation run                                     *
*  conp         - constant pressure calculation                                *
*  qok          - running with non charge neutral cell is OK                   *
********************************************************************************

  Job Started  at 00:40.30  4th November   2016                               

  Number of CPUs =     1


  Total number of configurations input =   1

********************************************************************************
*  Input for Configuration =   1                                               *
********************************************************************************

  Formula = Ge3Si57O120F6                                               

  Number of irreducible atoms/shells =     312


  Total number atoms/shells =     312

  Dimensionality = 3               :  Bulk   


  Charge on solid   =  -6.000000 =>neutralising background added


  Cartesian lattice vectors (Angstroms) :

       11.980587    0.000000    0.000000
       -6.080569   10.371321    0.000000
       -0.440718   -0.202487   29.415492

  Cell parameters (Angstroms/Degrees):

  a =      11.9806    alpha =  89.9061
  b =      12.0224    beta  =  90.8584
  c =      29.4195    gamma = 120.3825

  Initial cell volume =        3655.007645 Angs**3

  Temperature of configuration =  0.000     K 

  Pressure of configuration =         0.000 GPa 

  Fractional coordinates of asymmetric unit :

--------------------------------------------------------------------------------
   No.  Atomic       x           y          z         Charge      Occupancy
        Label      (Frac)      (Frac)     (Frac)        (e)         (Frac)  
--------------------------------------------------------------------------------
      1 Ge    c    0.699600    0.375700    0.033890     4.00000    1.000000    
      2 Si    c    0.613087 *  0.326043 *  0.367715 *   4.00000    1.000000    
      3 Si    c    0.680488 *  0.304975 *  0.697332 *   4.00000    1.000000    
      4 Si    c    0.290866 *  0.626370 *  0.530345 *   4.00000    1.000000    
      5 Si    c    0.367336 *  0.681798 *  0.859798 *   4.00000    1.000000    
      6 Si    c    0.307385 *  0.698935 *  0.195076 *   4.00000    1.000000    
      7 Si    c    0.367221 *  0.700817 *  0.297465 *   4.00000    1.000000    
      8 Si    c    0.309215 *  0.615645 *  0.961869 *   4.00000    1.000000    
      9 Si    c    0.298014 *  0.683808 *  0.631058 *   4.00000    1.000000    
     10 Si    c    0.632598 *  0.306967 *  0.797933 *   4.00000    1.000000    
     11 Si    c    0.669530 *  0.386624 *  0.468381 *   4.00000    1.000000    
     12 Si    c    0.668621 *  0.304795 *  0.132574 *   4.00000    1.000000    
     13 Si    c    0.524168 *  0.410282 *  0.963872 *   4.00000    1.000000    
     14 Si    c    0.582538 *  0.121818 *  0.302163 *   4.00000    1.000000    
     15 Si    c    0.889361 *  0.477927 *  0.633330 *   4.00000    1.000000    
     16 Si    c    0.460680 *  0.588731 *  0.465080 *   4.00000    1.000000    
     17 Si    c    0.420152 *  0.901374 *  0.797543 *   4.00000    1.000000    
     18 Si    c    0.092401 *  0.522223 *  0.129493 *   4.00000    1.000000    
     19 Si    c    0.408329 *  0.530363 *  0.363373 *   4.00000    1.000000    
     20 Si    c    0.094883 *  0.573840 *  0.025932 *   4.00000    1.000000    
     21 Si    c    0.470051 *  0.897263 *  0.696204 *   4.00000    1.000000    
     22 Si    c    0.584012 *  0.469899 *  0.860470 *   4.00000    1.000000    
     23 Si    c    0.884371 *  0.424080 *  0.531785 *   4.00000    1.000000    
     24 Ge    c    0.514031 *  0.091605 *  0.202864 *   4.00000    1.000000    
     25 Ge    c    0.310297 *  0.413114 *  0.852853 *   4.00000    1.000000    
     26 Si    c    0.592126 *  0.900404 *  0.178183 *   4.00000    1.000000    
     27 Si    c    0.090435 *  0.703664 *  0.516082 *   4.00000    1.000000    
     28 Si    c    0.687761 *  0.601419 *  0.350726 *   4.00000    1.000000    
     29 Si    c    0.400149 *  0.106630 *  0.682284 *   4.00000    1.000000    
     30 Si    c    0.880885 *  0.286067 *  0.010441 *   4.00000    1.000000    
     31 Si    c    0.390152 *  0.308908 *  0.480433 *   4.00000    1.000000    
     32 Si    c    0.878042 *  0.592013 *  0.142230 *   4.00000    1.000000    
     33 Si    c    0.705291 *  0.104111 *  0.811862 *   4.00000    1.000000    
     34 Si    c    0.591440 *  0.694636 *  0.977559 *   4.00000    1.000000    
     35 Si    c    0.098243 *  0.404864 *  0.646838 *   4.00000    1.000000    
     36 Si    c    0.293714 *  0.906429 *  0.313289 *   4.00000    1.000000    
     37 Si    c    0.239345 *  0.330281 *  0.948196 *   4.00000    1.000000    
     38 Si    c    0.653989 *  0.916016 *  0.281654 *   4.00000    1.000000    
     39 Si    c    0.089017 *  0.756802 *  0.616962 *   4.00000    1.000000    
     40 Si    c    0.740077 *  0.665925 *  0.451314 *   4.00000    1.000000    
     41 Si    c    0.345685 *  0.104200 *  0.783147 *   4.00000    1.000000    
     42 Si    c    0.887235 *  0.240104 *  0.114057 *   4.00000    1.000000    
     43 Si    c    0.331363 *  0.253140 *  0.379403 *   4.00000    1.000000    
     44 Si    c    0.894667 *  0.657662 *  0.039868 *   4.00000    1.000000    
     45 Si    c    0.751483 *  0.096726 *  0.711003 *   4.00000    1.000000    
     46 Si    c    0.653685 *  0.749965 *  0.875964 *   4.00000    1.000000    
     47 Si    c    0.083974 *  0.345409 *  0.545612 *   4.00000    1.000000    
     48 Si    c    0.233407 *  0.910206 *  0.210880 *   4.00000    1.000000    
     49 Si    c    0.965483 *  0.116480 *  0.963333 *   4.00000    1.000000    
     50 Si    c    0.865770 *  0.844862 *  0.297749 *   4.00000    1.000000    
     51 Si    c    0.149619 *  0.035923 *  0.631379 *   4.00000    1.000000    
     52 Si    c    0.021950 *  0.883172 *  0.464790 *   4.00000    1.000000    
     53 Si    c    0.124779 *  0.161900 *  0.798657 *   4.00000    1.000000    
     54 Si    c    0.835724 *  0.963806 *  0.129922 *   4.00000    1.000000    
     55 Si    c    0.112875 *  0.971734 *  0.363326 *   4.00000    1.000000    
     56 Si    c    0.841396 *  0.877023 *  0.028888 *   4.00000    1.000000    
     57 Si    c    0.030323 *  0.156516 *  0.696884 *   4.00000    1.000000    
     58 Si    c    0.880783 *  0.028400 *  0.861488 *   4.00000    1.000000    
     59 Si    c    0.143798 *  0.127329 *  0.530436 *   4.00000    1.000000    
     60 Si    c    0.948128 *  0.837431 *  0.195854 *   4.00000    1.000000    
     61 O2    c    0.917440 *  0.997247 *  0.996807 *   0.87073    1.000000    
     62 O2    c    0.993516 *  0.929268 *  0.328411 *   0.87073    1.000000    
     63 O2    c    0.069702 *  0.077748 *  0.662981 *   0.87073    1.000000    
     64 O2    c    0.067119 *  0.008458 *  0.495766 *   0.87073    1.000000    
     65 O2    c    0.999874 *  0.066603 *  0.828822 *   0.87073    1.000000    
     66 O2    c    0.916995 *  0.926806 *  0.164045 *   0.87073    1.000000    
     67 O2    c    0.332233 *  0.579468 *  0.329746 *   0.87073    1.000000    
     68 O2    c    0.421890 *  0.771249 *  0.663768 *   0.87073    1.000000    
     69 O2    c    0.222956 *  0.649697 *  0.995160 *   0.87073    1.000000    
     70 O2    c    0.673378 *  0.429440 *  0.831423 *   0.87073    1.000000    
     71 O3    c    0.564230 *  0.230517 *  0.169427 *   1.33043    1.000000    
     72 O2    c    0.753718 *  0.347141 *  0.500682 *   0.87073    1.000000    
     73 O3    c    0.566895 *  0.335649 *  0.996526 *   1.33043    1.000000    
     74 O2    c    0.765107 *  0.429454 *  0.665406 *   0.87073    1.000000    
     75 O2    c    0.654430 *  0.237329 *  0.339333 *   0.87073    1.000000    
     76 O2    c    0.412052 *  0.665107 *  0.496818 *   0.87073    1.000000    
     77 O2    c    0.218450 *  0.574688 *  0.162859 *   0.87073    1.000000    
     78 O2    c    0.339798 *  0.780230 *  0.831033 *   0.87073    1.000000    
     79 O2    c    0.117817 *  0.209486 *  0.973390 *   0.87073    1.000000    
     80 O2    c    0.776332 *  0.909426 *  0.302564 *   0.87073    1.000000    
     81 O2    c    0.089127 *  0.882252 *  0.637087 *   0.87073    1.000000    
     82 O2    c    0.867433 *  0.793962 *  0.470878 *   0.87073    1.000000    
     83 O2    c    0.223241 *  0.105928 *  0.804127 *   0.87073    1.000000    
     84 O2    c    0.889861 *  0.116691 *  0.135464 *   0.87073    1.000000    
     85 O2    c    0.204247 *  0.126028 *  0.358805 *   0.87073    1.000000    
     86 O2    c    0.912422 *  0.794795 *  0.023633 *   0.87073    1.000000    
     87 O2    c    0.875823 *  0.095675 *  0.690369 *   0.87073    1.000000    
     88 O2    c    0.780540 *  0.874762 *  0.856382 *   0.87073    1.000000    
     89 O2    c    0.079961 *  0.217344 *  0.525577 *   0.87073    1.000000    
     90 O2    c    0.100539 *  0.896475 *  0.192156 *   0.87073    1.000000    
     91 O2    c    0.907173 *  0.847299 *  0.246378 *   0.87073    1.000000    
     92 O2    c    0.131807 *  0.070591 *  0.580192 *   0.87073    1.000000    
     93 O2    c    0.933502 *  0.060740 *  0.912784 *   0.87073    1.000000    
     94 O2    c    0.069738 *  0.139397 *  0.746916 *   0.87073    1.000000    
     95 O2    c    0.853726 *  0.928704 *  0.079676 *   0.87073    1.000000    
     96 O2    c    0.057494 *  0.929731 *  0.413231 *   0.87073    1.000000    
     97 O2    c    0.892003 *  0.194670 *  0.972840 *   0.87073    1.000000    
     98 O2    c    0.785690 *  0.695857 *  0.312220 *   0.87073    1.000000    
     99 O2    c    0.302262 *  0.107799 *  0.643431 *   0.87073    1.000000    
    100 O2    c    0.090657 *  0.801314 *  0.477538 *   0.87073    1.000000    
    101 O3    c    0.195931 *  0.308033 *  0.810495 *   1.33043    1.000000    
    102 O2    c    0.683834 *  0.882921 *  0.142096 *   0.87073    1.000000    
    103 O2    c    0.197397 *  0.904747 *  0.351775 *   0.87073    1.000000    
    104 O2    c    0.688460 *  0.790471 *  0.016873 *   0.87073    1.000000    
    105 O2    c    0.101437 *  0.308820 *  0.684857 *   0.87073    1.000000    
    106 O2    c    0.802969 *  0.102758 *  0.850370 *   0.87073    1.000000    
    107 O2    c    0.295577 *  0.212793 *  0.519025 *   0.87073    1.000000    
    108 O2    c    0.876762 *  0.687769 *  0.180999 *   0.87073    1.000000    
    109 O2    c    0.311401 *  0.649859 *  0.246361 *   0.87073    1.000000    
    110 O2    c    0.352862 *  0.684551 *  0.580418 *   0.87073    1.000000    
    111 O2    c    0.310980 *  0.671978 *  0.911539 *   0.87073    1.000000    
    112 O2    c    0.685981 *  0.364158 *  0.747585 *   0.87073    1.000000    
    113 O3    c    0.607334 *  0.297493 *  0.083128 *   1.33043    1.000000    
    114 O2    c    0.670932 *  0.331121 *  0.418243 *   0.87073    1.000000    
    115 O2    c    0.366337 *  0.325696 *  0.964208 *   0.87073    1.000000    
    116 O2    c    0.665894 *  0.047150 *  0.301438 *   0.87073    1.000000    
    117 O2    c    0.957882 *  0.634043 *  0.635477 *   0.87073    1.000000    
    118 O2    c    0.617663 *  0.677315 *  0.467712 *   0.87073    1.000000    
    119 O2    c    0.334420 *  0.970441 *  0.799890 *   0.87073    1.000000    
    120 O2    c    0.021299 *  0.366814 *  0.131129 *   0.87073    1.000000    
    121 O2    c    0.321004 *  0.374096 *  0.359474 *   0.87073    1.000000    
    122 O2    c    0.025626 *  0.659552 *  0.023635 *   0.87073    1.000000    
    123 O2    c    0.626303 *  0.965192 *  0.692431 *   0.87073    1.000000    
    124 O2    c    0.663046 *  0.627461 *  0.859107 *   0.87073    1.000000    
    125 O2    c    0.950831 *  0.335545 *  0.527145 *   0.87073    1.000000    
    126 O3    c    0.346483 *  0.040055 *  0.191847 *   1.33043    1.000000    
    127 O3    c    0.749360 *  0.281562 *  0.001174 *   1.33043    1.000000    
    128 O2    c    0.685461 *  0.466668 *  0.343364 *   0.87073    1.000000    
    129 O2    c    0.536501 *  0.238308 *  0.674214 *   0.87073    1.000000    
    130 O2    c    0.222924 *  0.701691 *  0.507716 *   0.87073    1.000000    
    131 O3    c    0.292624 *  0.545963 *  0.835125 *   1.33043    1.000000    
    132 O2    c    0.451468 *  0.767569 *  0.174603 *   0.87073    1.000000    
    133 O2    c    0.295415 *  0.772857 *  0.317816 *   0.87073    1.000000    
    134 O2    c    0.455697 *  0.691970 *  0.982765 *   0.87073    1.000000    
    135 O2    c    0.232654 *  0.540669 *  0.653031 *   0.87073    1.000000    
    136 O2    c    0.708777 *  0.239011 *  0.819597 *   0.87073    1.000000    
    137 O2    c    0.524830 *  0.311081 *  0.488886 *   0.87073    1.000000    
    138 O2    c    0.746220 *  0.458068 *  0.148581 *   0.87073    1.000000    
    139 O3    c    0.766579 *  0.544675 *  0.018583 *   1.33043    1.000000    
    140 O2    c    0.456130 *  0.249512 *  0.361241 *   0.87073    1.000000    
    141 O2    c    0.754825 *  0.224209 *  0.691638 *   0.87073    1.000000    
    142 O2    c    0.210059 *  0.469917 *  0.525364 *   0.87073    1.000000    
    143 O2    c    0.524824 *  0.746529 *  0.857867 *   0.87073    1.000000    
    144 O2    c    0.239688 *  0.785234 *  0.192688 *   0.87073    1.000000    
    145 O2    c    0.521987 *  0.793011 *  0.298689 *   0.87073    1.000000    
    146 O2    c    0.243293 *  0.461406 *  0.965666 *   0.87073    1.000000    
    147 O2    c    0.215710 *  0.756624 *  0.635778 *   0.87073    1.000000    
    148 O2    c    0.476738 *  0.225577 *  0.802957 *   0.87073    1.000000    
    149 O2    c    0.739780 *  0.542379 *  0.472724 *   0.87073    1.000000    
    150 O2    c    0.767009 *  0.246491 *  0.133624 *   0.87073    1.000000    
    151 O3    c    0.207083 *  0.304363 *  0.895556 *   1.33043    1.000000    
    152 O2    c    0.665041 *  0.914225 *  0.227251 *   0.87073    1.000000    
    153 O2    c    0.088419 *  0.774690 *  0.562421 *   0.87073    1.000000    
    154 O2    c    0.760030 *  0.678629 *  0.396916 *   0.87073    1.000000    
    155 O2    c    0.328885 *  0.106829 *  0.728463 *   0.87073    1.000000    
    156 O2    c    0.884905 *  0.224070 *  0.059711 *   0.87073    1.000000    
    157 O2    c    0.314281 *  0.236970 *  0.433735 *   0.87073    1.000000    
    158 O2    c    0.887926 *  0.664663 *  0.095235 *   0.87073    1.000000    
    159 O2    c    0.772880 *  0.097907 *  0.765408 *   0.87073    1.000000    
    160 O2    c    0.662056 *  0.761187 *  0.930801 *   0.87073    1.000000    
    161 O2    c    0.089443 *  0.330045 *  0.599922 *   0.87073    1.000000    
    162 O2    c    0.225891 *  0.910325 *  0.266127 *   0.87073    1.000000    
    163 O2    c    0.568489 *  0.553192 *  0.983917 *   0.87073    1.000000    
    164 O2    c    0.436943 *  0.026557 *  0.321471 *   0.87073    1.000000    
    165 O2    c    0.975900 *  0.422782 *  0.655845 *   0.87073    1.000000    
    166 O2    c    0.405303 *  0.448480 *  0.488132 *   0.87073    1.000000    
    167 O2    c    0.563580 *  0.981364 *  0.820571 *   0.87073    1.000000    
    168 O2    c    0.002216 *  0.573865 *  0.149552 *   0.87073    1.000000    
    169 O2    c    0.549598 *  0.591031 *  0.340423 *   0.87073    1.000000    
    170 O2    c    0.005900 *  0.431181 *  0.005107 *   0.87073    1.000000    
    171 O2    c    0.410116 *  0.979342 *  0.673383 *   0.87073    1.000000    
    172 O3    c    0.448181 *  0.409077 *  0.834181 *   1.33043    1.000000    
    173 O2    c    0.963609 *  0.563858 *  0.507246 *   0.87073    1.000000    
    174 O3    c    0.585617 *  0.024418 *  0.166249 *   1.33043    1.000000    
    175 O3    c    0.586786 *  0.183188 *  0.254221 *   1.33043    1.000000    
    176 O2    c    0.833595 *  0.423362 *  0.582534 *   0.87073    1.000000    
    177 O2    c    0.576977 *  0.419421 *  0.912415 *   0.87073    1.000000    
    178 O2    c    0.418193 *  0.844754 *  0.747030 *   0.87073    1.000000    
    179 O2    c    0.139624 *  0.571618 *  0.078391 *   0.87073    1.000000    
    180 O2    c    0.406114 *  0.585117 *  0.413580 *   0.87073    1.000000    
    181 F     c    0.459438 *  0.944310 *  0.238401 *   0.56000    1.000000    
    182 F     c    0.093840 *  0.554104 *  0.579339 *   0.56000    1.000000    
    183 F     c    0.416336 *  0.519496 *  0.901264 *   0.56000    1.000000    
    184 F     c    0.554856 *  0.106144 *  0.745994 *   0.56000    1.000000    
    185 F     c    0.849140 *  0.432984 *  0.069315 *   0.56000    1.000000    
    186 F     c    0.537553 *  0.457043 *  0.413459 *   0.56000    1.000000    
    187 O2    s    0.913860 *  0.996644 *  0.996778 *  -2.87073    1.000000    
    188 O2    s    0.992541 *  0.924624 *  0.328868 *  -2.87073    1.000000    
    189 O2    s    0.074442 *  0.081642 *  0.663108 *  -2.87073    1.000000    
    190 O2    s    0.070513 *  0.007508 *  0.496112 *  -2.87073    1.000000    
    191 O2    s    0.999251 *  0.072068 *  0.829413 *  -2.87073    1.000000    
    192 O2    s    0.911353 *  0.920961 *  0.163786 *  -2.87073    1.000000    
    193 O2    s    0.343488 *  0.587596 *  0.329603 *  -2.87073    1.000000    
    194 O2    s    0.413808 *  0.774920 *  0.663636 *  -2.87073    1.000000    
    195 O2    s    0.218427 *  0.638413 *  0.994983 *  -2.87073    1.000000    
    196 O2    s    0.660448 *  0.421040 *  0.830896 *  -2.87073    1.000000    
    197 O3    s    0.572157 *  0.228736 *  0.167757 *  -3.33043    1.000000    
    198 O2    s    0.758132 *  0.359213 *  0.500419 *  -2.87073    1.000000    
    199 O3    s    0.571500 *  0.346761 *  0.995542 *  -3.33043    1.000000    
    200 O2    s    0.769549 *  0.421837 *  0.665297 *  -2.87073    1.000000    
    201 O2    s    0.642804 *  0.234567 *  0.338443 *  -2.87073    1.000000    
    202 O2    s    0.404958 *  0.653200 *  0.496870 *  -2.87073    1.000000    
    203 O2    s    0.214696 *  0.582147 *  0.162778 *  -2.87073    1.000000    
    204 O2    s    0.351040 *  0.782403 *  0.830615 *  -2.87073    1.000000    
    205 O2    s    0.113553 *  0.211537 *  0.969858 *  -2.87073    1.000000    
    206 O2    s    0.772953 *  0.903322 *  0.299890 *  -2.87073    1.000000    
    207 O2    s    0.095498 *  0.885376 *  0.634407 *  -2.87073    1.000000    
    208 O2    s    0.870548 *  0.790101 *  0.468222 *  -2.87073    1.000000    
    209 O2    s    0.226562 *  0.111304 *  0.801350 *  -2.87073    1.000000    
    210 O2    s    0.883904 *  0.113276 *  0.132716 *  -2.87073    1.000000    
    211 O2    s    0.207568 *  0.122660 *  0.361370 *  -2.87073    1.000000    
    212 O2    s    0.902908 *  0.789624 *  0.025859 *  -2.87073    1.000000    
    213 O2    s    0.879186 *  0.102174 *  0.693153 *  -2.87073    1.000000    
    214 O2    s    0.777513 *  0.877543 *  0.858968 *  -2.87073    1.000000    
    215 O2    s    0.087122 *  0.220870 *  0.528107 *  -2.87073    1.000000    
    216 O2    s    0.097853 *  0.891225 *  0.194627 *  -2.87073    1.000000    
    217 O2    s    0.907094 *  0.845922 *  0.246516 *  -2.87073    1.000000    
    218 O2    s    0.135141 *  0.073243 *  0.580163 *  -2.87073    1.000000    
    219 O2    s    0.931218 *  0.063453 *  0.912814 *  -2.87073    1.000000    
    220 O2    s    0.070898 *  0.143742 *  0.746494 *  -2.87073    1.000000    
    221 O2    s    0.850208 *  0.926951 *  0.079797 *  -2.87073    1.000000    
    222 O2    s    0.059882 *  0.929392 *  0.413231 *  -2.87073    1.000000    
    223 O2    s    0.898828 *  0.195858 *  0.975784 *  -2.87073    1.000000    
    224 O2    s    0.784330 *  0.702331 *  0.314610 *  -2.87073    1.000000    
    225 O2    s    0.295837 *  0.100035 *  0.646040 *  -2.87073    1.000000    
    226 O2    s    0.083288 *  0.800247 *  0.480050 *  -2.87073    1.000000    
    227 O3    s    0.195364 *  0.298333 *  0.811919 *  -3.33043    1.000000    
    228 O2    s    0.690413 *  0.893088 *  0.144477 *  -2.87073    1.000000    
    229 O2    s    0.198586 *  0.911858 *  0.348990 *  -2.87073    1.000000    
    230 O2    s    0.694361 *  0.789570 *  0.014055 *  -2.87073    1.000000    
    231 O2    s    0.093783 *  0.303102 *  0.682138 *  -2.87073    1.000000    
    232 O2    s    0.801131 *  0.095059 *  0.847581 *  -2.87073    1.000000    
    233 O2    s    0.289320 *  0.213767 *  0.516196 *  -2.87073    1.000000    
    234 O2    s    0.884553 *  0.694127 *  0.178661 *  -2.87073    1.000000    
    235 O2    s    0.316701 *  0.660049 *  0.246387 *  -2.87073    1.000000    
    236 O2    s    0.340984 *  0.678508 *  0.580379 *  -2.87073    1.000000    
    237 O2    s    0.316098 *  0.667034 *  0.911886 *  -2.87073    1.000000    
    238 O2    s    0.679933 *  0.352175 *  0.747564 *  -2.87073    1.000000    
    239 O3    s    0.619732 *  0.303584 *  0.084609 *  -3.33043    1.000000    
    240 O2    s    0.664639 *  0.336431 *  0.418113 *  -2.87073    1.000000    
    241 O2    s    0.368545 *  0.334693 *  0.962424 *  -2.87073    1.000000    
    242 O2    s    0.656632 *  0.040538 *  0.299418 *  -2.87073    1.000000    
    243 O2    s    0.964650 *  0.630888 *  0.633289 *  -2.87073    1.000000    
    244 O2    s    0.614394 *  0.667039 *  0.465704 *  -2.87073    1.000000    
    245 O2    s    0.344693 *  0.977164 *  0.797863 *  -2.87073    1.000000    
    246 O2    s    0.015297 *  0.370422 *  0.129239 *  -2.87073    1.000000    
    247 O2    s    0.331051 *  0.377782 *  0.361922 *  -2.87073    1.000000    
    248 O2    s    0.019866 *  0.650334 *  0.025502 *  -2.87073    1.000000    
    249 O2    s    0.623337 *  0.972017 *  0.694780 *  -2.87073    1.000000    
    250 O2    s    0.654143 *  0.624882 *  0.861063 *  -2.87073    1.000000    
    251 O2    s    0.957860 *  0.345680 *  0.529543 *  -2.87073    1.000000    
    252 O3    s    0.345276 *  0.029289 *  0.194681 *  -3.33043    1.000000    
    253 O3    s    0.760514 *  0.288159 *  0.004363 *  -3.33043    1.000000    
    254 O2    s    0.678297 *  0.466466 *  0.346641 *  -2.87073    1.000000    
    255 O2    s    0.536914 *  0.231283 *  0.677457 *  -2.87073    1.000000    
    256 O2    s    0.215979 *  0.694209 *  0.510928 *  -2.87073    1.000000    
    257 O3    s    0.301692 *  0.551143 *  0.838966 *  -3.33043    1.000000    
    258 O2    s    0.450274 *  0.773561 *  0.177149 *  -2.87073    1.000000    
    259 O2    s    0.302725 *  0.779169 *  0.315208 *  -2.87073    1.000000    
    260 O2    s    0.454844 *  0.684474 *  0.980084 *  -2.87073    1.000000    
    261 O2    s    0.225270 *  0.541142 *  0.650077 *  -2.87073    1.000000    
    262 O2    s    0.700573 *  0.231723 *  0.816509 *  -2.87073    1.000000    
    263 O2    s    0.525567 *  0.318723 *  0.485815 *  -2.87073    1.000000    
    264 O2    s    0.753723 *  0.458740 *  0.146333 *  -2.87073    1.000000    
    265 O3    s    0.776534 *  0.546546 *  0.021828 *  -3.33043    1.000000    
    266 O2    s    0.458816 *  0.257797 *  0.363803 *  -2.87073    1.000000    
    267 O2    s    0.746655 *  0.218839 *  0.694272 *  -2.87073    1.000000    
    268 O2    s    0.204806 *  0.472724 *  0.528010 *  -2.87073    1.000000    
    269 O2    s    0.523358 *  0.740364 *  0.860034 *  -2.87073    1.000000    
    270 O2    s    0.246519 *  0.788527 *  0.194769 *  -2.87073    1.000000    
    271 O2    s    0.519401 *  0.796338 *  0.296722 *  -2.87073    1.000000    
    272 O2    s    0.250086 *  0.464987 *  0.963516 *  -2.87073    1.000000    
    273 O2    s    0.210316 *  0.748921 *  0.633238 *  -2.87073    1.000000    
    274 O2    s    0.478929 *  0.220797 *  0.800298 *  -2.87073    1.000000    
    275 O2    s    0.732340 *  0.539525 *  0.469966 *  -2.87073    1.000000    
    276 O2    s    0.771315 *  0.251564 *  0.131309 *  -2.87073    1.000000    
    277 O3    s    0.217318 *  0.314309 *  0.898196 *  -3.33043    1.000000    
    278 O2    s    0.656704 *  0.913123 *  0.228330 *  -2.87073    1.000000    
    279 O2    s    0.088690 *  0.765318 *  0.563244 *  -2.87073    1.000000    
    280 O2    s    0.750273 *  0.669114 *  0.397773 *  -2.87073    1.000000    
    281 O2    s    0.338173 *  0.106535 *  0.729276 *  -2.87073    1.000000    
    282 O2    s    0.884757 *  0.231842 *  0.060758 *  -2.87073    1.000000    
    283 O2    s    0.323963 *  0.246165 *  0.432767 *  -2.87073    1.000000    
    284 O2    s    0.887504 *  0.656074 *  0.094855 *  -2.87073    1.000000    
    285 O2    s    0.763540 *  0.098421 *  0.764506 *  -2.87073    1.000000    
    286 O2    s    0.653679 *  0.752953 *  0.930047 *  -2.87073    1.000000    
    287 O2    s    0.089776 *  0.339481 *  0.598975 *  -2.87073    1.000000    
    288 O2    s    0.233963 *  0.909919 *  0.265605 *  -2.87073    1.000000    
    289 O2    s    0.566439 *  0.554917 *  0.981143 *  -2.87073    1.000000    
    290 O2    s    0.435542 *  0.022566 *  0.318632 *  -2.87073    1.000000    
    291 O2    s    0.980220 *  0.426821 *  0.652500 *  -2.87073    1.000000    
    292 O2    s    0.409683 *  0.448125 *  0.484845 *  -2.87073    1.000000    
    293 O2    s    0.563846 *  0.986340 *  0.817221 *  -2.87073    1.000000    
    294 O2    s    0.998852 *  0.570182 *  0.146658 *  -2.87073    1.000000    
    295 O2    s    0.549440 *  0.585699 *  0.343896 *  -2.87073    1.000000    
    296 O2    s    0.002946 *  0.432212 *  0.007915 *  -2.87073    1.000000    
    297 O2    s    0.415429 *  0.984555 *  0.676703 *  -2.87073    1.000000    
    298 O3    s    0.451988 *  0.415743 *  0.838194 *  -3.33043    1.000000    
    299 O2    s    0.969194 *  0.564451 *  0.510700 *  -2.87073    1.000000    
    300 O3    s    0.581480 *  0.015120 *  0.169906 *  -3.33043    1.000000    
    301 O3    s    0.581463 *  0.170507 *  0.255891 *  -3.33043    1.000000    
    302 O2    s    0.844834 *  0.429137 *  0.582439 *  -2.87073    1.000000    
    303 O2    s    0.572318 *  0.423632 *  0.912344 *  -2.87073    1.000000    
    304 O2    s    0.423753 *  0.855944 *  0.746949 *  -2.87073    1.000000    
    305 O2    s    0.130159 *  0.566659 *  0.078483 *  -2.87073    1.000000    
    306 O2    s    0.411874 *  0.579766 *  0.413560 *  -2.87073    1.000000    
    307 F     s    0.463361 *  0.954562 *  0.235888 *  -1.56000    1.000000    
    308 F     s    0.094186 *  0.554255 *  0.579097 *  -1.56000    1.000000    
    309 F     s    0.409122 *  0.512678 *  0.898142 *  -1.56000    1.000000    
    310 F     s    0.555314 *  0.106589 *  0.745874 *  -1.56000    1.000000    
    311 F     s    0.838629 *  0.429252 *  0.066740 *  -1.56000    1.000000    
    312 F     s    0.537594 *  0.456986 *  0.413204 *  -1.56000    1.000000    
--------------------------------------------------------------------------------



********************************************************************************
*  General input information                                                   *
********************************************************************************

  Species output for all configurations : 

--------------------------------------------------------------------------------
  Species    Type    Atomic    Atomic    Charge       Radii (Angs)     Library
                     Number     Mass       (e)     Cova   Ionic  VDW   Symbol
--------------------------------------------------------------------------------
    Si       Core       14      28.09   4.000000   1.200  0.000  2.100          
    O1       Core        8      16.00   1.733957   0.730  0.000  1.360          
    O1       Shell       8       0.00  -3.733957   0.730  0.000  1.360          
    O2       Core        8      16.00   0.870733   0.730  0.000  1.360          
    O2       Shell       8       0.00  -2.870733   0.730  0.000  1.360          
    O3       Core        8      16.00   1.330431   0.730  0.000  1.360          
    O3       Shell       8       0.00  -3.330431   0.730  0.000  1.360          
    F        Core        9      19.00   0.560000   0.710  0.000  1.300          
    F        Shell       9       0.00  -1.560000   0.710  0.000  1.300          
    Ge       Core       32      72.61   4.000000   1.170  0.000  1.750          
--------------------------------------------------------------------------------


  Lattice summation method               =    Ewald          (3-D)
                                         =    Parry          (2-D)
                                         =    Saunders et al (1-D)
  Accuracy factor for lattice sums       =   12.000


  Time limit = Infinity

  Maximum range for interatomic potentials =        16.000000 Angstroms

  Taper potentials to zero over   1.0000 Angstroms using polynomial

  General interatomic potentials :

--------------------------------------------------------------------------------
Atom  Types   Potential         A         B         C         D     Cutoffs(Ang)
  1     2                                                            Min    Max 
--------------------------------------------------------------------------------
Si   c O1   s Buckingham    0.132E+04 0.318      10.1      0.00     0.000 16.000
Si   c O2   s Buckingham    0.132E+04 0.318      10.1      0.00     0.000 16.000
Si   c O3   s Buckingham    0.132E+04 0.318      10.1      0.00     0.000 16.000
Ge   c O1   s Buckingham    0.150E+04 0.326      16.8      0.00     0.000 16.000
Ge   c O2   s Buckingham    0.150E+04 0.326      16.8      0.00     0.000 16.000
Ge   c O3   s Buckingham    0.150E+04 0.326      16.8      0.00     0.000 16.000
O1   s O1   s Buckingham    0.228E+05 0.149      10.9      0.00     0.000 16.000
O1   s O2   s Buckingham    0.228E+05 0.149      10.9      0.00     0.000 16.000
O1   s O3   s Buckingham    0.228E+05 0.149      10.9      0.00     0.000 16.000
O2   s O2   s Buckingham    0.228E+05 0.149      10.9      0.00     0.000 16.000
O2   s O3   s Buckingham    0.228E+05 0.149      10.9      0.00     0.000 16.000
O3   s O3   s Buckingham    0.228E+05 0.149      10.9      0.00     0.000 16.000
Si   c F    s Buckingham     977.     0.282      0.00      0.00     0.000 16.000
Ge   c F    s Buckingham     681.     0.320      0.00      0.00     0.000 16.000
F    s F    s Buckingham     540.     0.262      0.00      0.00     0.000 16.000
O1   s F    s Buckingham    0.168E+04 0.268      0.00      0.00     0.000 16.000
O2   s F    s Buckingham    0.168E+04 0.268      0.00      0.00     0.000 16.000
O3   s F    s Buckingham    0.168E+04 0.268      0.00      0.00     0.000 16.000
O2   c O2   s Spring (c-s)   76.0      0.00      0.00      0.00     0.000  0.800
O3   c O3   s Spring (c-s)   128.      0.00      0.00      0.00     0.000  0.800
O1   c O1   s Spring (c-s)   180.      0.00      0.00      0.00     0.000  0.800
F    c F    s Spring (c-s)   33.5      0.00      0.00      0.00     0.000  0.800
--------------------------------------------------------------------------------

  General Three-body potentials :

  Harmonic form:

--------------------------------------------------------------------------------
Atom    Atom    Atom           Force Constants            Theta     Cutoffs  
  1       2       3     (eVrad**-2/eVrad**-3/eVrad**-4)   (deg)  1-2  1-3  2-3
--------------------------------------------------------------------------------
Si    c O1    s O1    s  1.261        0.0000    0.0000   109.470 0.00 0.00 0.00
                                                                 1.90 1.90 3.50
Si    c O1    s O2    s  1.261        0.0000    0.0000   109.470 0.00 0.00 0.00
                                                                 1.90 1.90 3.50
Si    c O2    s O2    s  1.261        0.0000    0.0000   109.470 0.00 0.00 0.00
                                                                 1.90 1.90 3.50
--------------------------------------------------------------------------------

********************************************************************************
*  Output for configuration   1                                                *
********************************************************************************


  Components of energy : 

--------------------------------------------------------------------------------
  Interatomic potentials     =        2066.97784752 eV
  Three-body potentials      =           0.48799414 eV
  Monopole - monopole (real) =       -6616.57746000 eV
  Monopole - monopole (recip)=       -3171.85845203 eV
  Monopole - monopole (total)=       -9788.43591203 eV
  Neutralising energy        =          -6.46109086 eV
--------------------------------------------------------------------------------
  Total lattice energy       =       -7727.43116123 eV
--------------------------------------------------------------------------------
  Total lattice energy       =         -745578.9825 kJ/(mole unit cells)
--------------------------------------------------------------------------------


  Number of variables =      939

  Maximum number of calculations  =          5000
  Maximum Hessian update interval =            10
  Maximum step size               =   0.100000000
  Maximum parameter tolerance     =   0.000010000
  Maximum function  tolerance     =   0.000010000
  Maximum gradient  tolerance     =   0.001000000
  Maximum gradient  component     =   0.010000000

  Symmetry not applied to optimisation

  Cell parameters to be optimised using strains

  Newton-Raphson optimiser to be used

  BFGS hessian update to be used

  Dumpfile to be written after every cycle

  Start of bulk optimisation :

  Cycle:      0 Energy:     -7727.431161  Gnorm:      0.000255  CPU:    2.029
  ** Hessian calculated **
  Cycle:      1 Energy:     -7727.437393  Gnorm:      0.000207  CPU:    6.780
  Cycle:      2 Energy:     -7727.439698  Gnorm:      0.000250  CPU:   11.151
  Cycle:      3 Energy:     -7727.440274  Gnorm:      0.000174  CPU:   15.523
  Cycle:      4 Energy:     -7727.440418  Gnorm:      0.000100  CPU:   19.896
  Cycle:      5 Energy:     -7727.440443  Gnorm:      0.000072  CPU:   22.838
  Cycle:      6 Energy:     -7727.440455  Gnorm:      0.000051  CPU:   25.779
  Cycle:      7 Energy:     -7727.440461  Gnorm:      0.000036  CPU:   28.722


  **** Optimisation achieved ****


  Final energy =   -7727.44046403 eV
  Final Gnorm  =       0.00002520

  Components of energy : 

--------------------------------------------------------------------------------
  Interatomic potentials     =        2066.91204477 eV
  Three-body potentials      =           0.48830550 eV
  Monopole - monopole (real) =       -6616.98591943 eV
  Monopole - monopole (recip)=       -3171.39474809 eV
  Monopole - monopole (total)=       -9788.38066752 eV
  Neutralising energy        =          -6.46014678 eV
--------------------------------------------------------------------------------
  Total lattice energy       =       -7727.44046403 eV
--------------------------------------------------------------------------------
  Total lattice energy       =         -745579.8800 kJ/(mole unit cells)
--------------------------------------------------------------------------------

  Final fractional coordinates of atoms :

--------------------------------------------------------------------------------
   No.  Atomic        x           y          z          Radius
        Label       (Frac)      (Frac)     (Frac)       (Angs) 
--------------------------------------------------------------------------------
     1  Ge    c     0.699600    0.375700    0.033890    0.000000
     2  Si    c     0.605017    0.325232    0.368149    0.000000
     3  Si    c     0.673401    0.303084    0.697673    0.000000
     4  Si    c     0.283548    0.625574    0.531253    0.000000
     5  Si    c     0.362408    0.681304    0.860836    0.000000
     6  Si    c     0.301294    0.698071    0.196067    0.000000
     7  Si    c     0.360922    0.701161    0.298534    0.000000
     8  Si    c     0.305950    0.614112    0.962927    0.000000
     9  Si    c     0.290382    0.682762    0.631999    0.000000
    10  Si    c     0.626932    0.306174    0.798314    0.000000
    11  Si    c     0.661921    0.385414    0.468867    0.000000
    12  Si    c     0.663404    0.302832    0.132504    0.000000
    13  Si    c     0.522222    0.409645    0.964183    0.000000
    14  Si    c     0.575444    0.121790    0.302333    0.000000
    15  Si    c     0.881773    0.476594    0.633673    0.000000
    16  Si    c     0.453407    0.587806    0.466138    0.000000
    17  Si    c     0.414312    0.900856    0.798676    0.000000
    18  Si    c     0.087081    0.520367    0.130715    0.000000
    19  Si    c     0.400771    0.529880    0.364438    0.000000
    20  Si    c     0.092612    0.573556    0.027190    0.000000
    21  Si    c     0.462978    0.895800    0.697260    0.000000
    22  Si    c     0.579506    0.469951    0.860620    0.000000
    23  Si    c     0.877162    0.423103    0.532128    0.000000
    24  Ge    c     0.506972    0.090427    0.202979    0.000000
    25  Ge    c     0.305810    0.412870    0.853416    0.000000
    26  Si    c     0.585496    0.899315    0.178640    0.000000
    27  Si    c     0.083209    0.702737    0.516720    0.000000
    28  Si    c     0.679850    0.600868    0.351514    0.000000
    29  Si    c     0.392920    0.104929    0.683007    0.000000
    30  Si    c     0.880017    0.285715    0.011087    0.000000
    31  Si    c     0.382830    0.307905    0.481188    0.000000
    32  Si    c     0.872543    0.589928    0.142981    0.000000
    33  Si    c     0.699575    0.103467    0.812726    0.000000
    34  Si    c     0.588433    0.693476    0.978035    0.000000
    35  Si    c     0.090539    0.403645    0.647450    0.000000
    36  Si    c     0.286901    0.906479    0.313879    0.000000
    37  Si    c     0.237101    0.329240    0.948854    0.000000
    38  Si    c     0.647331    0.916079    0.282199    0.000000
    39  Si    c     0.081306    0.755500    0.617603    0.000000
    40  Si    c     0.732636    0.664950    0.452129    0.000000
    41  Si    c     0.339943    0.103648    0.783969    0.000000
    42  Si    c     0.882601    0.238529    0.114804    0.000000
    43  Si    c     0.323546    0.252575    0.380152    0.000000
    44  Si    c     0.892578    0.657700    0.040663    0.000000
    45  Si    c     0.744460    0.095050    0.711772    0.000000
    46  Si    c     0.648908    0.749637    0.876380    0.000000
    47  Si    c     0.076735    0.344472    0.546208    0.000000
    48  Si    c     0.226593    0.908920    0.211368    0.000000
    49  Si    c     0.963320    0.115376    0.963856    0.000000
    50  Si    c     0.858458    0.844014    0.298362    0.000000
    51  Si    c     0.142289    0.034607    0.632066    0.000000
    52  Si    c     0.014590    0.882210    0.465455    0.000000
    53  Si    c     0.119510    0.162044    0.799271    0.000000
    54  Si    c     0.829157    0.961752    0.130582    0.000000
    55  Si    c     0.105528    0.971196    0.363975    0.000000
    56  Si    c     0.838040    0.876250    0.029609    0.000000
    57  Si    c     0.023418    0.155466    0.697594    0.000000
    58  Si    c     0.875683    0.028098    0.862098    0.000000
    59  Si    c     0.136514    0.126288    0.531101    0.000000
    60  Si    c     0.940927    0.834713    0.196606    0.000000
    61  O2    c     0.914534    0.996470    0.997545    0.000000
    62  O2    c     0.986246    0.928336    0.328996    0.000000
    63  O2    c     0.062771    0.076830    0.663654    0.000000
    64  O2    c     0.059706    0.007517    0.496403    0.000000
    65  O2    c     0.994489    0.066815    0.829326    0.000000
    66  O2    c     0.909166    0.923510    0.164772    0.000000
    67  O2    c     0.325238    0.579854    0.330919    0.000000
    68  O2    c     0.414013    0.769600    0.664869    0.000000
    69  O2    c     0.221022    0.648814    0.996619    0.000000
    70  O2    c     0.668459    0.429441    0.831420    0.000000
    71  O3    c     0.557752    0.228515    0.169003    0.000000
    72  O2    c     0.746630    0.346068    0.500972    0.000000
    73  O3    c     0.566801    0.335675    0.996294    0.000000
    74  O2    c     0.757273    0.427404    0.665614    0.000000
    75  O2    c     0.646760    0.237322    0.339506    0.000000
    76  O2    c     0.405047    0.664265    0.497915    0.000000
    77  O2    c     0.212502    0.572818    0.164324    0.000000
    78  O2    c     0.334440    0.779968    0.832348    0.000000
    79  O2    c     0.115810    0.207299    0.973756    0.000000
    80  O2    c     0.769937    0.909631    0.302945    0.000000
    81  O2    c     0.081308    0.880870    0.637719    0.000000
    82  O2    c     0.860162    0.792847    0.471633    0.000000
    83  O2    c     0.217851    0.105996    0.804907    0.000000
    84  O2    c     0.884184    0.114711    0.136314    0.000000
    85  O2    c     0.196279    0.125574    0.359594    0.000000
    86  O2    c     0.910140    0.794939    0.024732    0.000000
    87  O2    c     0.868813    0.093862    0.691265    0.000000
    88  O2    c     0.775361    0.874650    0.856750    0.000000
    89  O2    c     0.072909    0.216504    0.526210    0.000000
    90  O2    c     0.093326    0.894356    0.192742    0.000000
    91  O2    c     0.899872    0.844812    0.247088    0.000000
    92  O2    c     0.124585    0.069545    0.580876    0.000000
    93  O2    c     0.929169    0.059413    0.913360    0.000000
    94  O2    c     0.064269    0.139354    0.747543    0.000000
    95  O2    c     0.848119    0.927450    0.080338    0.000000
    96  O2    c     0.049922    0.928571    0.413842    0.000000
    97  O2    c     0.891568    0.195082    0.973446    0.000000
    98  O2    c     0.777626    0.695285    0.313016    0.000000
    99  O2    c     0.294813    0.105882    0.644185    0.000000
   100  O2    c     0.083515    0.800563    0.478197    0.000000
   101  O3    c     0.190707    0.308124    0.811141    0.000000
   102  O2    c     0.677147    0.881676    0.142568    0.000000
   103  O2    c     0.190737    0.905078    0.352340    0.000000
   104  O2    c     0.685566    0.789299    0.017276    0.000000
   105  O2    c     0.093695    0.307611    0.685478    0.000000
   106  O2    c     0.797622    0.102429    0.851220    0.000000
   107  O2    c     0.288269    0.211551    0.519735    0.000000
   108  O2    c     0.870198    0.685042    0.181792    0.000000
   109  O2    c     0.305334    0.649886    0.247469    0.000000
   110  O2    c     0.345271    0.683704    0.581356    0.000000
   111  O2    c     0.306706    0.670835    0.912718    0.000000
   112  O2    c     0.679627    0.362707    0.747868    0.000000
   113  O3    c     0.604867    0.296703    0.082728    0.000000
   114  O2    c     0.662814    0.329945    0.418677    0.000000
   115  O2    c     0.364334    0.325200    0.964862    0.000000
   116  O2    c     0.659075    0.047355    0.301750    0.000000
   117  O2    c     0.950060    0.632654    0.635977    0.000000
   118  O2    c     0.610368    0.676256    0.468697    0.000000
   119  O2    c     0.328654    0.970009    0.800945    0.000000
   120  O2    c     0.016183    0.364986    0.132271    0.000000
   121  O2    c     0.313168    0.373679    0.360354    0.000000
   122  O2    c     0.023945    0.659824    0.024790    0.000000
   123  O2    c     0.619143    0.963418    0.693344    0.000000
   124  O2    c     0.658326    0.627468    0.859227    0.000000
   125  O2    c     0.943776    0.334710    0.527582    0.000000
   126  O3    c     0.339322    0.038759    0.192151    0.000000
   127  O3    c     0.748726    0.281446    0.001360    0.000000
   128  O2    c     0.677275    0.466093    0.343996    0.000000
   129  O2    c     0.529261    0.236294    0.674712    0.000000
   130  O2    c     0.215790    0.700929    0.508470    0.000000
   131  O3    c     0.287551    0.545658    0.836070    0.000000
   132  O2    c     0.445038    0.766296    0.175385    0.000000
   133  O2    c     0.289106    0.773274    0.318745    0.000000
   134  O2    c     0.452591    0.690209    0.983575    0.000000
   135  O2    c     0.224770    0.539416    0.653792    0.000000
   136  O2    c     0.703196    0.238488    0.820167    0.000000
   137  O2    c     0.517444    0.309879    0.489511    0.000000
   138  O2    c     0.740700    0.455880    0.148813    0.000000
   139  O3    c     0.765761    0.544603    0.018794    0.000000
   140  O2    c     0.448088    0.248882    0.361813    0.000000
   141  O2    c     0.747634    0.222207    0.692096    0.000000
   142  O2    c     0.202887    0.469177    0.526141    0.000000
   143  O2    c     0.519828    0.746273    0.858610    0.000000
   144  O2    c     0.233372    0.784149    0.193294    0.000000
   145  O2    c     0.515659    0.793412    0.299615    0.000000
   146  O2    c     0.240139    0.459794    0.966544    0.000000
   147  O2    c     0.207873    0.755349    0.636586    0.000000
   148  O2    c     0.471185    0.225044    0.803605    0.000000
   149  O2    c     0.732207    0.541111    0.473325    0.000000
   150  O2    c     0.761833    0.244572    0.133914    0.000000
   151  O3    c     0.204085    0.303536    0.896234    0.000000
   152  O2    c     0.658254    0.913716    0.227799    0.000000
   153  O2    c     0.080949    0.773603    0.563055    0.000000
   154  O2    c     0.752191    0.677808    0.397717    0.000000
   155  O2    c     0.322457    0.105716    0.729285    0.000000
   156  O2    c     0.882291    0.223227    0.060446    0.000000
   157  O2    c     0.306715    0.236183    0.434494    0.000000
   158  O2    c     0.883809    0.663239    0.095993    0.000000
   159  O2    c     0.766390    0.096722    0.766175    0.000000
   160  O2    c     0.658164    0.760480    0.931218    0.000000
   161  O2    c     0.081891    0.328989    0.600529    0.000000
   162  O2    c     0.218992    0.909441    0.266609    0.000000
   163  O2    c     0.566550    0.552462    0.984318    0.000000
   164  O2    c     0.430037    0.026826    0.321763    0.000000
   165  O2    c     0.968142    0.421435    0.656321    0.000000
   166  O2    c     0.398103    0.447434    0.489108    0.000000
   167  O2    c     0.557852    0.981038    0.821592    0.000000
   168  O2    c     0.996492    0.571638    0.150615    0.000000
   169  O2    c     0.541785    0.590647    0.341339    0.000000
   170  O2    c     0.004348    0.431174    0.006086    0.000000
   171  O2    c     0.402787    0.977546    0.674333    0.000000
   172  O3    c     0.443529    0.409363    0.834415    0.000000
   173  O2    c     0.956510    0.563012    0.507679    0.000000
   174  O3    c     0.578411    0.022849    0.166494    0.000000
   175  O3    c     0.579564    0.182666    0.254276    0.000000
   176  O2    c     0.826218    0.422292    0.582842    0.000000
   177  O2    c     0.573355    0.419250    0.912450    0.000000
   178  O2    c     0.411768    0.843760    0.748191    0.000000
   179  O2    c     0.135789    0.570435    0.079779    0.000000
   180  O2    c     0.398604    0.584366    0.414679    0.000000
   181  F     c     0.452755    0.943766    0.238815    0.000000
   182  F     c     0.086260    0.553191    0.579922    0.000000
   183  F     c     0.412414    0.519120    0.901846    0.000000
   184  F     c     0.548363    0.104860    0.746742    0.000000
   185  F     c     0.847320    0.432369    0.069913    0.000000
   186  F     c     0.529488    0.456115    0.414238    0.000000
   187  O2    s     0.910993    0.995836    0.997487    0.000000
   188  O2    s     0.985265    0.923748    0.329463    0.000000
   189  O2    s     0.067478    0.080661    0.663783    0.000000
   190  O2    s     0.063115    0.006551    0.496754    0.000000
   191  O2    s     0.993899    0.072227    0.829945    0.000000
   192  O2    s     0.903706    0.917847    0.164504    0.000000
   193  O2    s     0.336532    0.587901    0.330755    0.000000
   194  O2    s     0.406037    0.773344    0.664713    0.000000
   195  O2    s     0.216280    0.637508    0.996392    0.000000
   196  O2    s     0.655477    0.420955    0.830946    0.000000
   197  O3    s     0.565734    0.226771    0.167423    0.000000
   198  O2    s     0.750972    0.358127    0.500735    0.000000
   199  O3    s     0.571034    0.346731    0.995322    0.000000
   200  O2    s     0.761832    0.419874    0.665530    0.000000
   201  O2    s     0.635154    0.234478    0.338644    0.000000
   202  O2    s     0.397901    0.652356    0.497942    0.000000
   203  O2    s     0.208773    0.580387    0.164164    0.000000
   204  O2    s     0.345656    0.782091    0.831882    0.000000
   205  O2    s     0.111450    0.209526    0.970280    0.000000
   206  O2    s     0.766446    0.903409    0.300315    0.000000
   207  O2    s     0.087740    0.884014    0.635047    0.000000
   208  O2    s     0.863238    0.789011    0.468975    0.000000
   209  O2    s     0.221155    0.111310    0.802117    0.000000
   210  O2    s     0.878243    0.111349    0.133533    0.000000
   211  O2    s     0.199672    0.122179    0.362137    0.000000
   212  O2    s     0.900541    0.789616    0.026890    0.000000
   213  O2    s     0.872189    0.100450    0.694014    0.000000
   214  O2    s     0.772392    0.877405    0.859368    0.000000
   215  O2    s     0.080023    0.220003    0.528739    0.000000
   216  O2    s     0.090705    0.889135    0.195222    0.000000
   217  O2    s     0.899810    0.843600    0.247216    0.000000
   218  O2    s     0.127900    0.072168    0.580843    0.000000
   219  O2    s     0.927064    0.062278    0.913403    0.000000
   220  O2    s     0.065283    0.143603    0.747127    0.000000
   221  O2    s     0.844748    0.925653    0.080458    0.000000
   222  O2    s     0.052360    0.928328    0.413852    0.000000
   223  O2    s     0.898173    0.196101    0.976424    0.000000
   224  O2    s     0.776355    0.701742    0.315394    0.000000
   225  O2    s     0.288424    0.098201    0.646784    0.000000
   226  O2    s     0.076116    0.799464    0.480704    0.000000
   227  O3    s     0.190167    0.298398    0.812549    0.000000
   228  O2    s     0.683754    0.891764    0.144958    0.000000
   229  O2    s     0.191841    0.912075    0.349567    0.000000
   230  O2    s     0.691464    0.788458    0.014492    0.000000
   231  O2    s     0.086118    0.301903    0.682760    0.000000
   232  O2    s     0.795784    0.094725    0.848421    0.000000
   233  O2    s     0.282015    0.212569    0.516907    0.000000
   234  O2    s     0.878019    0.691462    0.179452    0.000000
   235  O2    s     0.310632    0.660064    0.247474    0.000000
   236  O2    s     0.333418    0.677648    0.581314    0.000000
   237  O2    s     0.311866    0.665917    0.913032    0.000000
   238  O2    s     0.673557    0.350708    0.747865    0.000000
   239  O3    s     0.617150    0.302685    0.084344    0.000000
   240  O2    s     0.656581    0.335286    0.418554    0.000000
   241  O2    s     0.366431    0.334083    0.963046    0.000000
   242  O2    s     0.649831    0.040711    0.299744    0.000000
   243  O2    s     0.956861    0.629516    0.633788    0.000000
   244  O2    s     0.607100    0.666013    0.466679    0.000000
   245  O2    s     0.338907    0.976693    0.798905    0.000000
   246  O2    s     0.010198    0.368604    0.130348    0.000000
   247  O2    s     0.323237    0.377334    0.362805    0.000000
   248  O2    s     0.018113    0.650548    0.026628    0.000000
   249  O2    s     0.616204    0.970271    0.695688    0.000000
   250  O2    s     0.649438    0.624863    0.861218    0.000000
   251  O2    s     0.950766    0.344814    0.529985    0.000000
   252  O3    s     0.338179    0.028044    0.194986    0.000000
   253  O3    s     0.759795    0.288125    0.004619    0.000000
   254  O2    s     0.670143    0.465862    0.347273    0.000000
   255  O2    s     0.529685    0.229305    0.677962    0.000000
   256  O2    s     0.208822    0.693432    0.511683    0.000000
   257  O3    s     0.296671    0.550814    0.839894    0.000000
   258  O2    s     0.443867    0.772355    0.177921    0.000000
   259  O2    s     0.296371    0.779554    0.316115    0.000000
   260  O2    s     0.451725    0.682779    0.980877    0.000000
   261  O2    s     0.217430    0.539918    0.650839    0.000000
   262  O2    s     0.694976    0.231143    0.817094    0.000000
   263  O2    s     0.518174    0.317538    0.486442    0.000000
   264  O2    s     0.748287    0.456656    0.146600    0.000000
   265  O3    s     0.775640    0.546482    0.022095    0.000000
   266  O2    s     0.450815    0.257158    0.364380    0.000000
   267  O2    s     0.739497    0.216891    0.694748    0.000000
   268  O2    s     0.197603    0.471940    0.528781    0.000000
   269  O2    s     0.518396    0.740079    0.860769    0.000000
   270  O2    s     0.240169    0.787457    0.195401    0.000000
   271  O2    s     0.513048    0.796695    0.297625    0.000000
   272  O2    s     0.246991    0.463439    0.964399    0.000000
   273  O2    s     0.202527    0.747663    0.634042    0.000000
   274  O2    s     0.473328    0.220227    0.800941    0.000000
   275  O2    s     0.724783    0.538305    0.470579    0.000000
   276  O2    s     0.766225    0.249671    0.131617    0.000000
   277  O3    s     0.214312    0.313513    0.898851    0.000000
   278  O2    s     0.649947    0.912619    0.228867    0.000000
   279  O2    s     0.081222    0.764228    0.563881    0.000000
   280  O2    s     0.742461    0.668297    0.398576    0.000000
   281  O2    s     0.331743    0.105418    0.730079    0.000000
   282  O2    s     0.882099    0.230983    0.061461    0.000000
   283  O2    s     0.316395    0.245378    0.433520    0.000000
   284  O2    s     0.883444    0.654731    0.095609    0.000000
   285  O2    s     0.757072    0.097239    0.765289    0.000000
   286  O2    s     0.649778    0.752227    0.930469    0.000000
   287  O2    s     0.082243    0.338425    0.599578    0.000000
   288  O2    s     0.227095    0.909095    0.266103    0.000000
   289  O2    s     0.564391    0.554195    0.981547    0.000000
   290  O2    s     0.428625    0.022778    0.318943    0.000000
   291  O2    s     0.972497    0.425488    0.652976    0.000000
   292  O2    s     0.402463    0.447099    0.485808    0.000000
   293  O2    s     0.558120    0.985966    0.818239    0.000000
   294  O2    s     0.993192    0.568010    0.147705    0.000000
   295  O2    s     0.541670    0.585290    0.344815    0.000000
   296  O2    s     0.001328    0.432079    0.008893    0.000000
   297  O2    s     0.408136    0.982812    0.677639    0.000000
   298  O3    s     0.447307    0.415955    0.838439    0.000000
   299  O2    s     0.962058    0.563569    0.511144    0.000000
   300  O3    s     0.574355    0.013596    0.170165    0.000000
   301  O3    s     0.574285    0.170024    0.255971    0.000000
   302  O2    s     0.837463    0.428056    0.582754    0.000000
   303  O2    s     0.568767    0.423459    0.912398    0.000000
   304  O2    s     0.417322    0.854942    0.748090    0.000000
   305  O2    s     0.126309    0.565497    0.079824    0.000000
   306  O2    s     0.404389    0.579016    0.414650    0.000000
   307  F     s     0.456656    0.953999    0.236278    0.000000
   308  F     s     0.086596    0.553354    0.579674    0.000000
   309  F     s     0.405206    0.512364    0.898746    0.000000
   310  F     s     0.548817    0.105294    0.746622    0.000000
   311  F     s     0.836777    0.428602    0.067237    0.000000
   312  F     s     0.529486    0.456057    0.413983    0.000000
--------------------------------------------------------------------------------

  Final Cartesian lattice vectors (Angstroms) :

       11.984856    0.001508   -0.003279
       -6.081430   10.373021    0.004120
       -0.448952   -0.195625   29.410992


  Final cell parameters and derivatives :

--------------------------------------------------------------------------------
       a           11.984857 Angstrom     dE/de1(xx)     0.004491 eV/strain
       b           12.024283 Angstrom     dE/de2(yy)     0.004117 eV/strain
       c           29.415069 Angstrom     dE/de3(zz)     0.006532 eV/strain
       alpha       89.866806 Degrees      dE/de4(yz)    -0.000472 eV/strain
       beta        90.890242 Degrees      dE/de5(xz)    -0.000052 eV/strain
       gamma      120.374768 Degrees      dE/de6(xy)     0.000341 eV/strain
--------------------------------------------------------------------------------

  Primitive cell volume =          3656.610294 Angs**3

  Density of cell =      1.749733 g/cm**3

  Non-primitive cell volume =          3656.610294 Angs**3


  Final internal derivatives :

--------------------------------------------------------------------------------
   No.  Atomic          a             b             c           Radius
        Label          (eV)          (eV)          (eV)        (eV/Angs)
--------------------------------------------------------------------------------
      1 Ge    c       0.000000      0.000000      0.000000      0.000000
      2 Si    c       0.000121      0.000064      0.000785      0.000000
      3 Si    c       0.000201     -0.000234     -0.000054      0.000000
      4 Si    c       0.000106     -0.000044      0.000133      0.000000
      5 Si    c       0.000232     -0.000199     -0.000525      0.000000
      6 Si    c       0.000385      0.000239      0.000906      0.000000
      7 Si    c       0.000132      0.000094     -0.000331      0.000000
      8 Si    c       0.000573     -0.000589      0.000403      0.000000
      9 Si    c       0.000133     -0.000027     -0.000560      0.000000
     10 Si    c       0.000162     -0.000393     -0.000544      0.000000
     11 Si    c       0.000052      0.000028     -0.000402      0.000000
     12 Si    c       0.001138     -0.000591      0.008056      0.000000
     13 Si    c      -0.002123      0.001647      0.000491      0.000000
     14 Si    c       0.000332     -0.000257     -0.000042      0.000000
     15 Si    c       0.000276     -0.000235     -0.000405      0.000000
     16 Si    c       0.000235     -0.000057     -0.000196      0.000000
     17 Si    c       0.000044     -0.000015      0.000332      0.000000
     18 Si    c       0.000008     -0.000055      0.001887      0.000000
     19 Si    c       0.000358     -0.000052      0.000423      0.000000
     20 Si    c      -0.000408      0.000261     -0.001411      0.000000
     21 Si    c       0.000110      0.000015     -0.000053      0.000000
     22 Si    c      -0.000195      0.000204     -0.001112      0.000000
     23 Si    c       0.000199     -0.000156     -0.000016      0.000000
     24 Ge    c       0.000310     -0.000803      0.001072      0.000000
     25 Ge    c       0.000439     -0.000025     -0.001260      0.000000
     26 Si    c       0.000377     -0.000037     -0.000118      0.000000
     27 Si    c       0.000196     -0.000012     -0.000216      0.000000
     28 Si    c       0.000223      0.000137     -0.000078      0.000000
     29 Si    c       0.000077     -0.000178     -0.000660      0.000000
     30 Si    c       0.000214      0.000056     -0.004384      0.000000
     31 Si    c       0.000217     -0.000185     -0.000091      0.000000
     32 Si    c       0.000951      0.000027      0.002431      0.000000
     33 Si    c       0.000088     -0.000215      0.000529      0.000000
     34 Si    c       0.000177     -0.000111      0.001109      0.000000
     35 Si    c       0.000119     -0.000218     -0.000015      0.000000
     36 Si    c       0.000054      0.000055      0.000648      0.000000
     37 Si    c       0.000378     -0.000049      0.001767      0.000000
     38 Si    c       0.000351     -0.000069     -0.000177      0.000000
     39 Si    c       0.000185     -0.000029     -0.000184      0.000000
     40 Si    c       0.000185      0.000074     -0.000252      0.000000
     41 Si    c       0.000035     -0.000114      0.000523      0.000000
     42 Si    c       0.000730     -0.000286      0.003305      0.000000
     43 Si    c       0.000225     -0.000185      0.000056      0.000000
     44 Si    c       0.001245      0.001065     -0.001870      0.000000
     45 Si    c       0.000197     -0.000184     -0.000314      0.000000
     46 Si    c       0.000266      0.000000     -0.000789      0.000000
     47 Si    c       0.000142     -0.000180     -0.000120      0.000000
     48 Si    c       0.000397     -0.000130     -0.000264      0.000000
     49 Si    c       0.000612      0.000183      0.003420      0.000000
     50 Si    c       0.000141      0.000127      0.002264      0.000000
     51 Si    c       0.000097     -0.000047     -0.000155      0.000000
     52 Si    c       0.000205     -0.000030     -0.000209      0.000000
     53 Si    c       0.000117      0.000010      0.000840      0.000000
     54 Si    c       0.000178      0.000086      0.000835      0.000000
     55 Si    c       0.000102     -0.000043     -0.000083      0.000000
     56 Si    c       0.000138     -0.000192     -0.003440      0.000000
     57 Si    c       0.000069     -0.000033     -0.001515      0.000000
     58 Si    c      -0.000052     -0.000152     -0.002542      0.000000
     59 Si    c       0.000195     -0.000070     -0.000114      0.000000
     60 Si    c       0.000036      0.000110     -0.000582      0.000000
     61 O2    c       0.000048     -0.000305      0.001146      0.000000
     62 O2    c       0.000118     -0.000049     -0.000347      0.000000
     63 O2    c       0.000050     -0.000063      0.000124      0.000000
     64 O2    c       0.000212     -0.000094     -0.000241      0.000000
     65 O2    c       0.000271     -0.000135      0.000159      0.000000
     66 O2    c       0.000772     -0.000088      0.000573      0.000000
     67 O2    c       0.000076     -0.000191     -0.000191      0.000000
     68 O2    c       0.000265     -0.000299     -0.000353      0.000000
     69 O2    c      -0.000444      0.000669      0.000954      0.000000
     70 O2    c       0.000024      0.000319      0.000950      0.000000
     71 O3    c      -0.001361      0.001259      0.000455      0.000000
     72 O2    c       0.000390     -0.000248      0.000355      0.000000
     73 O3    c       0.001970     -0.002890      0.007063      0.000000
     74 O2    c       0.000002      0.000063      0.000081      0.000000
     75 O2    c       0.000579     -0.000354     -0.000313      0.000000
     76 O2    c       0.000298     -0.000093     -0.000287      0.000000
     77 O2    c       0.000156     -0.000746     -0.001920      0.000000
     78 O2    c      -0.000139      0.000186     -0.000213      0.000000
     79 O2    c       0.000090     -0.000470      0.001262      0.000000
     80 O2    c      -0.000107      0.000191     -0.000119      0.000000
     81 O2    c       0.000163     -0.000232      0.000008      0.000000
     82 O2    c       0.000201     -0.000056     -0.000109      0.000000
     83 O2    c      -0.000013     -0.000077      0.000218      0.000000
     84 O2    c       0.000323      0.000115      0.000241      0.000000
     85 O2    c       0.000263      0.000103     -0.000126      0.000000
     86 O2    c       0.000606     -0.000485     -0.000320      0.000000
     87 O2    c      -0.000117     -0.000073     -0.000262      0.000000
     88 O2    c       0.000134     -0.000174      0.000145      0.000000
     89 O2    c       0.000164     -0.000068     -0.000083      0.000000
     90 O2    c       0.000207      0.000132     -0.000562      0.000000
     91 O2    c       0.000744     -0.000180     -0.003616      0.000000
     92 O2    c       0.000191     -0.000087     -0.000010      0.000000
     93 O2    c       0.000525     -0.000657     -0.002600      0.000000
     94 O2    c       0.000398     -0.000345      0.001998      0.000000
     95 O2    c       0.000174      0.000656      0.004129      0.000000
     96 O2    c       0.000219     -0.000073      0.000240      0.000000
     97 O2    c      -0.001049      0.000892      0.000696      0.000000
     98 O2    c       0.000269     -0.000416      0.000151      0.000000
     99 O2    c       0.000249     -0.000111     -0.000066      0.000000
    100 O2    c       0.000214     -0.000141      0.000051      0.000000
    101 O3    c      -0.000027     -0.000194     -0.000182      0.000000
    102 O2    c      -0.000127      0.000021      0.000463      0.000000
    103 O2    c       0.000494     -0.000369     -0.000377      0.000000
    104 O2    c      -0.000278     -0.000010      0.000161      0.000000
    105 O2    c       0.000135      0.000051     -0.000105      0.000000
    106 O2    c      -0.000059      0.000013      0.000081      0.000000
    107 O2    c       0.000197     -0.000073     -0.000072      0.000000
    108 O2    c       0.000138      0.000116      0.000380      0.000000
    109 O2    c       0.000239     -0.000250      0.000184      0.000000
    110 O2    c       0.000180     -0.000119      0.000044      0.000000
    111 O2    c      -0.000227      0.000350     -0.000548      0.000000
    112 O2    c       0.000078      0.000017     -0.000018      0.000000
    113 O3    c      -0.004811      0.000496     -0.003961      0.000000
    114 O2    c       0.000255     -0.000061     -0.000114      0.000000
    115 O2    c       0.000108     -0.000226      0.000659      0.000000
    116 O2    c       0.000158      0.000056     -0.000044      0.000000
    117 O2    c       0.000081     -0.000044      0.000065      0.000000
    118 O2    c       0.000120     -0.000011     -0.000176      0.000000
    119 O2    c       0.000131     -0.000205      0.000132      0.000000
    120 O2    c       0.000370      0.000212      0.000233      0.000000
    121 O2    c       0.000153     -0.000082     -0.000247      0.000000
    122 O2    c       0.000270     -0.000088      0.000161      0.000000
    123 O2    c       0.000158     -0.000149     -0.000251      0.000000
    124 O2    c       0.000229     -0.000387     -0.000047      0.000000
    125 O2    c       0.000166     -0.000113     -0.000023      0.000000
    126 O3    c       0.000188      0.000049     -0.000596      0.000000
    127 O3    c      -0.000859      0.000769     -0.001541      0.000000
    128 O2    c       0.000345     -0.000052     -0.000314      0.000000
    129 O2    c       0.000127     -0.000015     -0.000363      0.000000
    130 O2    c       0.000187     -0.000103     -0.000203      0.000000
    131 O3    c      -0.000209      0.000478     -0.000492      0.000000
    132 O2    c       0.000133     -0.000169     -0.000131      0.000000
    133 O2    c       0.000347     -0.000378     -0.000157      0.000000
    134 O2    c      -0.000283      0.000262      0.000182      0.000000
    135 O2    c       0.000204     -0.000216      0.000116      0.000000
    136 O2    c       0.000008      0.000042      0.000184      0.000000
    137 O2    c       0.000257     -0.000097     -0.000064      0.000000
    138 O2    c      -0.000276     -0.000200      0.001312      0.000000
    139 O3    c      -0.001759     -0.000761     -0.003571      0.000000
    140 O2    c       0.000313     -0.000164     -0.000274      0.000000
    141 O2    c       0.000038      0.000096     -0.000284      0.000000
    142 O2    c       0.000238     -0.000082     -0.000406      0.000000
    143 O2    c      -0.000047      0.000085     -0.000355      0.000000
    144 O2    c      -0.000017      0.000098     -0.000145      0.000000
    145 O2    c       0.000072     -0.000259      0.000350      0.000000
    146 O2    c      -0.000147      0.000221      0.000632      0.000000
    147 O2    c       0.000168     -0.000062     -0.000072      0.000000
    148 O2    c      -0.000043     -0.000025      0.000505      0.000000
    149 O2    c       0.000320     -0.000238      0.000141      0.000000
    150 O2    c      -0.000217      0.000103      0.001155      0.000000
    151 O3    c      -0.000824     -0.000437      0.000733      0.000000
    152 O2    c       0.000342     -0.000087      0.000041      0.000000
    153 O2    c       0.000145     -0.000080      0.000003      0.000000
    154 O2    c       0.000254     -0.000032     -0.000188      0.000000
    155 O2    c      -0.000096     -0.000047     -0.000110      0.000000
    156 O2    c       0.000803     -0.000881     -0.001550      0.000000
    157 O2    c       0.000192     -0.000069      0.000061      0.000000
    158 O2    c      -0.000011      0.000549      0.001914      0.000000
    159 O2    c       0.000259     -0.000188     -0.000182      0.000000
    160 O2    c       0.000225      0.000092     -0.000040      0.000000
    161 O2    c       0.000173     -0.000125      0.000015      0.000000
    162 O2    c      -0.000058      0.000142     -0.000590      0.000000
    163 O2    c       0.000134     -0.000625      0.000093      0.000000
    164 O2    c       0.000342     -0.000008      0.000198      0.000000
    165 O2    c       0.000130     -0.000142      0.000111      0.000000
    166 O2    c       0.000141      0.000065      0.000021      0.000000
    167 O2    c       0.000085     -0.000177      0.000301      0.000000
    168 O2    c       0.000288      0.000001      0.000111      0.000000
    169 O2    c       0.000239     -0.000005     -0.000258      0.000000
    170 O2    c       0.000242     -0.000001     -0.001076      0.000000
    171 O2    c       0.000135     -0.000169     -0.000271      0.000000
    172 O3    c       0.000456     -0.000379     -0.000277      0.000000
    173 O2    c       0.000112     -0.000127     -0.000362      0.000000
    174 O3    c       0.000283      0.000184     -0.000067      0.000000
    175 O3    c       0.000223      0.000204     -0.000341      0.000000
    176 O2    c       0.000150     -0.000117      0.000009      0.000000
    177 O2    c       0.000567     -0.000386     -0.002560      0.000000
    178 O2    c       0.000101     -0.000243     -0.000167      0.000000
    179 O2    c       0.000675      0.000054     -0.000610      0.000000
    180 O2    c       0.000212     -0.000062     -0.000193      0.000000
    181 F     c       0.000250     -0.000143      0.000048      0.000000
    182 F     c       0.000169     -0.000130     -0.000031      0.000000
    183 F     c       0.000239     -0.000189     -0.000110      0.000000
    184 F     c       0.000106     -0.000171     -0.000057      0.000000
    185 F     c       0.000963     -0.000099     -0.000100      0.000000
    186 F     c       0.000242     -0.000032     -0.000053      0.000000
    187 O2    s       0.000276     -0.000339     -0.001386      0.000000
    188 O2    s       0.000332      0.000041      0.000448      0.000000
    189 O2    s       0.000257     -0.000229     -0.000324      0.000000
    190 O2    s       0.000197     -0.000078      0.000224      0.000000
    191 O2    s       0.000191     -0.000287     -0.000980      0.000000
    192 O2    s       0.000366      0.000063      0.000366      0.000000
    193 O2    s       0.000287     -0.000031      0.000070      0.000000
    194 O2    s       0.000063     -0.000020      0.000183      0.000000
    195 O2    s       0.000206     -0.000219     -0.000685      0.000000
    196 O2    s       0.000300     -0.000201      0.000072      0.000000
    197 O3    s       0.000893     -0.001023      0.001591      0.000000
    198 O2    s       0.000178     -0.000092     -0.000055      0.000000
    199 O3    s       0.000191      0.000674     -0.002900      0.000000
    200 O2    s       0.000213     -0.000157     -0.000058      0.000000
    201 O2    s       0.000106      0.000014     -0.000005      0.000000
    202 O2    s       0.000163     -0.000061     -0.000028      0.000000
    203 O2    s       0.000384      0.000029      0.000439      0.000000
    204 O2    s      -0.000038     -0.000033     -0.000422      0.000000
    205 O2    s       0.000617      0.000197      0.000136      0.000000
    206 O2    s       0.000053      0.000318      0.000617      0.000000
    207 O2    s       0.000111     -0.000115     -0.000030      0.000000
    208 O2    s       0.000208     -0.000029      0.000206      0.000000
    209 O2    s       0.000070     -0.000211     -0.000259      0.000000
    210 O2    s       0.000129     -0.000029      0.000503      0.000000
    211 O2    s       0.000190      0.000066     -0.000069      0.000000
    212 O2    s       0.000389      0.000144     -0.000817      0.000000
    213 O2    s       0.000021     -0.000192     -0.000008      0.000000
    214 O2    s       0.000312     -0.000234     -0.000650      0.000000
    215 O2    s       0.000197     -0.000135     -0.000008      0.000000
    216 O2    s       0.000210      0.000070      0.000452      0.000000
    217 O2    s       0.000201      0.000125      0.000497      0.000000
    218 O2    s       0.000137     -0.000040     -0.000125      0.000000
    219 O2    s      -0.000244     -0.000003      0.000215      0.000000
    220 O2    s       0.000120     -0.000132     -0.000293      0.000000
    221 O2    s      -0.000090     -0.000129     -0.000811      0.000000
    222 O2    s       0.000172     -0.000064      0.000049      0.000000
    223 O2    s      -0.000508      0.000020     -0.000409      0.000000
    224 O2    s       0.000338     -0.000332      0.000451      0.000000
    225 O2    s       0.000095     -0.000088     -0.000118      0.000000
    226 O2    s       0.000202     -0.000086     -0.000138      0.000000
    227 O3    s       0.000138     -0.000044     -0.001181      0.000000
    228 O2    s       0.000095     -0.000152     -0.000678      0.000000
    229 O2    s       0.000173     -0.000055      0.000539      0.000000
    230 O2    s      -0.000165      0.000063     -0.000408      0.000000
    231 O2    s       0.000215     -0.000012     -0.000329      0.000000
    232 O2    s      -0.000037      0.000120     -0.000135      0.000000
    233 O2    s       0.000202     -0.000079      0.000169      0.000000
    234 O2    s       0.000133      0.000083      0.000477      0.000000
    235 O2    s       0.000266     -0.000136      0.000673      0.000000
    236 O2    s       0.000165     -0.000110     -0.000026      0.000000
    237 O2    s       0.000113     -0.000073     -0.000248      0.000000
    238 O2    s       0.000143     -0.000102     -0.000327      0.000000
    239 O3    s       0.003982     -0.000382     -0.000418      0.000000
    240 O2    s       0.000278     -0.000082     -0.000110      0.000000
    241 O2    s      -0.000501      0.000175     -0.001014      0.000000
    242 O2    s       0.000289     -0.000039      0.000380      0.000000
    243 O2    s       0.000169     -0.000128     -0.000029      0.000000
    244 O2    s       0.000171      0.000009      0.000338      0.000000
    245 O2    s       0.000042     -0.000184     -0.000242      0.000000
    246 O2    s       0.000375     -0.000055      0.000075      0.000000
    247 O2    s       0.000300     -0.000086      0.000036      0.000000
    248 O2    s       0.000209      0.000017     -0.001281      0.000000
    249 O2    s       0.000184     -0.000172      0.000051      0.000000
    250 O2    s       0.000451     -0.000240     -0.000442      0.000000
    251 O2    s       0.000126     -0.000093     -0.000136      0.000000
    252 O3    s       0.000182      0.000108      0.000695      0.000000
    253 O3    s      -0.000277     -0.000153      0.003006      0.000000
    254 O2    s       0.000194     -0.000022     -0.000047      0.000000
    255 O2    s       0.000122     -0.000105      0.000132      0.000000
    256 O2    s       0.000149     -0.000069      0.000020      0.000000
    257 O3    s       0.000088     -0.000306     -0.000613      0.000000
    258 O2    s       0.000434      0.000022     -0.000466      0.000000
    259 O2    s       0.000173     -0.000156      0.000303      0.000000
    260 O2    s       0.000207      0.000043      0.000353      0.000000
    261 O2    s       0.000101     -0.000072     -0.000045      0.000000
    262 O2    s       0.000230     -0.000266     -0.000067      0.000000
    263 O2    s       0.000177     -0.000087      0.000260      0.000000
    264 O2    s       0.000260      0.000245     -0.002014      0.000000
    265 O3    s       0.000553     -0.000107      0.001717      0.000000
    266 O2    s       0.000189      0.000098      0.000150      0.000000
    267 O2    s       0.000147     -0.000118      0.000020      0.000000
    268 O2    s       0.000167     -0.000137      0.000279      0.000000
    269 O2    s       0.000148     -0.000050     -0.000280      0.000000
    270 O2    s       0.000183      0.000281     -0.000111      0.000000
    271 O2    s       0.000140     -0.000076     -0.000095      0.000000
    272 O2    s       0.000110      0.000034     -0.000805      0.000000
    273 O2    s       0.000130     -0.000228      0.000043      0.000000
    274 O2    s       0.000107     -0.000280     -0.000591      0.000000
    275 O2    s       0.000203      0.000036      0.000045      0.000000
    276 O2    s      -0.000112      0.000284     -0.001059      0.000000
    277 O3    s       0.000851     -0.000072     -0.000615      0.000000
    278 O2    s       0.000276     -0.000131     -0.000081      0.000000
    279 O2    s       0.000147     -0.000143     -0.000050      0.000000
    280 O2    s       0.000238     -0.000101     -0.000101      0.000000
    281 O2    s       0.000240     -0.000184     -0.000050      0.000000
    282 O2    s      -0.000669      0.000538     -0.000362      0.000000
    283 O2    s       0.000228     -0.000038     -0.000223      0.000000
    284 O2    s      -0.000075     -0.000016     -0.000166      0.000000
    285 O2    s       0.000082     -0.000127     -0.000080      0.000000
    286 O2    s       0.000262     -0.000066      0.000078      0.000000
    287 O2    s       0.000157     -0.000095      0.000035      0.000000
    288 O2    s       0.000336     -0.000075     -0.000156      0.000000
    289 O2    s       0.000175      0.000414      0.000300      0.000000
    290 O2    s       0.000287     -0.000001      0.000020      0.000000
    291 O2    s       0.000157     -0.000081     -0.000217      0.000000
    292 O2    s       0.000154     -0.000036      0.000080      0.000000
    293 O2    s       0.000096     -0.000131     -0.000414      0.000000
    294 O2    s       0.000282      0.000034      0.000106      0.000000
    295 O2    s       0.000241     -0.000134      0.000131      0.000000
    296 O2    s       0.000112     -0.000085      0.001150      0.000000
    297 O2    s       0.000142     -0.000151      0.000064      0.000000
    298 O3    s       0.000171     -0.000161     -0.000720      0.000000
    299 O2    s       0.000193     -0.000104      0.000300      0.000000
    300 O3    s       0.000105      0.000074     -0.000676      0.000000
    301 O3    s       0.000211     -0.000096      0.000578      0.000000
    302 O2    s       0.000132     -0.000104     -0.000059      0.000000
    303 O2    s       0.000697     -0.000266     -0.000464      0.000000
    304 O2    s       0.000125     -0.000110      0.000050      0.000000
    305 O2    s      -0.000071     -0.000085      0.000342      0.000000
    306 O2    s       0.000181     -0.000010      0.000003      0.000000
    307 F     s       0.000134     -0.000009      0.000149      0.000000
    308 F     s       0.000087     -0.000128     -0.000052      0.000000
    309 F     s      -0.000031      0.000120      0.000638      0.000000
    310 F     s       0.000032     -0.000115     -0.000045      0.000000
    311 F     s      -0.000879      0.000033      0.000093      0.000000
    312 F     s       0.000226     -0.000066     -0.000111      0.000000
--------------------------------------------------------------------------------
  Maximum abs         0.004811      0.002890      0.008056      0.000000
--------------------------------------------------------------------------------


  Time to end of optimisation =      31.6673 seconds


  Peak dynamic memory used =      19.13 MB 


  Timing analysis for GULP :

--------------------------------------------------------------------------------
  Task / Subroutine                                          Time (Seconds)
--------------------------------------------------------------------------------
  Calculation of reciprocal space energy and derivatives          0.7697
  Calculation of real space energy and derivatives               27.7640
  Calculation of three-body energy and derivatives                2.6926
  Calculation of matrix inversion                                 0.3746
--------------------------------------------------------------------------------
  Total CPU time                                                 31.6674
--------------------------------------------------------------------------------


  Dump file written as out.res                                                 
  CIF file written as out.cif                                                 


  Job Finished at 00:41.02  4th November   2016                               

