********************************************************************************
*                       GENERAL UTILITY LATTICE PROGRAM                        *
*                                 Julian Gale                                  *
*                      Nanochemistry Research Institute                        *
*                           Department of Chemistry                            *
*                    Curtin University, Western Australia                      *
********************************************************************************
* Version = 4.2.0 * Last modified =  20th January 2014                         *
********************************************************************************
*  optimise     - perform optimisation run                                     *
*  conp         - constant pressure calculation                                *
*  qok          - running with non charge neutral cell is OK                   *
********************************************************************************

  Job Started  at 11:32.40  6th November   2016                               

  Number of CPUs =     1


  Total number of configurations input =   1

********************************************************************************
*  Input for Configuration =   1                                               *
********************************************************************************

  Formula = Ge3Si57O120F6                                               

  Number of irreducible atoms/shells =     312


  Total number atoms/shells =     312

  Dimensionality = 3               :  Bulk   


  Charge on solid   =  -6.000000 =>neutralising background added


  Cartesian lattice vectors (Angstroms) :

       11.943710    0.000000    0.000000
       -6.054423   10.394284    0.000000
       -0.444669   -0.222608   29.371758

  Cell parameters (Angstroms/Degrees):

  a =      11.9437    alpha =  89.9387
  b =      12.0290    beta  =  90.8673
  c =      29.3760    gamma = 120.2198

  Initial cell volume =        3646.395397 Angs**3

  Temperature of configuration =  0.000     K 

  Pressure of configuration =         0.000 GPa 

  Fractional coordinates of asymmetric unit :

--------------------------------------------------------------------------------
   No.  Atomic       x           y          z         Charge      Occupancy
        Label      (Frac)      (Frac)     (Frac)        (e)         (Frac)  
--------------------------------------------------------------------------------
      1 Ge    c    0.699600    0.375700    0.033890     4.00000    1.000000    
      2 Si    c    0.617973 *  0.318179 *  0.364984 *   4.00000    1.000000    
      3 Si    c    0.691028 *  0.306793 *  0.698869 *   4.00000    1.000000    
      4 Si    c    0.297662 *  0.620632 *  0.528668 *   4.00000    1.000000    
      5 Si    c    0.361360 *  0.666837 *  0.862141 *   4.00000    1.000000    
      6 Si    c    0.312679 *  0.699082 *  0.195814 *   4.00000    1.000000    
      7 Si    c    0.369151 *  0.692722 *  0.296496 *   4.00000    1.000000    
      8 Si    c    0.309909 *  0.616454 *  0.962435 *   4.00000    1.000000    
      9 Si    c    0.307162 *  0.676675 *  0.629847 *   4.00000    1.000000    
     10 Si    c    0.625687 *  0.307678 *  0.800745 *   4.00000    1.000000    
     11 Si    c    0.673416 *  0.378594 *  0.465821 *   4.00000    1.000000    
     12 Si    c    0.678414 *  0.312837 *  0.132405 *   4.00000    1.000000    
     13 Si    c    0.526383 *  0.418896 *  0.966090 *   4.00000    1.000000    
     14 Si    c    0.577019 *  0.103315 *  0.302045 *   4.00000    1.000000    
     15 Si    c    0.899332 *  0.475092 *  0.633132 *   4.00000    1.000000    
     16 Si    c    0.465049 *  0.579729 *  0.462921 *   4.00000    1.000000    
     17 Si    c    0.410230 *  0.878387 *  0.799335 *   4.00000    1.000000    
     18 Si    c    0.099892 *  0.527423 *  0.128818 *   4.00000    1.000000    
     19 Si    c    0.411172 *  0.521705 *  0.360848 *   4.00000    1.000000    
     20 Si    c    0.095665 *  0.577869 *  0.025358 *   4.00000    1.000000    
     21 Si    c    0.478969 *  0.883935 *  0.696555 *   4.00000    1.000000    
     22 Si    c    0.574250 *  0.474607 *  0.863721 *   4.00000    1.000000    
     23 Si    c    0.887606 *  0.419720 *  0.531133 *   4.00000    1.000000    
     24 Si    c    0.521197 *  0.106420 *  0.200317 *   4.00000    1.000000    
     25 Si    c    0.289736 *  0.392740 *  0.848220 *   4.00000    1.000000    
     26 Si    c    0.592860 *  0.900194 *  0.182628 *   4.00000    1.000000    
     27 Si    c    0.096466 *  0.699177 *  0.515345 *   4.00000    1.000000    
     28 Si    c    0.693228 *  0.593827 *  0.348032 *   4.00000    1.000000    
     29 Ge    c    0.405184 *  0.098792 *  0.681026 *   4.00000    1.000000    
     30 Si    c    0.883826 *  0.289079 *  0.009968 *   4.00000    1.000000    
     31 Si    c    0.394124 *  0.300844 *  0.478569 *   4.00000    1.000000    
     32 Si    c    0.885203 *  0.597789 *  0.142250 *   4.00000    1.000000    
     33 Ge    c    0.684540 *  0.096766 *  0.807071 *   4.00000    1.000000    
     34 Si    c    0.590362 *  0.698913 *  0.977505 *   4.00000    1.000000    
     35 Si    c    0.106391 *  0.399126 *  0.645361 *   4.00000    1.000000    
     36 Si    c    0.294771 *  0.893346 *  0.313453 *   4.00000    1.000000    
     37 Si    c    0.244209 *  0.338842 *  0.948909 *   4.00000    1.000000    
     38 Si    c    0.651648 *  0.902273 *  0.283868 *   4.00000    1.000000    
     39 Si    c    0.099865 *  0.752346 *  0.616470 *   4.00000    1.000000    
     40 Si    c    0.744427 *  0.656770 *  0.448968 *   4.00000    1.000000    
     41 Si    c    0.336815 *  0.087100 *  0.783511 *   4.00000    1.000000    
     42 Si    c    0.894925 *  0.245759 *  0.113665 *   4.00000    1.000000    
     43 Si    c    0.335428 *  0.244914 *  0.377475 *   4.00000    1.000000    
     44 Si    c    0.893383 *  0.659965 *  0.039494 *   4.00000    1.000000    
     45 Si    c    0.762135 *  0.091010 *  0.711700 *   4.00000    1.000000    
     46 Si    c    0.647554 *  0.752023 *  0.876655 *   4.00000    1.000000    
     47 Si    c    0.088628 *  0.340333 *  0.544007 *   4.00000    1.000000    
     48 Si    c    0.240623 *  0.905434 *  0.212768 *   4.00000    1.000000    
     49 Si    c    0.967008 *  0.118434 *  0.961593 *   4.00000    1.000000    
     50 Si    c    0.870178 *  0.840077 *  0.297003 *   4.00000    1.000000    
     51 Si    c    0.155367 *  0.031117 *  0.628202 *   4.00000    1.000000    
     52 Si    c    0.024880 *  0.876062 *  0.463400 *   4.00000    1.000000    
     53 Si    c    0.114939 *  0.143067 *  0.797277 *   4.00000    1.000000    
     54 Si    c    0.839174 *  0.970227 *  0.130546 *   4.00000    1.000000    
     55 Si    c    0.117038 *  0.963719 *  0.362337 *   4.00000    1.000000    
     56 Si    c    0.841012 *  0.881845 *  0.028661 *   4.00000    1.000000    
     57 Si    c    0.036750 *  0.150831 *  0.694214 *   4.00000    1.000000    
     58 Si    c    0.870244 *  0.029963 *  0.860217 *   4.00000    1.000000    
     59 Si    c    0.145506 *  0.120773 *  0.527875 *   4.00000    1.000000    
     60 Si    c    0.960394 *  0.846275 *  0.195256 *   4.00000    1.000000    
     61 O2    c    0.921904 *  0.003185 *  0.997071 *   0.87073    1.000000    
     62 O2    c    0.996420 *  0.922437 *  0.328308 *   0.87073    1.000000    
     63 O2    c    0.076373 *  0.070737 *  0.661380 *   0.87073    1.000000    
     64 O2    c    0.066984 *  0.001843 *  0.493709 *   0.87073    1.000000    
     65 O2    c    0.990777 *  0.059835 *  0.827587 *   0.87073    1.000000    
     66 O2    c    0.922436 *  0.931078 *  0.163410 *   0.87073    1.000000    
     67 O2    c    0.332401 *  0.568022 *  0.327801 *   0.87073    1.000000    
     68 O2    c    0.431528 *  0.759736 *  0.663220 *   0.87073    1.000000    
     69 O2    c    0.222797 *  0.653245 *  0.994501 *   0.87073    1.000000    
     70 O2    c    0.653360 *  0.431836 *  0.830356 *   0.87073    1.000000    
     71 O2    c    0.571309 *  0.235524 *  0.170804 *   0.87073    1.000000    
     72 O2    c    0.758006 *  0.341777 *  0.499666 *   0.87073    1.000000    
     73 O3    c    0.565815 *  0.338866 *  0.998033 *   1.33043    1.000000    
     74 O2    c    0.779198 *  0.430317 *  0.667301 *   0.87073    1.000000    
     75 O2    c    0.655425 *  0.229132 *  0.334603 *   0.87073    1.000000    
     76 O2    c    0.417375 *  0.657543 *  0.494772 *   0.87073    1.000000    
     77 O2    c    0.226243 *  0.578158 *  0.161686 *   0.87073    1.000000    
     78 O2    c    0.320504 *  0.748155 *  0.827937 *   0.87073    1.000000    
     79 O2    c    0.120941 *  0.211037 *  0.969366 *   0.87073    1.000000    
     80 O2    c    0.778107 *  0.900978 *  0.304017 *   0.87073    1.000000    
     81 O2    c    0.104056 *  0.879628 *  0.636758 *   0.87073    1.000000    
     82 O2    c    0.870717 *  0.784445 *  0.469233 *   0.87073    1.000000    
     83 O2    c    0.212089 *  0.086649 *  0.804487 *   0.87073    1.000000    
     84 O2    c    0.899187 *  0.123923 *  0.135464 *   0.87073    1.000000    
     85 O2    c    0.209285 *  0.117368 *  0.357082 *   0.87073    1.000000    
     86 O2    c    0.910065 *  0.796971 *  0.023936 *   0.87073    1.000000    
     87 O2    c    0.883707 *  0.094542 *  0.685970 *   0.87073    1.000000    
     88 O2    c    0.770851 *  0.875456 *  0.855203 *   0.87073    1.000000    
     89 O2    c    0.083747 *  0.212903 *  0.523121 *   0.87073    1.000000    
     90 O2    c    0.115324 *  0.908431 *  0.192317 *   0.87073    1.000000    
     91 O2    c    0.916328 *  0.852798 *  0.245684 *   0.87073    1.000000    
     92 O2    c    0.128055 *  0.060437 *  0.577424 *   0.87073    1.000000    
     93 O2    c    0.930965 *  0.061189 *  0.911331 *   0.87073    1.000000    
     94 O2    c    0.071915 *  0.130283 *  0.744756 *   0.87073    1.000000    
     95 O2    c    0.850789 *  0.931500 *  0.079970 *   0.87073    1.000000    
     96 O2    c    0.061670 *  0.924059 *  0.412367 *   0.87073    1.000000    
     97 O2    c    0.896698 *  0.199898 *  0.971982 *   0.87073    1.000000    
     98 O2    c    0.790995 *  0.689064 *  0.309525 *   0.87073    1.000000    
     99 O3    c    0.307437 *  0.106446 *  0.638117 *   1.33043    1.000000    
    100 O2    c    0.096369 *  0.796964 *  0.477158 *   0.87073    1.000000    
    101 O2    c    0.192829 *  0.294511 *  0.809234 *   0.87073    1.000000    
    102 O2    c    0.688010 *  0.899503 *  0.143936 *   0.87073    1.000000    
    103 O2    c    0.197927 *  0.892481 *  0.351890 *   0.87073    1.000000    
    104 O2    c    0.688676 *  0.798519 *  0.016229 *   0.87073    1.000000    
    105 O2    c    0.112015 *  0.303411 *  0.683151 *   0.87073    1.000000    
    106 O3    c    0.798031 *  0.104645 *  0.849528 *   1.33043    1.000000    
    107 O2    c    0.298255 *  0.204570 *  0.517212 *   0.87073    1.000000    
    108 O2    c    0.890184 *  0.696555 *  0.180874 *   0.87073    1.000000    
    109 O2    c    0.311812 *  0.637804 *  0.245479 *   0.87073    1.000000    
    110 O2    c    0.360831 *  0.677525 *  0.578950 *   0.87073    1.000000    
    111 O2    c    0.303994 *  0.670327 *  0.911943 *   0.87073    1.000000    
    112 O2    c    0.687948 *  0.356542 *  0.749955 *   0.87073    1.000000    
    113 O3    c    0.608906 *  0.301271 *  0.084793 *   1.33043    1.000000    
    114 O2    c    0.675333 *  0.320782 *  0.415869 *   0.87073    1.000000    
    115 O2    c    0.368298 *  0.332743 *  0.966959 *   0.87073    1.000000    
    116 O2    c    0.663606 *  0.033630 *  0.303854 *   0.87073    1.000000    
    117 O2    c    0.969385 *  0.630968 *  0.635947 *   0.87073    1.000000    
    118 O2    c    0.622013 *  0.667550 *  0.466213 *   0.87073    1.000000    
    119 O2    c    0.331069 *  0.956234 *  0.800057 *   0.87073    1.000000    
    120 O2    c    0.027437 *  0.372114 *  0.130906 *   0.87073    1.000000    
    121 O2    c    0.324410 *  0.365550 *  0.358157 *   0.87073    1.000000    
    122 O2    c    0.026496 *  0.663933 *  0.024160 *   0.87073    1.000000    
    123 O2    c    0.635599 *  0.954819 *  0.696089 *   0.87073    1.000000    
    124 O2    c    0.658333 *  0.629570 *  0.859750 *   0.87073    1.000000    
    125 O2    c    0.954733 *  0.331553 *  0.527024 *   0.87073    1.000000    
    126 O2    c    0.364401 *  0.037516 *  0.195678 *   0.87073    1.000000    
    127 O3    c    0.748911 *  0.280556 *  0.001962 *   1.33043    1.000000    
    128 O2    c    0.692730 *  0.459576 *  0.341539 *   0.87073    1.000000    
    129 O3    c    0.547889 *  0.242643 *  0.677261 *   1.33043    1.000000    
    130 O2    c    0.228906 *  0.696444 *  0.507063 *   0.87073    1.000000    
    131 O2    c    0.286707 *  0.524074 *  0.839188 *   0.87073    1.000000    
    132 O2    c    0.456002 *  0.768343 *  0.173787 *   0.87073    1.000000    
    133 O2    c    0.293441 *  0.758706 *  0.319617 *   0.87073    1.000000    
    134 O2    c    0.454437 *  0.696150 *  0.985212 *   0.87073    1.000000    
    135 O2    c    0.240613 *  0.534163 *  0.652021 *   0.87073    1.000000    
    136 O3    c    0.697249 *  0.243193 *  0.825541 *   1.33043    1.000000    
    137 O2    c    0.529468 *  0.303326 *  0.487442 *   0.87073    1.000000    
    138 O2    c    0.753988 *  0.462687 *  0.150680 *   0.87073    1.000000    
    139 O3    c    0.767978 *  0.544759 *  0.018067 *   1.33043    1.000000    
    140 O2    c    0.461255 *  0.243593 *  0.358984 *   0.87073    1.000000    
    141 O2    c    0.751660 *  0.213702 *  0.693704 *   0.87073    1.000000    
    142 O2    c    0.213853 *  0.464911 *  0.523823 *   0.87073    1.000000    
    143 O2    c    0.517689 *  0.745405 *  0.856803 *   0.87073    1.000000    
    144 O2    c    0.236405 *  0.778858 *  0.192091 *   0.87073    1.000000    
    145 O2    c    0.525823 *  0.775179 *  0.302292 *   0.87073    1.000000    
    146 O2    c    0.237445 *  0.461367 *  0.968386 *   0.87073    1.000000    
    147 O2    c    0.228696 *  0.754168 *  0.635088 *   0.87073    1.000000    
    148 O2    c    0.468207 *  0.214580 *  0.799288 *   0.87073    1.000000    
    149 O2    c    0.746994 *  0.534291 *  0.470114 *   0.87073    1.000000    
    150 O2    c    0.771864 *  0.249480 *  0.133190 *   0.87073    1.000000    
    151 O2    c    0.219654 *  0.319037 *  0.894413 *   0.87073    1.000000    
    152 O2    c    0.667490 *  0.902265 *  0.229348 *   0.87073    1.000000    
    153 O2    c    0.096656 *  0.770402 *  0.562033 *   0.87073    1.000000    
    154 O2    c    0.764242 *  0.670902 *  0.394531 *   0.87073    1.000000    
    155 O3    c    0.319961 *  0.085012 *  0.729245 *   1.33043    1.000000    
    156 O2    c    0.891531 *  0.229024 *  0.059301 *   0.87073    1.000000    
    157 O2    c    0.318603 *  0.228312 *  0.431973 *   0.87073    1.000000    
    158 O2    c    0.886172 *  0.665353 *  0.095092 *   0.87073    1.000000    
    159 O3    c    0.790884 *  0.096203 *  0.764476 *   1.33043    1.000000    
    160 O2    c    0.663835 *  0.770846 *  0.931402 *   0.87073    1.000000    
    161 O2    c    0.097119 *  0.324556 *  0.598309 *   0.87073    1.000000    
    162 O2    c    0.223059 *  0.901129 *  0.267283 *   0.87073    1.000000    
    163 O2    c    0.577824 *  0.561907 *  0.987327 *   0.87073    1.000000    
    164 O2    c    0.435548 *  0.016671 *  0.324307 *   0.87073    1.000000    
    165 O2    c    0.982428 *  0.414817 *  0.655119 *   0.87073    1.000000    
    166 O2    c    0.407910 *  0.439835 *  0.486501 *   0.87073    1.000000    
    167 O3    c    0.546631 *  0.954125 *  0.825119 *   1.33043    1.000000    
    168 O2    c    0.008942 *  0.578938 *  0.148582 *   0.87073    1.000000    
    169 O2    c    0.552736 *  0.578416 *  0.338290 *   0.87073    1.000000    
    170 O2    c    0.003979 *  0.435771 *  0.004477 *   0.87073    1.000000    
    171 O3    c    0.431895 *  0.973757 *  0.672590 *   1.33043    1.000000    
    172 O2    c    0.430726 *  0.409208 *  0.840364 *   0.87073    1.000000    
    173 O2    c    0.969267 *  0.559692 *  0.507342 *   0.87073    1.000000    
    174 O2    c    0.580008 *  0.026410 *  0.175687 *   0.87073    1.000000    
    175 O2    c    0.574639 *  0.156733 *  0.251594 *   0.87073    1.000000    
    176 O2    c    0.839075 *  0.420943 *  0.582499 *   0.87073    1.000000    
    177 O2    c    0.578358 *  0.423850 *  0.914424 *   0.87073    1.000000    
    178 O2    c    0.419488 *  0.836646 *  0.746764 *   0.87073    1.000000    
    179 O2    c    0.143294 *  0.574367 *  0.077358 *   0.87073    1.000000    
    180 O2    c    0.411340 *  0.576691 *  0.411471 *   0.87073    1.000000    
    181 F     c    0.441030 *  0.895312 *  0.248105 *   0.56000    1.000000    
    182 F     c    0.100889 *  0.550372 *  0.580595 *   0.56000    1.000000    
    183 F     c    0.435536 *  0.548483 *  0.912363 *   0.56000    1.000000    
    184 F     c    0.577809 *  0.095143 *  0.757180 *   0.56000    1.000000    
    185 F     c    0.848164 *  0.433243 *  0.070135 *   0.56000    1.000000    
    186 F     c    0.544258 *  0.447630 *  0.413392 *   0.56000    1.000000    
    187 O2    s    0.917605 *  0.002105 *  0.996748 *  -2.87073    1.000000    
    188 O2    s    0.995749 *  0.917787 *  0.328608 *  -2.87073    1.000000    
    189 O2    s    0.080880 *  0.075235 *  0.661300 *  -2.87073    1.000000    
    190 O2    s    0.071084 *  0.001086 *  0.494147 *  -2.87073    1.000000    
    191 O2    s    0.992531 *  0.066234 *  0.827484 *  -2.87073    1.000000    
    192 O2    s    0.917518 *  0.925973 *  0.163335 *  -2.87073    1.000000    
    193 O2    s    0.344231 *  0.576075 *  0.327960 *  -2.87073    1.000000    
    194 O2    s    0.423553 *  0.763767 *  0.663159 *  -2.87073    1.000000    
    195 O2    s    0.218037 *  0.641552 *  0.994553 *  -2.87073    1.000000    
    196 O2    s    0.642285 *  0.422912 *  0.830583 *  -2.87073    1.000000    
    197 O2    s    0.577152 *  0.229857 *  0.169930 *  -2.87073    1.000000    
    198 O2    s    0.762631 *  0.353663 *  0.499403 *  -2.87073    1.000000    
    199 O3    s    0.571375 *  0.350145 *  0.997239 *  -3.33043    1.000000    
    200 O2    s    0.782597 *  0.422207 *  0.667016 *  -2.87073    1.000000    
    201 O2    s    0.643534 *  0.225264 *  0.334358 *  -2.87073    1.000000    
    202 O2    s    0.410006 *  0.645721 *  0.494969 *  -2.87073    1.000000    
    203 O2    s    0.221721 *  0.585102 *  0.161704 *  -2.87073    1.000000    
    204 O2    s    0.333599 *  0.753332 *  0.828403 *  -2.87073    1.000000    
    205 O2    s    0.117141 *  0.214266 *  0.966462 *  -2.87073    1.000000    
    206 O2    s    0.774732 *  0.894632 *  0.301204 *  -2.87073    1.000000    
    207 O2    s    0.108930 *  0.881962 *  0.633798 *  -2.87073    1.000000    
    208 O2    s    0.874096 *  0.780989 *  0.466537 *  -2.87073    1.000000    
    209 O2    s    0.215199 *  0.092521 *  0.801577 *  -2.87073    1.000000    
    210 O2    s    0.892440 *  0.120361 *  0.132717 *  -2.87073    1.000000    
    211 O2    s    0.212592 *  0.114303 *  0.359734 *  -2.87073    1.000000    
    212 O2    s    0.900948 *  0.791952 *  0.026035 *  -2.87073    1.000000    
    213 O2    s    0.887691 *  0.100211 *  0.689400 *  -2.87073    1.000000    
    214 O2    s    0.767652 *  0.877764 *  0.857968 *  -2.87073    1.000000    
    215 O2    s    0.090778 *  0.216249 *  0.525741 *  -2.87073    1.000000    
    216 O2    s    0.111800 *  0.901470 *  0.194734 *  -2.87073    1.000000    
    217 O2    s    0.916072 *  0.850598 *  0.245802 *  -2.87073    1.000000    
    218 O2    s    0.133074 *  0.063980 *  0.577486 *  -2.87073    1.000000    
    219 O2    s    0.928733 *  0.064470 *  0.911744 *  -2.87073    1.000000    
    220 O2    s    0.072624 *  0.134048 *  0.744741 *  -2.87073    1.000000    
    221 O2    s    0.848356 *  0.930524 *  0.080189 *  -2.87073    1.000000    
    222 O2    s    0.063803 *  0.923113 *  0.412462 *  -2.87073    1.000000    
    223 O2    s    0.902852 *  0.200717 *  0.974942 *  -2.87073    1.000000    
    224 O2    s    0.789398 *  0.695292 *  0.312124 *  -2.87073    1.000000    
    225 O3    s    0.299656 *  0.098252 *  0.640414 *  -3.33043    1.000000    
    226 O2    s    0.088788 *  0.795350 *  0.479609 *  -2.87073    1.000000    
    227 O2    s    0.194435 *  0.288378 *  0.811958 *  -2.87073    1.000000    
    228 O2    s    0.694103 *  0.907014 *  0.146520 *  -2.87073    1.000000    
    229 O2    s    0.199269 *  0.900106 *  0.349061 *  -2.87073    1.000000    
    230 O2    s    0.695079 *  0.797421 *  0.013666 *  -2.87073    1.000000    
    231 O2    s    0.103684 *  0.297465 *  0.680409 *  -2.87073    1.000000    
    232 O3    s    0.798683 *  0.095715 *  0.847936 *  -3.33043    1.000000    
    233 O2    s    0.291908 *  0.205547 *  0.514406 *  -2.87073    1.000000    
    234 O2    s    0.897182 *  0.702377 *  0.178414 *  -2.87073    1.000000    
    235 O2    s    0.317711 *  0.649621 *  0.245591 *  -2.87073    1.000000    
    236 O2    s    0.349005 *  0.671680 *  0.579008 *  -2.87073    1.000000    
    237 O2    s    0.310384 *  0.664481 *  0.912038 *  -2.87073    1.000000    
    238 O2    s    0.682332 *  0.346688 *  0.749548 *  -2.87073    1.000000    
    239 O3    s    0.622008 *  0.307281 *  0.086453 *  -3.33043    1.000000    
    240 O2    s    0.669234 *  0.326460 *  0.415753 *  -2.87073    1.000000    
    241 O2    s    0.370288 *  0.342081 *  0.964842 *  -2.87073    1.000000    
    242 O2    s    0.653471 *  0.027127 *  0.301581 *  -2.87073    1.000000    
    243 O2    s    0.975933 *  0.627680 *  0.633584 *  -2.87073    1.000000    
    244 O2    s    0.618673 *  0.657338 *  0.464042 *  -2.87073    1.000000    
    245 O2    s    0.339689 *  0.962323 *  0.798217 *  -2.87073    1.000000    
    246 O2    s    0.021274 *  0.375270 *  0.128897 *  -2.87073    1.000000    
    247 O2    s    0.334455 *  0.368992 *  0.360459 *  -2.87073    1.000000    
    248 O2    s    0.020552 *  0.654468 *  0.025820 *  -2.87073    1.000000    
    249 O2    s    0.631899 *  0.961055 *  0.697735 *  -2.87073    1.000000    
    250 O2    s    0.648291 *  0.626001 *  0.861948 *  -2.87073    1.000000    
    251 O2    s    0.961917 *  0.341587 *  0.529249 *  -2.87073    1.000000    
    252 O2    s    0.367453 *  0.030602 *  0.197981 *  -2.87073    1.000000    
    253 O3    s    0.759996 *  0.287743 *  0.005005 *  -3.33043    1.000000    
    254 O2    s    0.685142 *  0.459094 *  0.344640 *  -2.87073    1.000000    
    255 O3    s    0.550187 *  0.237056 *  0.679711 *  -3.33043    1.000000    
    256 O2    s    0.222060 *  0.688945 *  0.510187 *  -2.87073    1.000000    
    257 O2    s    0.294717 *  0.524962 *  0.842541 *  -2.87073    1.000000    
    258 O2    s    0.455458 *  0.774940 *  0.177024 *  -2.87073    1.000000    
    259 O2    s    0.301304 *  0.766050 *  0.316569 *  -2.87073    1.000000    
    260 O2    s    0.453606 *  0.688280 *  0.982059 *  -2.87073    1.000000    
    261 O2    s    0.233263 *  0.534599 *  0.648974 *  -2.87073    1.000000    
    262 O3    s    0.688863 *  0.239462 *  0.821601 *  -3.33043    1.000000    
    263 O2    s    0.529983 *  0.310805 *  0.484248 *  -2.87073    1.000000    
    264 O2    s    0.760635 *  0.462559 *  0.147974 *  -2.87073    1.000000    
    265 O3    s    0.777831 *  0.547182 *  0.021373 *  -3.33043    1.000000    
    266 O2    s    0.463983 *  0.251588 *  0.361574 *  -2.87073    1.000000    
    267 O2    s    0.746211 *  0.210874 *  0.696082 *  -2.87073    1.000000    
    268 O2    s    0.208941 *  0.467661 *  0.526483 *  -2.87073    1.000000    
    269 O2    s    0.515337 *  0.737736 *  0.859470 *  -2.87073    1.000000    
    270 O2    s    0.244847 *  0.784135 *  0.194672 *  -2.87073    1.000000    
    271 O2    s    0.523095 *  0.780448 *  0.299713 *  -2.87073    1.000000    
    272 O2    s    0.245732 *  0.464638 *  0.965754 *  -2.87073    1.000000    
    273 O2    s    0.222854 *  0.746006 *  0.632582 *  -2.87073    1.000000    
    274 O2    s    0.469746 *  0.209915 *  0.797709 *  -2.87073    1.000000    
    275 O2    s    0.738905 *  0.531272 *  0.467395 *  -2.87073    1.000000    
    276 O2    s    0.776110 *  0.255480 *  0.130965 *  -2.87073    1.000000    
    277 O2    s    0.229582 *  0.328889 *  0.895228 *  -2.87073    1.000000    
    278 O2    s    0.657953 *  0.902049 *  0.230224 *  -2.87073    1.000000    
    279 O2    s    0.096971 *  0.760981 *  0.562868 *  -2.87073    1.000000    
    280 O2    s    0.754687 *  0.661310 *  0.395406 *  -2.87073    1.000000    
    281 O3    s    0.328687 *  0.086353 *  0.730575 *  -3.33043    1.000000    
    282 O2    s    0.891125 *  0.236687 *  0.060384 *  -2.87073    1.000000    
    283 O2    s    0.328288 *  0.237673 *  0.431090 *  -2.87073    1.000000    
    284 O2    s    0.886708 *  0.657315 *  0.094852 *  -2.87073    1.000000    
    285 O3    s    0.780792 *  0.095688 *  0.761679 *  -3.33043    1.000000    
    286 O2    s    0.654447 *  0.761370 *  0.930495 *  -2.87073    1.000000    
    287 O2    s    0.097200 *  0.334006 *  0.597426 *  -2.87073    1.000000    
    288 O2    s    0.232398 *  0.900782 *  0.266311 *  -2.87073    1.000000    
    289 O2    s    0.573700 *  0.562418 *  0.984066 *  -2.87073    1.000000    
    290 O2    s    0.435290 *  0.012350 *  0.320801 *  -2.87073    1.000000    
    291 O2    s    0.987212 *  0.419574 *  0.651771 *  -2.87073    1.000000    
    292 O2    s    0.412555 *  0.439443 *  0.483176 *  -2.87073    1.000000    
    293 O3    s    0.542751 *  0.957066 *  0.821112 *  -3.33043    1.000000    
    294 O2    s    0.005335 *  0.575334 *  0.145788 *  -2.87073    1.000000    
    295 O2    s    0.553049 *  0.573972 *  0.341695 *  -2.87073    1.000000    
    296 O2    s    0.001466 *  0.436202 *  0.007307 *  -2.87073    1.000000    
    297 O3    s    0.434309 *  0.975810 *  0.675664 *  -3.33043    1.000000    
    298 O2    s    0.430485 *  0.414336 *  0.843636 *  -2.87073    1.000000    
    299 O2    s    0.974643 *  0.560173 *  0.510673 *  -2.87073    1.000000    
    300 O2    s    0.575144 *  0.020994 *  0.178983 *  -2.87073    1.000000    
    301 O2    s    0.569223 *  0.145735 *  0.251523 *  -2.87073    1.000000    
    302 O2    s    0.850287 *  0.426390 *  0.582405 *  -2.87073    1.000000    
    303 O2    s    0.572788 *  0.428726 *  0.914190 *  -2.87073    1.000000    
    304 O2    s    0.424868 *  0.845706 *  0.746581 *  -2.87073    1.000000    
    305 O2    s    0.133814 *  0.569682 *  0.077609 *  -2.87073    1.000000    
    306 O2    s    0.416884 *  0.571323 *  0.411586 *  -2.87073    1.000000    
    307 F     s    0.440608 *  0.894774 *  0.248081 *  -1.56000    1.000000    
    308 F     s    0.101242 *  0.550644 *  0.580608 *  -1.56000    1.000000    
    309 F     s    0.434657 *  0.548923 *  0.912249 *  -1.56000    1.000000    
    310 F     s    0.584163 *  0.095303 *  0.759953 *  -1.56000    1.000000    
    311 F     s    0.837266 *  0.429092 *  0.067677 *  -1.56000    1.000000    
    312 F     s    0.544521 *  0.447412 *  0.413395 *  -1.56000    1.000000    
--------------------------------------------------------------------------------



********************************************************************************
*  General input information                                                   *
********************************************************************************

  Species output for all configurations : 

--------------------------------------------------------------------------------
  Species    Type    Atomic    Atomic    Charge       Radii (Angs)     Library
                     Number     Mass       (e)     Cova   Ionic  VDW   Symbol
--------------------------------------------------------------------------------
    Si       Core       14      28.09   4.000000   1.200  0.000  2.100          
    O1       Core        8      16.00   1.733957   0.730  0.000  1.360          
    O1       Shell       8       0.00  -3.733957   0.730  0.000  1.360          
    O2       Core        8      16.00   0.870733   0.730  0.000  1.360          
    O2       Shell       8       0.00  -2.870733   0.730  0.000  1.360          
    O3       Core        8      16.00   1.330431   0.730  0.000  1.360          
    O3       Shell       8       0.00  -3.330431   0.730  0.000  1.360          
    F        Core        9      19.00   0.560000   0.710  0.000  1.300          
    F        Shell       9       0.00  -1.560000   0.710  0.000  1.300          
    Ge       Core       32      72.61   4.000000   1.170  0.000  1.750          
--------------------------------------------------------------------------------


  Lattice summation method               =    Ewald          (3-D)
                                         =    Parry          (2-D)
                                         =    Saunders et al (1-D)
  Accuracy factor for lattice sums       =   12.000


  Time limit = Infinity

  Maximum range for interatomic potentials =        16.000000 Angstroms

  Taper potentials to zero over   1.0000 Angstroms using polynomial

  General interatomic potentials :

--------------------------------------------------------------------------------
Atom  Types   Potential         A         B         C         D     Cutoffs(Ang)
  1     2                                                            Min    Max 
--------------------------------------------------------------------------------
Si   c O1   s Buckingham    0.132E+04 0.318      10.1      0.00     0.000 16.000
Si   c O2   s Buckingham    0.132E+04 0.318      10.1      0.00     0.000 16.000
Si   c O3   s Buckingham    0.132E+04 0.318      10.1      0.00     0.000 16.000
Ge   c O1   s Buckingham    0.150E+04 0.326      16.8      0.00     0.000 16.000
Ge   c O2   s Buckingham    0.150E+04 0.326      16.8      0.00     0.000 16.000
Ge   c O3   s Buckingham    0.150E+04 0.326      16.8      0.00     0.000 16.000
O1   s O1   s Buckingham    0.228E+05 0.149      10.9      0.00     0.000 16.000
O1   s O2   s Buckingham    0.228E+05 0.149      10.9      0.00     0.000 16.000
O1   s O3   s Buckingham    0.228E+05 0.149      10.9      0.00     0.000 16.000
O2   s O2   s Buckingham    0.228E+05 0.149      10.9      0.00     0.000 16.000
O2   s O3   s Buckingham    0.228E+05 0.149      10.9      0.00     0.000 16.000
O3   s O3   s Buckingham    0.228E+05 0.149      10.9      0.00     0.000 16.000
Si   c F    s Buckingham     977.     0.282      0.00      0.00     0.000 16.000
Ge   c F    s Buckingham     681.     0.320      0.00      0.00     0.000 16.000
F    s F    s Buckingham     540.     0.262      0.00      0.00     0.000 16.000
O1   s F    s Buckingham    0.168E+04 0.268      0.00      0.00     0.000 16.000
O2   s F    s Buckingham    0.168E+04 0.268      0.00      0.00     0.000 16.000
O3   s F    s Buckingham    0.168E+04 0.268      0.00      0.00     0.000 16.000
O2   c O2   s Spring (c-s)   76.0      0.00      0.00      0.00     0.000  0.800
O3   c O3   s Spring (c-s)   128.      0.00      0.00      0.00     0.000  0.800
O1   c O1   s Spring (c-s)   180.      0.00      0.00      0.00     0.000  0.800
F    c F    s Spring (c-s)   33.5      0.00      0.00      0.00     0.000  0.800
--------------------------------------------------------------------------------

  General Three-body potentials :

  Harmonic form:

--------------------------------------------------------------------------------
Atom    Atom    Atom           Force Constants            Theta     Cutoffs  
  1       2       3     (eVrad**-2/eVrad**-3/eVrad**-4)   (deg)  1-2  1-3  2-3
--------------------------------------------------------------------------------
Si    c O1    s O1    s  1.261        0.0000    0.0000   109.470 0.00 0.00 0.00
                                                                 1.90 1.90 3.50
Si    c O1    s O2    s  1.261        0.0000    0.0000   109.470 0.00 0.00 0.00
                                                                 1.90 1.90 3.50
Si    c O2    s O2    s  1.261        0.0000    0.0000   109.470 0.00 0.00 0.00
                                                                 1.90 1.90 3.50
--------------------------------------------------------------------------------

********************************************************************************
*  Output for configuration   1                                                *
********************************************************************************


  Components of energy : 

--------------------------------------------------------------------------------
  Interatomic potentials     =        2064.73847847 eV
  Three-body potentials      =           0.48219068 eV
  Monopole - monopole (real) =       -6611.06845784 eV
  Monopole - monopole (recip)=       -3174.35043195 eV
  Monopole - monopole (total)=       -9785.41888979 eV
  Neutralising energy        =          -6.46617358 eV
--------------------------------------------------------------------------------
  Total lattice energy       =       -7726.66439422 eV
--------------------------------------------------------------------------------
  Total lattice energy       =         -745505.0012 kJ/(mole unit cells)
--------------------------------------------------------------------------------


  Number of variables =      939

  Maximum number of calculations  =          5000
  Maximum Hessian update interval =            10
  Maximum step size               =   0.100000000
  Maximum parameter tolerance     =   0.000010000
  Maximum function  tolerance     =   0.000010000
  Maximum gradient  tolerance     =   0.001000000
  Maximum gradient  component     =   0.010000000

  Symmetry not applied to optimisation

  Cell parameters to be optimised using strains

  Newton-Raphson optimiser to be used

  BFGS hessian update to be used

  Dumpfile to be written after every cycle

  Start of bulk optimisation :

  Cycle:      0 Energy:     -7726.664394  Gnorm:      0.006835  CPU:    2.018
  ** Hessian calculated **
  Cycle:      1 Energy:     -7726.664485  Gnorm:      0.002188  CPU:    5.231
  Cycle:      2 Energy:     -7726.664503  Gnorm:      0.001216  CPU:    8.067
  Cycle:      3 Energy:     -7726.664516  Gnorm:      0.000790  CPU:   10.903
  Cycle:      4 Energy:     -7726.664530  Gnorm:      0.000627  CPU:   13.750
  Cycle:      5 Energy:     -7726.664549  Gnorm:      0.000745  CPU:   16.590
  Cycle:      6 Energy:     -7726.664577  Gnorm:      0.001062  CPU:   19.435
  Cycle:      7 Energy:     -7726.664710  Gnorm:      0.002969  CPU:   25.011
  Cycle:      8 Energy:     -7726.664866  Gnorm:      0.004950  CPU:   29.218
  Cycle:      9 Energy:     -7726.665061  Gnorm:      0.007269  CPU:   33.427
  Cycle:     10 Energy:     -7726.665309  Gnorm:      0.009901  CPU:   37.634
  ** Hessian calculated **
  Cycle:     11 Energy:     -7726.665510  Gnorm:      0.004098  CPU:   42.180
  Cycle:     12 Energy:     -7726.665559  Gnorm:      0.002555  CPU:   45.023
  Cycle:     13 Energy:     -7726.665608  Gnorm:      0.001223  CPU:   49.231
  Cycle:     14 Energy:     -7726.665635  Gnorm:      0.001007  CPU:   52.069
  Cycle:     15 Energy:     -7726.665657  Gnorm:      0.001239  CPU:   54.911
  Cycle:     16 Energy:     -7726.665715  Gnorm:      0.002196  CPU:   59.794
  Cycle:     17 Energy:     -7726.665767  Gnorm:      0.002661  CPU:   63.312
  Cycle:     18 Energy:     -7726.665832  Gnorm:      0.002939  CPU:   67.513
  Cycle:     19 Energy:     -7726.665888  Gnorm:      0.002963  CPU:   70.348
  Cycle:     20 Energy:     -7726.666038  Gnorm:      0.002683  CPU:   75.231
  ** Hessian calculated **
  Cycle:     21 Energy:     -7726.666149  Gnorm:      0.002677  CPU:   79.765
  Cycle:     22 Energy:     -7726.666426  Gnorm:      0.002663  CPU:   84.648
  Cycle:     23 Energy:     -7726.666893  Gnorm:      0.002640  CPU:   89.531
  Cycle:     24 Energy:     -7726.667612  Gnorm:      0.002603  CPU:   94.414
  Cycle:     25 Energy:     -7726.668685  Gnorm:      0.002547  CPU:   99.296
  Cycle:     26 Energy:     -7726.669999  Gnorm:      0.002477  CPU:  103.497
  Cycle:     27 Energy:     -7726.672151  Gnorm:      0.002358  CPU:  108.380
  Cycle:     28 Energy:     -7726.674779  Gnorm:      0.002205  CPU:  112.581
  Cycle:     29 Energy:     -7726.678895  Gnorm:      0.001942  CPU:  117.465
  Cycle:     30 Energy:     -7726.683441  Gnorm:      0.001606  CPU:  121.666
  ** Hessian calculated **
  Cycle:     31 Energy:     -7726.688660  Gnorm:      0.001086  CPU:  127.565
  Cycle:     32 Energy:     -7726.691645  Gnorm:      0.000636  CPU:  131.767
  Cycle:     33 Energy:     -7726.692387  Gnorm:      0.000365  CPU:  135.968
  Cycle:     34 Energy:     -7726.692573  Gnorm:      0.000196  CPU:  140.171
  Cycle:     35 Energy:     -7726.692604  Gnorm:      0.000139  CPU:  143.009
  Cycle:     36 Energy:     -7726.692620  Gnorm:      0.000098  CPU:  145.846
  Cycle:     37 Energy:     -7726.692627  Gnorm:      0.000069  CPU:  148.684
  Cycle:     38 Energy:     -7726.692631  Gnorm:      0.000048  CPU:  151.521
  Cycle:     39 Energy:     -7726.692633  Gnorm:      0.000034  CPU:  154.359


  **** Optimisation achieved ****


  Final energy =   -7726.69263388 eV
  Final Gnorm  =       0.00002366

  Components of energy : 

--------------------------------------------------------------------------------
  Interatomic potentials     =        2064.88395703 eV
  Three-body potentials      =           0.48570791 eV
  Monopole - monopole (real) =       -6611.60617334 eV
  Monopole - monopole (recip)=       -3173.99068271 eV
  Monopole - monopole (total)=       -9785.59685604 eV
  Neutralising energy        =          -6.46544278 eV
--------------------------------------------------------------------------------
  Total lattice energy       =       -7726.69263388 eV
--------------------------------------------------------------------------------
  Total lattice energy       =         -745507.7259 kJ/(mole unit cells)
--------------------------------------------------------------------------------

  Final fractional coordinates of atoms :

--------------------------------------------------------------------------------
   No.  Atomic        x           y          z          Radius
        Label       (Frac)      (Frac)     (Frac)       (Angs) 
--------------------------------------------------------------------------------
     1  Ge    c     0.699600    0.375700    0.033890    0.000000
     2  Si    c     0.604555    0.308447    0.366001    0.000000
     3  Si    c     0.680932    0.298122    0.699764    0.000000
     4  Si    c     0.286140    0.610687    0.530192    0.000000
     5  Si    c     0.351430    0.658761    0.863301    0.000000
     6  Si    c     0.302659    0.691860    0.197269    0.000000
     7  Si    c     0.358586    0.685159    0.298070    0.000000
     8  Si    c     0.302843    0.609017    0.963715    0.000000
     9  Si    c     0.297127    0.667516    0.631374    0.000000
    10  Si    c     0.616815    0.300530    0.801646    0.000000
    11  Si    c     0.661130    0.368278    0.466947    0.000000
    12  Si    c     0.669102    0.305809    0.132306    0.000000
    13  Si    c     0.520414    0.412799    0.966552    0.000000
    14  Si    c     0.565930    0.095732    0.302475    0.000000
    15  Si    c     0.889420    0.465863    0.634240    0.000000
    16  Si    c     0.452702    0.569213    0.464491    0.000000
    17  Si    c     0.401453    0.871205    0.800818    0.000000
    18  Si    c     0.090709    0.519543    0.130377    0.000000
    19  Si    c     0.397796    0.511807    0.362397    0.000000
    20  Si    c     0.090494    0.572741    0.026954    0.000000
    21  Si    c     0.469116    0.875653    0.697922    0.000000
    22  Si    c     0.565229    0.468073    0.863946    0.000000
    23  Si    c     0.876282    0.409824    0.532209    0.000000
    24  Si    c     0.510615    0.099260    0.200535    0.000000
    25  Si    c     0.280279    0.385274    0.848982    0.000000
    26  Si    c     0.582190    0.892698    0.183606    0.000000
    27  Si    c     0.085147    0.689297    0.516688    0.000000
    28  Si    c     0.679556    0.584126    0.349226    0.000000
    29  Ge    c     0.394994    0.090300    0.682182    0.000000
    30  Si    c     0.879328    0.284331    0.010572    0.000000
    31  Si    c     0.382048    0.290532    0.479897    0.000000
    32  Si    c     0.876314    0.590278    0.143318    0.000000
    33  Ge    c     0.675700    0.089820    0.808318    0.000000
    34  Si    c     0.583772    0.692439    0.978184    0.000000
    35  Si    c     0.096438    0.389940    0.646663    0.000000
    36  Si    c     0.284200    0.886004    0.314490    0.000000
    37  Si    c     0.237811    0.331998    0.949877    0.000000
    38  Si    c     0.640663    0.894717    0.284944    0.000000
    39  Si    c     0.089691    0.743014    0.617821    0.000000
    40  Si    c     0.731982    0.646563    0.450245    0.000000
    41  Si    c     0.328032    0.079904    0.784806    0.000000
    42  Si    c     0.885951    0.238485    0.114452    0.000000
    43  Si    c     0.322187    0.235156    0.378781    0.000000
    44  Si    c     0.890671    0.657990    0.040713    0.000000
    45  Si    c     0.752336    0.082753    0.712912    0.000000
    46  Si    c     0.638096    0.745060    0.877124    0.000000
    47  Si    c     0.077421    0.330427    0.545283    0.000000
    48  Si    c     0.230239    0.897989    0.213665    0.000000
    49  Si    c     0.960624    0.112338    0.962473    0.000000
    50  Si    c     0.857528    0.830252    0.298150    0.000000
    51  Si    c     0.144336    0.021329    0.629465    0.000000
    52  Si    c     0.012681    0.865713    0.464648    0.000000
    53  Si    c     0.105656    0.135007    0.798471    0.000000
    54  Si    c     0.828609    0.962549    0.131797    0.000000
    55  Si    c     0.104855    0.953917    0.363560    0.000000
    56  Si    c     0.834175    0.876624    0.029886    0.000000
    57  Si    c     0.026443    0.141409    0.695396    0.000000
    58  Si    c     0.861406    0.022795    0.861309    0.000000
    59  Si    c     0.133550    0.110371    0.529062    0.000000
    60  Si    c     0.949260    0.837515    0.196520    0.000000
    61  O2    c     0.914683    0.998834    0.998730    0.000000
    62  O2    c     0.983890    0.911233    0.329536    0.000000
    63  O2    c     0.065077    0.060658    0.662552    0.000000
    64  O2    c     0.054753    0.991741    0.494779    0.000000
    65  O2    c     0.981946    0.051969    0.828921    0.000000
    66  O2    c     0.910943    0.922594    0.164881    0.000000
    67  O2    c     0.320417    0.560114    0.329402    0.000000
    68  O2    c     0.421484    0.751089    0.664764    0.000000
    69  O2    c     0.217798    0.647038    0.996276    0.000000
    70  O2    c     0.644356    0.425455    0.830631    0.000000
    71  O2    c     0.560763    0.227383    0.170346    0.000000
    72  O2    c     0.746553    0.331953    0.500715    0.000000
    73  O3    c     0.563983    0.335812    0.998142    0.000000
    74  O2    c     0.769190    0.421499    0.668216    0.000000
    75  O2    c     0.643170    0.221148    0.335243    0.000000
    76  O2    c     0.405742    0.647353    0.496357    0.000000
    77  O2    c     0.216370    0.569975    0.163572    0.000000
    78  O2    c     0.310931    0.741024    0.829320    0.000000
    79  O2    c     0.114741    0.203539    0.970102    0.000000
    80  O2    c     0.767094    0.892994    0.305046    0.000000
    81  O2    c     0.094015    0.870156    0.638181    0.000000
    82  O2    c     0.858563    0.774010    0.470458    0.000000
    83  O2    c     0.203584    0.079592    0.805877    0.000000
    84  O2    c     0.889079    0.116248    0.136483    0.000000
    85  O2    c     0.195678    0.107731    0.358489    0.000000
    86  O2    c     0.906693    0.794812    0.025540    0.000000
    87  O2    c     0.873569    0.085917    0.687177    0.000000
    88  O2    c     0.760946    0.868784    0.855724    0.000000
    89  O2    c     0.072148    0.202860    0.524443    0.000000
    90  O2    c     0.104227    0.900394    0.193497    0.000000
    91  O2    c     0.904065    0.842273    0.246911    0.000000
    92  O2    c     0.116020    0.049539    0.578580    0.000000
    93  O2    c     0.922033    0.052691    0.912554    0.000000
    94  O2    c     0.061758    0.120539    0.745946    0.000000
    95  O2    c     0.840672    0.924010    0.081271    0.000000
    96  O2    c     0.049333    0.912987    0.413514    0.000000
    97  O2    c     0.892476    0.195963    0.972466    0.000000
    98  O2    c     0.776679    0.679328    0.310621    0.000000
    99  O3    c     0.296429    0.097341    0.639332    0.000000
   100  O2    c     0.084461    0.786960    0.478512    0.000000
   101  O2    c     0.182732    0.286552    0.810191    0.000000
   102  O2    c     0.677420    0.892211    0.144956    0.000000
   103  O2    c     0.187521    0.884745    0.352985    0.000000
   104  O2    c     0.682610    0.791896    0.016795    0.000000
   105  O2    c     0.102275    0.293980    0.684381    0.000000
   106  O3    c     0.790053    0.098419    0.850724    0.000000
   107  O2    c     0.286275    0.193904    0.518488    0.000000
   108  O2    c     0.879893    0.688103    0.181967    0.000000
   109  O2    c     0.301803    0.630735    0.246983    0.000000
   110  O2    c     0.350083    0.667848    0.580419    0.000000
   111  O2    c     0.294798    0.662198    0.913231    0.000000
   112  O2    c     0.678244    0.348437    0.750739    0.000000
   113  O3    c     0.604458    0.298447    0.084249    0.000000
   114  O2    c     0.662133    0.310524    0.416904    0.000000
   115  O2    c     0.362320    0.326288    0.967834    0.000000
   116  O2    c     0.652914    0.026441    0.304594    0.000000
   117  O2    c     0.959364    0.621576    0.637188    0.000000
   118  O2    c     0.609657    0.656991    0.467655    0.000000
   119  O2    c     0.322454    0.949174    0.801373    0.000000
   120  O2    c     0.017954    0.364310    0.132323    0.000000
   121  O2    c     0.310691    0.355726    0.359510    0.000000
   122  O2    c     0.023468    0.660961    0.025855    0.000000
   123  O2    c     0.625678    0.946695    0.697360    0.000000
   124  O2    c     0.648844    0.622953    0.859951    0.000000
   125  O2    c     0.943519    0.321778    0.528246    0.000000
   126  O2    c     0.353634    0.029932    0.196224    0.000000
   127  O3    c     0.745713    0.278021    0.002194    0.000000
   128  O2    c     0.678917    0.449982    0.342718    0.000000
   129  O3    c     0.537758    0.233825    0.678107    0.000000
   130  O2    c     0.217535    0.686600    0.508417    0.000000
   131  O2    c     0.276228    0.516227    0.840195    0.000000
   132  O2    c     0.445463    0.760801    0.174941    0.000000
   133  O2    c     0.283226    0.751669    0.320886    0.000000
   134  O2    c     0.447804    0.689150    0.986124    0.000000
   135  O2    c     0.230639    0.524895    0.653481    0.000000
   136  O3    c     0.688755    0.236510    0.826610    0.000000
   137  O2    c     0.517460    0.292948    0.488700    0.000000
   138  O2    c     0.745081    0.455183    0.151217    0.000000
   139  O3    c     0.766405    0.543467    0.018181    0.000000
   140  O2    c     0.447779    0.233806    0.360111    0.000000
   141  O2    c     0.741718    0.205207    0.694712    0.000000
   142  O2    c     0.202466    0.455052    0.525142    0.000000
   143  O2    c     0.507595    0.737720    0.857560    0.000000
   144  O2    c     0.226113    0.771384    0.193179    0.000000
   145  O2    c     0.515237    0.767931    0.303755    0.000000
   146  O2    c     0.230626    0.453926    0.969716    0.000000
   147  O2    c     0.218531    0.744804    0.636478    0.000000
   148  O2    c     0.459405    0.207275    0.800557    0.000000
   149  O2    c     0.734624    0.523860    0.471170    0.000000
   150  O2    c     0.762349    0.242107    0.133241    0.000000
   151  O2    c     0.211859    0.311757    0.895399    0.000000
   152  O2    c     0.656649    0.894575    0.230426    0.000000
   153  O2    c     0.085871    0.760767    0.563343    0.000000
   154  O2    c     0.750764    0.660846    0.395758    0.000000
   155  O3    c     0.310811    0.077767    0.730508    0.000000
   156  O2    c     0.885132    0.223359    0.060022    0.000000
   157  O2    c     0.305898    0.218229    0.433311    0.000000
   158  O2    c     0.879216    0.659500    0.096208    0.000000
   159  O3    c     0.781548    0.088489    0.765720    0.000000
   160  O2    c     0.655587    0.764031    0.931866    0.000000
   161  O2    c     0.086652    0.315184    0.599623    0.000000
   162  O2    c     0.212795    0.893844    0.268191    0.000000
   163  O2    c     0.571659    0.555709    0.987801    0.000000
   164  O2    c     0.424910    0.009474    0.324976    0.000000
   165  O2    c     0.972542    0.405646    0.656386    0.000000
   166  O2    c     0.395864    0.429361    0.488103    0.000000
   167  O3    c     0.537979    0.947365    0.826576    0.000000
   168  O2    c     0.999852    0.571264    0.149930    0.000000
   169  O2    c     0.538910    0.568391    0.339655    0.000000
   170  O2    c     0.998840    0.431480    0.005550    0.000000
   171  O3    c     0.421495    0.965122    0.673915    0.000000
   172  O2    c     0.421434    0.402702    0.840719    0.000000
   173  O2    c     0.958008    0.549917    0.508560    0.000000
   174  O2    c     0.569221    0.018716    0.176350    0.000000
   175  O2    c     0.563890    0.149497    0.251928    0.000000
   176  O2    c     0.828666    0.411465    0.583640    0.000000
   177  O2    c     0.570268    0.417612    0.914598    0.000000
   178  O2    c     0.410585    0.829231    0.748276    0.000000
   179  O2    c     0.136038    0.567265    0.079099    0.000000
   180  O2    c     0.398089    0.566124    0.413107    0.000000
   181  F     c     0.430943    0.888179    0.249021    0.000000
   182  F     c     0.090602    0.541023    0.581890    0.000000
   183  F     c     0.426442    0.541202    0.913064    0.000000
   184  F     c     0.568815    0.087908    0.758435    0.000000
   185  F     c     0.844821    0.430210    0.070881    0.000000
   186  F     c     0.530475    0.437037    0.414740    0.000000
   187  O2    s     0.910473    0.997400    0.998278    0.000000
   188  O2    s     0.983258    0.906901    0.329830    0.000000
   189  O2    s     0.069735    0.065261    0.662485    0.000000
   190  O2    s     0.058869    0.990920    0.495249    0.000000
   191  O2    s     0.983639    0.058431    0.828787    0.000000
   192  O2    s     0.906158    0.917563    0.164762    0.000000
   193  O2    s     0.332251    0.567997    0.329554    0.000000
   194  O2    s     0.413525    0.755071    0.664678    0.000000
   195  O2    s     0.212747    0.635301    0.996280    0.000000
   196  O2    s     0.633291    0.416419    0.830920    0.000000
   197  O2    s     0.566632    0.221904    0.169610    0.000000
   198  O2    s     0.751101    0.343757    0.500464    0.000000
   199  O3    s     0.568970    0.347091    0.997267    0.000000
   200  O2    s     0.772580    0.413323    0.667948    0.000000
   201  O2    s     0.631277    0.217143    0.335017    0.000000
   202  O2    s     0.398320    0.635512    0.496544    0.000000
   203  O2    s     0.211869    0.577049    0.163504    0.000000
   204  O2    s     0.324066    0.746101    0.829778    0.000000
   205  O2    s     0.110848    0.206926    0.967246    0.000000
   206  O2    s     0.763570    0.886511    0.302255    0.000000
   207  O2    s     0.098770    0.872471    0.635200    0.000000
   208  O2    s     0.861889    0.770581    0.467770    0.000000
   209  O2    s     0.206566    0.085352    0.802937    0.000000
   210  O2    s     0.882399    0.112714    0.133740    0.000000
   211  O2    s     0.199159    0.104626    0.361104    0.000000
   212  O2    s     0.897327    0.789334    0.027569    0.000000
   213  O2    s     0.877585    0.091541    0.690605    0.000000
   214  O2    s     0.757887    0.870998    0.858551    0.000000
   215  O2    s     0.079178    0.206182    0.527041    0.000000
   216  O2    s     0.100785    0.893436    0.195893    0.000000
   217  O2    s     0.903914    0.840377    0.247026    0.000000
   218  O2    s     0.121164    0.053271    0.578665    0.000000
   219  O2    s     0.920142    0.056409    0.912945    0.000000
   220  O2    s     0.062565    0.124546    0.745941    0.000000
   221  O2    s     0.838551    0.923250    0.081459    0.000000
   222  O2    s     0.051508    0.912282    0.413638    0.000000
   223  O2    s     0.898378    0.196536    0.975502    0.000000
   224  O2    s     0.775320    0.685550    0.313239    0.000000
   225  O3    s     0.288712    0.089133    0.641630    0.000000
   226  O2    s     0.076905    0.785329    0.480951    0.000000
   227  O2    s     0.184501    0.280490    0.812915    0.000000
   228  O2    s     0.683528    0.899662    0.147558    0.000000
   229  O2    s     0.188657    0.892202    0.350165    0.000000
   230  O2    s     0.688959    0.790982    0.014306    0.000000
   231  O2    s     0.093867    0.288067    0.681643    0.000000
   232  O3    s     0.790577    0.089344    0.849146    0.000000
   233  O2    s     0.279917    0.194935    0.515683    0.000000
   234  O2    s     0.886963    0.693996    0.179523    0.000000
   235  O2    s     0.307678    0.642540    0.247104    0.000000
   236  O2    s     0.338260    0.662041    0.580500    0.000000
   237  O2    s     0.301332    0.656432    0.913306    0.000000
   238  O2    s     0.672641    0.338572    0.750354    0.000000
   239  O3    s     0.617275    0.304050    0.086220    0.000000
   240  O2    s     0.656121    0.316242    0.416807    0.000000
   241  O2    s     0.364216    0.335560    0.965694    0.000000
   242  O2    s     0.642733    0.019868    0.302330    0.000000
   243  O2    s     0.965931    0.618322    0.634817    0.000000
   244  O2    s     0.606346    0.646833    0.465482    0.000000
   245  O2    s     0.331039    0.955265    0.799543    0.000000
   246  O2    s     0.011899    0.367541    0.130266    0.000000
   247  O2    s     0.320803    0.359194    0.361814    0.000000
   248  O2    s     0.017247    0.651460    0.027465    0.000000
   249  O2    s     0.621985    0.952891    0.699007    0.000000
   250  O2    s     0.638860    0.619366    0.862184    0.000000
   251  O2    s     0.950671    0.331779    0.530456    0.000000
   252  O2    s     0.356742    0.023124    0.198515    0.000000
   253  O3    s     0.756965    0.285187    0.005267    0.000000
   254  O2    s     0.671379    0.449508    0.345808    0.000000
   255  O3    s     0.540046    0.228279    0.680586    0.000000
   256  O2    s     0.210672    0.679101    0.511552    0.000000
   257  O2    s     0.284386    0.517132    0.843532    0.000000
   258  O2    s     0.444995    0.767467    0.178187    0.000000
   259  O2    s     0.291033    0.758929    0.317847    0.000000
   260  O2    s     0.446952    0.681282    0.982980    0.000000
   261  O2    s     0.223309    0.525368    0.650430    0.000000
   262  O3    s     0.680310    0.232743    0.822679    0.000000
   263  O2    s     0.517959    0.300431    0.485507    0.000000
   264  O2    s     0.751819    0.455287    0.148529    0.000000
   265  O3    s     0.775998    0.545456    0.021605    0.000000
   266  O2    s     0.450546    0.241807    0.362704    0.000000
   267  O2    s     0.736265    0.202371    0.697098    0.000000
   268  O2    s     0.197533    0.457746    0.527818    0.000000
   269  O2    s     0.505397    0.730122    0.860241    0.000000
   270  O2    s     0.234555    0.776710    0.195769    0.000000
   271  O2    s     0.512426    0.773091    0.301155    0.000000
   272  O2    s     0.238910    0.457252    0.967050    0.000000
   273  O2    s     0.212701    0.736655    0.633980    0.000000
   274  O2    s     0.460910    0.202616    0.798944    0.000000
   275  O2    s     0.726538    0.520875    0.468482    0.000000
   276  O2    s     0.766760    0.248114    0.131081    0.000000
   277  O2    s     0.221763    0.321643    0.896186    0.000000
   278  O2    s     0.647110    0.894392    0.231290    0.000000
   279  O2    s     0.086197    0.751354    0.564192    0.000000
   280  O2    s     0.741297    0.651274    0.396641    0.000000
   281  O3    s     0.319485    0.079006    0.731821    0.000000
   282  O2    s     0.884649    0.230929    0.061087    0.000000
   283  O2    s     0.315590    0.227597    0.432417    0.000000
   284  O2    s     0.879976    0.651706    0.095910    0.000000
   285  O3    s     0.771457    0.087960    0.762905    0.000000
   286  O2    s     0.646216    0.754545    0.930999    0.000000
   287  O2    s     0.086703    0.324589    0.598730    0.000000
   288  O2    s     0.222111    0.893474    0.267242    0.000000
   289  O2    s     0.567538    0.556332    0.984562    0.000000
   290  O2    s     0.424562    0.005052    0.321483    0.000000
   291  O2    s     0.977316    0.410387    0.653028    0.000000
   292  O2    s     0.400476    0.428981    0.484752    0.000000
   293  O3    s     0.534071    0.950234    0.822571    0.000000
   294  O2    s     0.996241    0.567663    0.147127    0.000000
   295  O2    s     0.539308    0.564003    0.343062    0.000000
   296  O2    s     0.996429    0.431834    0.008395    0.000000
   297  O3    s     0.423974    0.967208    0.676977    0.000000
   298  O2    s     0.421198    0.407721    0.844017    0.000000
   299  O2    s     0.963344    0.550339    0.511888    0.000000
   300  O2    s     0.564382    0.013390    0.179640    0.000000
   301  O2    s     0.558490    0.138542    0.251849    0.000000
   302  O2    s     0.839841    0.416889    0.583520    0.000000
   303  O2    s     0.564783    0.422501    0.914369    0.000000
   304  O2    s     0.415886    0.838220    0.748061    0.000000
   305  O2    s     0.126544    0.562712    0.079283    0.000000
   306  O2    s     0.403719    0.560820    0.413192    0.000000
   307  F     s     0.430560    0.887645    0.248988    0.000000
   308  F     s     0.090990    0.541318    0.581897    0.000000
   309  F     s     0.425467    0.541636    0.912943    0.000000
   310  F     s     0.575233    0.088108    0.761231    0.000000
   311  F     s     0.833766    0.426207    0.068212    0.000000
   312  F     s     0.530661    0.436787    0.414747    0.000000
--------------------------------------------------------------------------------

  Final Cartesian lattice vectors (Angstroms) :

       11.946846    0.001149   -0.013142
       -6.055013   10.400035    0.010756
       -0.477125   -0.211217   29.356559


  Final cell parameters and derivatives :

--------------------------------------------------------------------------------
       a           11.946853 Angstrom     dE/de1(xx)     0.001678 eV/strain
       b           12.034285 Angstrom     dE/de2(yy)     0.001217 eV/strain
       c           29.361196 Angstrom     dE/de3(zz)     0.002462 eV/strain
       alpha       89.836532 Degrees      dE/de4(yz)     0.000210 eV/strain
       beta        90.994173 Degrees      dE/de5(xz)     0.001054 eV/strain
       gamma      120.202945 Degrees      dE/de6(xy)     0.000296 eV/strain
--------------------------------------------------------------------------------

  Primitive cell volume =          3647.632004 Angs**3

  Density of cell =      1.754040 g/cm**3

  Non-primitive cell volume =          3647.632004 Angs**3


  Final internal derivatives :

--------------------------------------------------------------------------------
   No.  Atomic          a             b             c           Radius
        Label          (eV)          (eV)          (eV)        (eV/Angs)
--------------------------------------------------------------------------------
      1 Ge    c       0.000000      0.000000      0.000000      0.000000
      2 Si    c      -0.000209      0.001019      0.000805      0.000000
      3 Si    c      -0.000635     -0.000232      0.000004      0.000000
      4 Si    c      -0.000115      0.000200      0.000691      0.000000
      5 Si    c       0.000511      0.000137     -0.000049      0.000000
      6 Si    c       0.000003     -0.000149      0.000208      0.000000
      7 Si    c      -0.000220      0.000259     -0.000698      0.000000
      8 Si    c       0.000674     -0.000248     -0.000441      0.000000
      9 Si    c       0.000092      0.000031      0.000533      0.000000
     10 Si    c      -0.000095     -0.000638     -0.000199      0.000000
     11 Si    c      -0.000213      0.000213      0.000198      0.000000
     12 Si    c       0.000480     -0.000230      0.007019      0.000000
     13 Si    c      -0.001655      0.000906     -0.002018      0.000000
     14 Si    c      -0.000149     -0.000228     -0.000457      0.000000
     15 Si    c      -0.000091      0.000049     -0.000791      0.000000
     16 Si    c       0.000538     -0.000362     -0.000387      0.000000
     17 Si    c      -0.000109     -0.000288     -0.000249      0.000000
     18 Si    c       0.000297      0.000205      0.001570      0.000000
     19 Si    c       0.000972      0.000010      0.000662      0.000000
     20 Si    c       0.000202      0.000221      0.000262      0.000000
     21 Si    c      -0.000071     -0.000484     -0.000309      0.000000
     22 Si    c      -0.000007      0.000248      0.000077      0.000000
     23 Si    c      -0.000363      0.000151     -0.000821      0.000000
     24 Si    c       0.000081     -0.000012      0.000470      0.000000
     25 Si    c       0.000258      0.000158     -0.000733      0.000000
     26 Si    c      -0.000066     -0.000000      0.001112      0.000000
     27 Si    c      -0.000116      0.000510     -0.000403      0.000000
     28 Si    c       0.000494      0.000418      0.000297      0.000000
     29 Ge    c      -0.000040     -0.000261     -0.001083      0.000000
     30 Si    c       0.001478      0.000156     -0.001033      0.000000
     31 Si    c       0.000473      0.000244     -0.001009      0.000000
     32 Si    c       0.000519      0.000424      0.001867      0.000000
     33 Ge    c       0.000130     -0.000651      0.000151      0.000000
     34 Si    c       0.000488     -0.000312      0.001103      0.000000
     35 Si    c      -0.000041     -0.000155     -0.000267      0.000000
     36 Si    c       0.000063     -0.000111     -0.000631      0.000000
     37 Si    c       0.000559     -0.000078      0.000253      0.000000
     38 Si    c      -0.000107      0.000180     -0.000202      0.000000
     39 Si    c      -0.000122      0.000249      0.000143      0.000000
     40 Si    c       0.000346      0.000125      0.000510      0.000000
     41 Si    c       0.000076     -0.000084     -0.000590      0.000000
     42 Si    c       0.000662     -0.000072      0.001832      0.000000
     43 Si    c       0.000504      0.000492     -0.000104      0.000000
     44 Si    c       0.000272      0.000452     -0.003178      0.000000
     45 Si    c      -0.000502     -0.000366     -0.000536      0.000000
     46 Si    c       0.000555     -0.000087      0.000143      0.000000
     47 Si    c       0.000118      0.000158     -0.000007      0.000000
     48 Si    c       0.000386     -0.000158     -0.000182      0.000000
     49 Si    c       0.000757      0.000101     -0.000839      0.000000
     50 Si    c       0.000790      0.000775      0.000274      0.000000
     51 Si    c       0.000435      0.000202     -0.000439      0.000000
     52 Si    c       0.000184      0.000266      0.000443      0.000000
     53 Si    c       0.000303      0.000533     -0.000063      0.000000
     54 Si    c       0.000776     -0.000219      0.001130      0.000000
     55 Si    c      -0.000164      0.000498     -0.000466      0.000000
     56 Si    c       0.000003     -0.000081     -0.000421      0.000000
     57 Si    c       0.000036      0.000163      0.000842      0.000000
     58 Si    c       0.000373      0.000268      0.000137      0.000000
     59 Si    c       0.000146     -0.000111      0.000091      0.000000
     60 Si    c       0.000320      0.000237     -0.000701      0.000000
     61 O2    c       0.000444     -0.000877      0.001337      0.000000
     62 O2    c      -0.000139      0.000230     -0.000168      0.000000
     63 O2    c       0.000282     -0.000143     -0.000016      0.000000
     64 O2    c       0.000175     -0.000130      0.000109      0.000000
     65 O2    c       0.000053      0.000135      0.000251      0.000000
     66 O2    c      -0.000027      0.000177      0.000672      0.000000
     67 O2    c      -0.000114      0.000080     -0.000213      0.000000
     68 O2    c      -0.000259     -0.000245     -0.000217      0.000000
     69 O2    c       0.000128      0.000250      0.000826      0.000000
     70 O2    c       0.000074      0.000168     -0.000121      0.000000
     71 O2    c      -0.000109      0.000300     -0.000270      0.000000
     72 O2    c       0.000116      0.000095      0.000231      0.000000
     73 O3    c       0.000286     -0.001878      0.002366      0.000000
     74 O2    c      -0.000229      0.000141     -0.000093      0.000000
     75 O2    c       0.000403     -0.000371     -0.000571      0.000000
     76 O2    c       0.000079      0.000027      0.000377      0.000000
     77 O2    c      -0.000009     -0.000128     -0.000557      0.000000
     78 O2    c       0.000069     -0.000298      0.000558      0.000000
     79 O2    c       0.000190     -0.000210      0.000338      0.000000
     80 O2    c      -0.000260      0.000125     -0.000347      0.000000
     81 O2    c      -0.000207     -0.000095      0.000496      0.000000
     82 O2    c       0.000043      0.000012     -0.000131      0.000000
     83 O2    c      -0.000209      0.000044      0.000196      0.000000
     84 O2    c       0.000136     -0.000465      0.000301      0.000000
     85 O2    c       0.000498      0.000434      0.000187      0.000000
     86 O2    c       0.001065     -0.000480     -0.000403      0.000000
     87 O2    c       0.000171     -0.000089     -0.000210      0.000000
     88 O2    c       0.000521     -0.000302     -0.000126      0.000000
     89 O2    c       0.000094      0.000222      0.000347      0.000000
     90 O2    c       0.000094      0.000329      0.000125      0.000000
     91 O2    c       0.000072      0.000296      0.001036      0.000000
     92 O2    c       0.000011      0.000248      0.001389      0.000000
     93 O2    c       0.000321     -0.000265      0.000360      0.000000
     94 O2    c      -0.000086      0.000295      0.001221      0.000000
     95 O2    c       0.000296      0.000144      0.002624      0.000000
     96 O2    c       0.000196      0.000184      0.002311      0.000000
     97 O2    c      -0.000122      0.000413     -0.000175      0.000000
     98 O2    c       0.000416     -0.000235     -0.000923      0.000000
     99 O3    c      -0.000197     -0.000063      0.001493      0.000000
    100 O2    c      -0.000040      0.000207     -0.000331      0.000000
    101 O2    c       0.000207      0.000118      0.000204      0.000000
    102 O2    c       0.000351     -0.000182     -0.000071      0.000000
    103 O2    c       0.000390     -0.000427      0.000848      0.000000
    104 O2    c      -0.000093     -0.000333     -0.000635      0.000000
    105 O2    c      -0.000158      0.000235     -0.000008      0.000000
    106 O3    c      -0.000203      0.000183      0.000442      0.000000
    107 O2    c       0.000194      0.000018      0.000281      0.000000
    108 O2    c       0.000106     -0.000062      0.000741      0.000000
    109 O2    c       0.000000      0.000258      0.000632      0.000000
    110 O2    c       0.000137      0.000034      0.000070      0.000000
    111 O2    c      -0.000402      0.000553      0.000185      0.000000
    112 O2    c      -0.000037      0.000312     -0.000440      0.000000
    113 O3    c      -0.003990     -0.000053     -0.007989      0.000000
    114 O2    c      -0.000381      0.000504     -0.000682      0.000000
    115 O2    c       0.000042      0.000002     -0.000204      0.000000
    116 O2    c       0.000019     -0.000013      0.000341      0.000000
    117 O2    c      -0.000253     -0.000004     -0.000262      0.000000
    118 O2    c       0.000178     -0.000227      0.000309      0.000000
    119 O2    c       0.000010     -0.000075     -0.000254      0.000000
    120 O2    c       0.000131     -0.000028      0.000142      0.000000
    121 O2    c       0.000509     -0.000198     -0.000690      0.000000
    122 O2    c      -0.000138      0.000638      0.000143      0.000000
    123 O2    c       0.000001     -0.000021      0.000196      0.000000
    124 O2    c       0.000103      0.000040      0.000658      0.000000
    125 O2    c       0.000149     -0.000027     -0.000228      0.000000
    126 O2    c       0.000163      0.000036     -0.000717      0.000000
    127 O3    c      -0.000115     -0.000301     -0.003460      0.000000
    128 O2    c      -0.000079      0.000359     -0.000024      0.000000
    129 O3    c       0.000155      0.000056      0.000609      0.000000
    130 O2    c      -0.000004     -0.000042     -0.000364      0.000000
    131 O2    c       0.000157      0.000198     -0.000306      0.000000
    132 O2    c       0.000155      0.000255     -0.000335      0.000000
    133 O2    c      -0.000039      0.000196      0.000473      0.000000
    134 O2    c      -0.000162      0.000020      0.000519      0.000000
    135 O2    c      -0.000004     -0.000279      0.000419      0.000000
    136 O3    c      -0.000030      0.000177      0.001698      0.000000
    137 O2    c      -0.000389      0.000304      0.000037      0.000000
    138 O2    c       0.000018      0.000295      0.001770      0.000000
    139 O3    c      -0.000368      0.000198     -0.005399      0.000000
    140 O2    c      -0.000085      0.000424     -0.000263      0.000000
    141 O2    c       0.000121      0.000079     -0.000339      0.000000
    142 O2    c       0.000276      0.000074     -0.000532      0.000000
    143 O2    c       0.000200      0.000272     -0.000284      0.000000
    144 O2    c       0.000083     -0.000011     -0.000373      0.000000
    145 O2    c      -0.000225      0.000080      0.000234      0.000000
    146 O2    c      -0.000037     -0.000099      0.000763      0.000000
    147 O2    c      -0.000346      0.000103     -0.000121      0.000000
    148 O2    c      -0.000110      0.000080     -0.000352      0.000000
    149 O2    c      -0.000265      0.000063     -0.000126      0.000000
    150 O2    c      -0.000193     -0.000101      0.001206      0.000000
    151 O2    c       0.000114     -0.000189      0.001354      0.000000
    152 O2    c      -0.000255      0.000125     -0.000123      0.000000
    153 O2    c      -0.000056     -0.000100      0.000746      0.000000
    154 O2    c       0.000033     -0.000172      0.000463      0.000000
    155 O3    c       0.000005     -0.000172     -0.001492      0.000000
    156 O2    c       0.000273     -0.000330     -0.000876      0.000000
    157 O2    c       0.000223     -0.000065      0.000394      0.000000
    158 O2    c       0.000062      0.000645      0.003011      0.000000
    159 O3    c       0.000378     -0.000197     -0.001866      0.000000
    160 O2    c       0.000529     -0.000257      0.000271      0.000000
    161 O2    c      -0.000007     -0.000228      0.000714      0.000000
    162 O2    c       0.000260     -0.000246      0.000335      0.000000
    163 O2    c       0.000065     -0.000092     -0.000682      0.000000
    164 O2    c      -0.000059     -0.000202      0.000907      0.000000
    165 O2    c      -0.000115     -0.000072      0.000077      0.000000
    166 O2    c       0.000281     -0.000100      0.000607      0.000000
    167 O3    c      -0.000247     -0.000372      0.000402      0.000000
    168 O2    c      -0.000179      0.000112      0.000081      0.000000
    169 O2    c       0.000303     -0.000020     -0.000479      0.000000
    170 O2    c       0.000428      0.000317     -0.000030      0.000000
    171 O3    c      -0.000250      0.000108      0.000984      0.000000
    172 O2    c       0.000312      0.000193      0.000434      0.000000
    173 O2    c       0.000110      0.000288     -0.000176      0.000000
    174 O2    c       0.000085      0.000081     -0.000482      0.000000
    175 O2    c       0.000144     -0.000100     -0.000489      0.000000
    176 O2    c      -0.000142      0.000242      0.000473      0.000000
    177 O2    c      -0.000040      0.000057     -0.000446      0.000000
    178 O2    c      -0.000043      0.000051      0.000634      0.000000
    179 O2    c       0.000333      0.000203     -0.000812      0.000000
    180 O2    c       0.000469     -0.000060      0.000782      0.000000
    181 F     c       0.000055     -0.000134      0.000030      0.000000
    182 F     c      -0.000273      0.000190     -0.000156      0.000000
    183 F     c       0.000532     -0.000350     -0.000039      0.000000
    184 F     c      -0.000053     -0.000221     -0.000172      0.000000
    185 F     c       0.000556      0.000085     -0.000241      0.000000
    186 F     c       0.000337      0.000059     -0.000099      0.000000
    187 O2    s      -0.000542      0.000288     -0.000383      0.000000
    188 O2    s      -0.000403      0.000275     -0.001407      0.000000
    189 O2    s       0.000608     -0.000261     -0.001713      0.000000
    190 O2    s      -0.000217     -0.000322     -0.001460      0.000000
    191 O2    s      -0.000107      0.000161     -0.000333      0.000000
    192 O2    s      -0.000053      0.000328     -0.001646      0.000000
    193 O2    s       0.000284      0.000100     -0.000191      0.000000
    194 O2    s      -0.000224      0.000338     -0.000436      0.000000
    195 O2    s       0.000226     -0.000225     -0.001047      0.000000
    196 O2    s       0.000374     -0.000068      0.000143      0.000000
    197 O2    s       0.000307     -0.000458      0.001152      0.000000
    198 O2    s       0.000247     -0.000287     -0.000521      0.000000
    199 O3    s       0.000564      0.000987     -0.001534      0.000000
    200 O2    s       0.000102     -0.000110     -0.000352      0.000000
    201 O2    s       0.000156      0.000068     -0.000166      0.000000
    202 O2    s       0.000087      0.000020     -0.001061      0.000000
    203 O2    s       0.000135     -0.000040      0.000192      0.000000
    204 O2    s       0.000231      0.000232     -0.000300      0.000000
    205 O2    s      -0.000075      0.000437     -0.000726      0.000000
    206 O2    s       0.000302      0.000140      0.000243      0.000000
    207 O2    s      -0.000100     -0.000026     -0.000241      0.000000
    208 O2    s       0.000056      0.000187      0.000127      0.000000
    209 O2    s      -0.000196      0.000204      0.000520      0.000000
    210 O2    s      -0.000065     -0.000079     -0.000795      0.000000
    211 O2    s      -0.000075     -0.000307     -0.000338      0.000000
    212 O2    s       0.000176      0.000026     -0.000839      0.000000
    213 O2    s      -0.000150      0.000016     -0.000291      0.000000
    214 O2    s      -0.000068     -0.000240     -0.000447      0.000000
    215 O2    s       0.000064      0.000071     -0.000230      0.000000
    216 O2    s      -0.000256      0.000009     -0.000700      0.000000
    217 O2    s       0.000124      0.000302      0.000176      0.000000
    218 O2    s      -0.000215      0.000402     -0.001269      0.000000
    219 O2    s      -0.000248      0.000563     -0.001005      0.000000
    220 O2    s       0.000148      0.000118     -0.001370      0.000000
    221 O2    s      -0.000864      0.000998      0.000332      0.000000
    222 O2    s      -0.000167      0.000145     -0.000864      0.000000
    223 O2    s       0.000093      0.000165     -0.000351      0.000000
    224 O2    s       0.000046     -0.000401      0.001810      0.000000
    225 O3    s      -0.000129     -0.000050     -0.001156      0.000000
    226 O2    s       0.000266     -0.000099      0.000280      0.000000
    227 O2    s       0.000116     -0.000432     -0.000640      0.000000
    228 O2    s       0.000030      0.000131     -0.001677      0.000000
    229 O2    s       0.000197     -0.000095     -0.001284      0.000000
    230 O2    s      -0.000392      0.000094     -0.000543      0.000000
    231 O2    s      -0.000341      0.000288     -0.000668      0.000000
    232 O3    s      -0.000212      0.000013     -0.001811      0.000000
    233 O2    s      -0.000165      0.000106      0.000027      0.000000
    234 O2    s       0.000460     -0.000605     -0.001834      0.000000
    235 O2    s       0.000035     -0.000053      0.000028      0.000000
    236 O2    s      -0.000113      0.000298     -0.000249      0.000000
    237 O2    s       0.000015      0.000411      0.000247      0.000000
    238 O2    s       0.000092     -0.000154     -0.000185      0.000000
    239 O3    s       0.003739      0.000722      0.002704      0.000000
    240 O2    s       0.000457     -0.000187      0.000089      0.000000
    241 O2    s      -0.000005     -0.000073     -0.000182      0.000000
    242 O2    s       0.000216     -0.000266     -0.000371      0.000000
    243 O2    s       0.000224     -0.000009     -0.000818      0.000000
    244 O2    s      -0.000265      0.000540     -0.000445      0.000000
    245 O2    s       0.000184     -0.000361      0.000260      0.000000
    246 O2    s       0.000196     -0.000091      0.000318      0.000000
    247 O2    s      -0.000278     -0.000026     -0.000263      0.000000
    248 O2    s       0.000515     -0.000095     -0.000358      0.000000
    249 O2    s       0.000013      0.000185      0.000202      0.000000
    250 O2    s       0.000324     -0.000243     -0.000417      0.000000
    251 O2    s      -0.000105      0.000174     -0.000346      0.000000
    252 O2    s      -0.000154      0.000010      0.000422      0.000000
    253 O3    s      -0.000469      0.000921      0.002896      0.000000
    254 O2    s       0.000554     -0.000560      0.000686      0.000000
    255 O3    s       0.000118     -0.000111     -0.000700      0.000000
    256 O2    s       0.000182     -0.000067      0.000394      0.000000
    257 O2    s      -0.000085      0.000132     -0.001011      0.000000
    258 O2    s       0.000095     -0.000090      0.000526      0.000000
    259 O2    s       0.000081     -0.000176     -0.001040      0.000000
    260 O2    s       0.000170      0.000294      0.000239      0.000000
    261 O2    s      -0.000050      0.000220      0.000140      0.000000
    262 O3    s      -0.000305      0.000349     -0.000960      0.000000
    263 O2    s       0.000256     -0.000204     -0.000286      0.000000
    264 O2    s       0.000194     -0.000361     -0.002528      0.000000
    265 O3    s       0.000054     -0.000948      0.005667      0.000000
    266 O2    s       0.000085     -0.000232     -0.000206      0.000000
    267 O2    s      -0.000114     -0.000231     -0.000082      0.000000
    268 O2    s      -0.000119     -0.000064     -0.000558      0.000000
    269 O2    s      -0.000439      0.000145     -0.000256      0.000000
    270 O2    s      -0.000019      0.000162      0.000362      0.000000
    271 O2    s       0.000237     -0.000073     -0.000177      0.000000
    272 O2    s      -0.000013     -0.000041     -0.000247      0.000000
    273 O2    s       0.000100     -0.000044     -0.000512      0.000000
    274 O2    s       0.000193     -0.000092      0.000268      0.000000
    275 O2    s       0.000491     -0.000098     -0.000497      0.000000
    276 O2    s      -0.000016      0.000399     -0.001363      0.000000
    277 O2    s      -0.000024     -0.000025     -0.000505      0.000000
    278 O2    s       0.000159     -0.000087      0.000158      0.000000
    279 O2    s       0.000214     -0.000226     -0.000895      0.000000
    280 O2    s       0.000171      0.000036     -0.001351      0.000000
    281 O3    s      -0.000217      0.000014      0.001347      0.000000
    282 O2    s      -0.000129      0.000095     -0.000110      0.000000
    283 O2    s      -0.000087      0.000016     -0.000082      0.000000
    284 O2    s       0.000311     -0.000522     -0.000214      0.000000
    285 O3    s      -0.000333     -0.000196      0.003078      0.000000
    286 O2    s      -0.000106      0.000135      0.000497      0.000000
    287 O2    s      -0.000113      0.000051     -0.000171      0.000000
    288 O2    s      -0.000062      0.000090      0.000269      0.000000
    289 O2    s       0.000286     -0.000119      0.000433      0.000000
    290 O2    s       0.000033      0.000272     -0.001051      0.000000
    291 O2    s       0.000037     -0.000111     -0.000407      0.000000
    292 O2    s      -0.000322      0.000266     -0.000327      0.000000
    293 O3    s       0.000063      0.000550     -0.001377      0.000000
    294 O2    s      -0.000105      0.000357      0.000077      0.000000
    295 O2    s      -0.000632      0.000619      0.000617      0.000000
    296 O2    s      -0.000117     -0.000610     -0.000554      0.000000
    297 O3    s      -0.000038     -0.000013     -0.001066      0.000000
    298 O2    s      -0.000026     -0.000089     -0.000423      0.000000
    299 O2    s       0.000169     -0.000358      0.000280      0.000000
    300 O2    s       0.000113     -0.000165      0.000334      0.000000
    301 O2    s      -0.000030      0.000136      0.000553      0.000000
    302 O2    s       0.000219     -0.000097      0.000088      0.000000
    303 O2    s       0.000506     -0.000193     -0.000098      0.000000
    304 O2    s      -0.000168      0.000131      0.000124      0.000000
    305 O2    s       0.000046      0.000180      0.000237      0.000000
    306 O2    s      -0.000247      0.000661     -0.000213      0.000000
    307 F     s       0.000039     -0.000092     -0.000125      0.000000
    308 F     s      -0.000264      0.000203     -0.000093      0.000000
    309 F     s       0.000288     -0.000081     -0.000200      0.000000
    310 F     s      -0.000093     -0.000122     -0.000198      0.000000
    311 F     s      -0.000778     -0.000139     -0.000118      0.000000
    312 F     s       0.000222      0.000020     -0.000154      0.000000
--------------------------------------------------------------------------------
  Maximum abs         0.003990      0.001878      0.007989      0.000000
--------------------------------------------------------------------------------


  Time to end of optimisation =     157.1992 seconds


  Peak dynamic memory used =      19.13 MB 


  Timing analysis for GULP :

--------------------------------------------------------------------------------
  Task / Subroutine                                          Time (Seconds)
--------------------------------------------------------------------------------
  Calculation of reciprocal space energy and derivatives          3.6813
  Calculation of real space energy and derivatives              137.8515
  Calculation of three-body energy and derivatives               13.9665
  Calculation of matrix inversion                                 1.4892
  Global summation overhead                                       0.0002
--------------------------------------------------------------------------------
  Total CPU time                                                157.1993
--------------------------------------------------------------------------------


  Dump file written as out.res                                                 
  CIF file written as out.cif                                                 


  Job Finished at 11:35.17  6th November   2016                               

