********************************************************************************
*                       GENERAL UTILITY LATTICE PROGRAM                        *
*                                 Julian Gale                                  *
*                      Nanochemistry Research Institute                        *
*                           Department of Chemistry                            *
*                    Curtin University, Western Australia                      *
********************************************************************************
* Version = 4.2.0 * Last modified =  20th January 2014                         *
********************************************************************************
*  optimise     - perform optimisation run                                     *
*  conp         - constant pressure calculation                                *
*  qok          - running with non charge neutral cell is OK                   *
********************************************************************************

  Job Started  at 14:47.31  6th November   2016                               

  Number of CPUs =     1


  Total number of configurations input =   1

********************************************************************************
*  Input for Configuration =   1                                               *
********************************************************************************

  Formula = Ge3Si57O120F6                                               

  Number of irreducible atoms/shells =     312


  Total number atoms/shells =     312

  Dimensionality = 3               :  Bulk   


  Charge on solid   =  -6.000000 =>neutralising background added


  Cartesian lattice vectors (Angstroms) :

       11.934236    0.000000    0.000000
       -6.005267   10.404524    0.000000
       -0.402519   -0.077981   29.407344

  Cell parameters (Angstroms/Degrees):

  a =      11.9342    alpha =  89.7396
  b =      12.0132    beta  =  90.7842
  c =      29.4102    gamma = 119.9926

  Initial cell volume =        3651.511309 Angs**3

  Temperature of configuration =  0.000     K 

  Pressure of configuration =         0.000 GPa 

  Fractional coordinates of asymmetric unit :

--------------------------------------------------------------------------------
   No.  Atomic       x           y          z         Charge      Occupancy
        Label      (Frac)      (Frac)     (Frac)        (e)         (Frac)  
--------------------------------------------------------------------------------
      1 Ge    c    0.699600    0.375700    0.033890     4.00000    1.000000    
      2 Si    c    0.621926 *  0.323278 *  0.366718 *   4.00000    1.000000    
      3 Si    c    0.681813 *  0.308011 *  0.696107 *   4.00000    1.000000    
      4 Si    c    0.297583 *  0.616318 *  0.530351 *   4.00000    1.000000    
      5 Si    c    0.375667 *  0.676579 *  0.862626 *   4.00000    1.000000    
      6 Si    c    0.324594 *  0.709604 *  0.197900 *   4.00000    1.000000    
      7 Si    c    0.378667 *  0.701106 *  0.298537 *   4.00000    1.000000    
      8 Si    c    0.319960 *  0.621877 *  0.962907 *   4.00000    1.000000    
      9 Si    c    0.303043 *  0.668627 *  0.631183 *   4.00000    1.000000    
     10 Si    c    0.618315 *  0.300377 *  0.798322 *   4.00000    1.000000    
     11 Si    c    0.676332 *  0.380071 *  0.467469 *   4.00000    1.000000    
     12 Si    c    0.685864 *  0.319817 *  0.133705 *   4.00000    1.000000    
     13 Si    c    0.527991 *  0.417594 *  0.965764 *   4.00000    1.000000    
     14 Si    c    0.584156 *  0.111391 *  0.303333 *   4.00000    1.000000    
     15 Si    c    0.898905 *  0.475833 *  0.633737 *   4.00000    1.000000    
     16 Si    c    0.468905 *  0.580930 *  0.465032 *   4.00000    1.000000    
     17 Si    c    0.409959 *  0.884507 *  0.796732 *   4.00000    1.000000    
     18 Si    c    0.115549 *  0.535191 *  0.130388 *   4.00000    1.000000    
     19 Si    c    0.416495 *  0.526912 *  0.363167 *   4.00000    1.000000    
     20 Si    c    0.106355 *  0.582899 *  0.026493 *   4.00000    1.000000    
     21 Si    c    0.468174 *  0.880771 *  0.693943 *   4.00000    1.000000    
     22 Si    c    0.579220 *  0.470419 *  0.863648 *   4.00000    1.000000    
     23 Si    c    0.889325 *  0.418708 *  0.532460 *   4.00000    1.000000    
     24 Si    c    0.528508 *  0.115746 *  0.201731 *   4.00000    1.000000    
     25 Si    c    0.297598 *  0.399718 *  0.848094 *   4.00000    1.000000    
     26 Si    c    0.602913 *  0.910983 *  0.184408 *   4.00000    1.000000    
     27 Si    c    0.098257 *  0.697842 *  0.517254 *   4.00000    1.000000    
     28 Si    c    0.697791 *  0.599056 *  0.350494 *   4.00000    1.000000    
     29 Ge    c    0.411210 *  0.096516 *  0.688275 *   4.00000    1.000000    
     30 Si    c    0.891409 *  0.296050 *  0.010575 *   4.00000    1.000000    
     31 Si    c    0.396397 *  0.301027 *  0.480949 *   4.00000    1.000000    
     32 Si    c    0.896994 *  0.601843 *  0.144402 *   4.00000    1.000000    
     33 Si    c    0.696123 *  0.097085 *  0.813107 *   4.00000    1.000000    
     34 Si    c    0.599107 *  0.698564 *  0.978788 *   4.00000    1.000000    
     35 Si    c    0.101071 *  0.393822 *  0.646794 *   4.00000    1.000000    
     36 Si    c    0.302403 *  0.901359 *  0.315816 *   4.00000    1.000000    
     37 Si    c    0.247955 *  0.341988 *  0.948714 *   4.00000    1.000000    
     38 Si    c    0.660946 *  0.911232 *  0.285386 *   4.00000    1.000000    
     39 Si    c    0.100674 *  0.752987 *  0.618319 *   4.00000    1.000000    
     40 Si    c    0.748838 *  0.659850 *  0.451282 *   4.00000    1.000000    
     41 Si    c    0.329600 *  0.087314 *  0.783933 *   4.00000    1.000000    
     42 Ge    c    0.904664 *  0.251959 *  0.114680 *   4.00000    1.000000    
     43 Si    c    0.339797 *  0.249871 *  0.379622 *   4.00000    1.000000    
     44 Si    c    0.901976 *  0.661596 *  0.041784 *   4.00000    1.000000    
     45 Si    c    0.749731 *  0.090544 *  0.711337 *   4.00000    1.000000    
     46 Si    c    0.656600 *  0.748089 *  0.878104 *   4.00000    1.000000    
     47 Si    c    0.088386 *  0.336893 *  0.545829 *   4.00000    1.000000    
     48 Si    c    0.249707 *  0.913444 *  0.215112 *   4.00000    1.000000    
     49 Si    c    0.970950 *  0.122124 *  0.964032 *   4.00000    1.000000    
     50 Si    c    0.877275 *  0.845313 *  0.299586 *   4.00000    1.000000    
     51 Si    c    0.160181 *  0.032626 *  0.633740 *   4.00000    1.000000    
     52 Si    c    0.029369 *  0.877848 *  0.466321 *   4.00000    1.000000    
     53 Si    c    0.117411 *  0.150340 *  0.799295 *   4.00000    1.000000    
     54 Si    c    0.848319 *  0.972683 *  0.132608 *   4.00000    1.000000    
     55 Si    c    0.122805 *  0.969272 *  0.365354 *   4.00000    1.000000    
     56 Si    c    0.847426 *  0.882960 *  0.030629 *   4.00000    1.000000    
     57 Si    c    0.029492 *  0.145620 *  0.696919 *   4.00000    1.000000    
     58 Si    c    0.874515 *  0.025584 *  0.863866 *   4.00000    1.000000    
     59 Si    c    0.150087 *  0.119822 *  0.532133 *   4.00000    1.000000    
     60 Si    c    0.968137 *  0.847116 *  0.198137 *   4.00000    1.000000    
     61 O2    c    0.927606 *  0.007525 *  0.999799 *   0.87073    1.000000    
     62 O2    c    0.002218 *  0.926160 *  0.331225 *   0.87073    1.000000    
     63 O2    c    0.066848 *  0.063480 *  0.664463 *   0.87073    1.000000    
     64 O2    c    0.071843 *  0.999395 *  0.498585 *   0.87073    1.000000    
     65 O2    c    0.993690 *  0.072116 *  0.830602 *   0.87073    1.000000    
     66 O2    c    0.923732 *  0.923590 *  0.164944 *   0.87073    1.000000    
     67 O2    c    0.340175 *  0.576104 *  0.329892 *   0.87073    1.000000    
     68 O2    c    0.427822 *  0.751479 *  0.664417 *   0.87073    1.000000    
     69 O2    c    0.232728 *  0.658594 *  0.994965 *   0.87073    1.000000    
     70 O2    c    0.656121 *  0.421343 *  0.831592 *   0.87073    1.000000    
     71 O2    c    0.575501 *  0.243914 *  0.171605 *   0.87073    1.000000    
     72 O2    c    0.760818 *  0.341893 *  0.500706 *   0.87073    1.000000    
     73 O3    c    0.567106 *  0.337104 *  0.998037 *   1.33043    1.000000    
     74 O2    c    0.779000 *  0.434578 *  0.667822 *   0.87073    1.000000    
     75 O2    c    0.661166 *  0.236305 *  0.335825 *   0.87073    1.000000    
     76 O2    c    0.418971 *  0.656392 *  0.496950 *   0.87073    1.000000    
     77 O2    c    0.242391 *  0.591147 *  0.162775 *   0.87073    1.000000    
     78 O2    c    0.336836 *  0.760973 *  0.829550 *   0.87073    1.000000    
     79 O2    c    0.125341 *  0.214064 *  0.969270 *   0.87073    1.000000    
     80 O2    c    0.787427 *  0.909626 *  0.305328 *   0.87073    1.000000    
     81 O2    c    0.103430 *  0.878147 *  0.639101 *   0.87073    1.000000    
     82 O2    c    0.874736 *  0.787052 *  0.471330 *   0.87073    1.000000    
     83 O2    c    0.210394 *  0.090735 *  0.809082 *   0.87073    1.000000    
     84 O3    c    0.916298 *  0.124151 *  0.137826 *   1.33043    1.000000    
     85 O2    c    0.213448 *  0.122779 *  0.359405 *   0.87073    1.000000    
     86 O2    c    0.916234 *  0.797584 *  0.025318 *   0.87073    1.000000    
     87 O2    c    0.874839 *  0.089341 *  0.691847 *   0.87073    1.000000    
     88 O2    c    0.783151 *  0.872474 *  0.857552 *   0.87073    1.000000    
     89 O2    c    0.085890 *  0.210070 *  0.525714 *   0.87073    1.000000    
     90 O2    c    0.123238 *  0.914410 *  0.194673 *   0.87073    1.000000    
     91 O2    c    0.924334 *  0.855018 *  0.248381 *   0.87073    1.000000    
     92 O2    c    0.137426 *  0.065951 *  0.582298 *   0.87073    1.000000    
     93 O2    c    0.930277 *  0.059769 *  0.914464 *   0.87073    1.000000    
     94 O2    c    0.065365 *  0.130435 *  0.748181 *   0.87073    1.000000    
     95 O2    c    0.854640 *  0.930393 *  0.081725 *   0.87073    1.000000    
     96 O2    c    0.068203 *  0.930283 *  0.415551 *   0.87073    1.000000    
     97 O2    c    0.903108 *  0.206771 *  0.971732 *   0.87073    1.000000    
     98 O2    c    0.795947 *  0.694807 *  0.312088 *   0.87073    1.000000    
     99 O3    c    0.306878 *  0.106699 *  0.645991 *   1.33043    1.000000    
    100 O2    c    0.098421 *  0.795257 *  0.478626 *   0.87073    1.000000    
    101 O2    c    0.197848 *  0.302929 *  0.809643 *   0.87073    1.000000    
    102 O2    c    0.696928 *  0.911316 *  0.145129 *   0.87073    1.000000    
    103 O2    c    0.205706 *  0.899795 *  0.354446 *   0.87073    1.000000    
    104 O2    c    0.695922 *  0.798239 *  0.017251 *   0.87073    1.000000    
    105 O2    c    0.102334 *  0.297055 *  0.685193 *   0.87073    1.000000    
    106 O2    c    0.790117 *  0.094542 *  0.852726 *   0.87073    1.000000    
    107 O2    c    0.301656 *  0.204220 *  0.519476 *   0.87073    1.000000    
    108 O2    c    0.902900 *  0.697594 *  0.184048 *   0.87073    1.000000    
    109 O2    c    0.322141 *  0.646969 *  0.247462 *   0.87073    1.000000    
    110 O2    c    0.358735 *  0.671141 *  0.580676 *   0.87073    1.000000    
    111 O2    c    0.317803 *  0.678225 *  0.912499 *   0.87073    1.000000    
    112 O2    c    0.674068 *  0.353846 *  0.748119 *   0.87073    1.000000    
    113 O3    c    0.616038 *  0.306527 *  0.085542 *   1.33043    1.000000    
    114 O2    c    0.678700 *  0.323939 *  0.417333 *   0.87073    1.000000    
    115 O2    c    0.370765 *  0.332996 *  0.966592 *   0.87073    1.000000    
    116 O2    c    0.671382 *  0.041979 *  0.305158 *   0.87073    1.000000    
    117 O2    c    0.967952 *  0.630847 *  0.636198 *   0.87073    1.000000    
    118 O2    c    0.625488 *  0.669576 *  0.468377 *   0.87073    1.000000    
    119 O2    c    0.323857 *  0.954118 *  0.799839 *   0.87073    1.000000    
    120 O3    c    0.049747 *  0.382869 *  0.132222 *   1.33043    1.000000    
    121 O2    c    0.328978 *  0.370971 *  0.360094 *   0.87073    1.000000    
    122 O2    c    0.033685 *  0.666014 *  0.024572 *   0.87073    1.000000    
    123 O2    c    0.626084 *  0.957818 *  0.694362 *   0.87073    1.000000    
    124 O2    c    0.665691 *  0.626006 *  0.859678 *   0.87073    1.000000    
    125 O2    c    0.955675 *  0.329455 *  0.527967 *   0.87073    1.000000    
    126 O2    c    0.371681 *  0.046015 *  0.197568 *   0.87073    1.000000    
    127 O3    c    0.756930 *  0.288885 *  0.001540 *   1.33043    1.000000    
    128 O2    c    0.697114 *  0.464885 *  0.343331 *   0.87073    1.000000    
    129 O3    c    0.544773 *  0.246813 *  0.671658 *   1.33043    1.000000    
    130 O2    c    0.229348 *  0.692785 *  0.508696 *   0.87073    1.000000    
    131 O2    c    0.300624 *  0.534562 *  0.839479 *   0.87073    1.000000    
    132 O2    c    0.467590 *  0.778614 *  0.175805 *   0.87073    1.000000    
    133 O2    c    0.303183 *  0.767572 *  0.321538 *   0.87073    1.000000    
    134 O2    c    0.463960 *  0.698147 *  0.985722 *   0.87073    1.000000    
    135 O2    c    0.236899 *  0.526269 *  0.653623 *   0.87073    1.000000    
    136 O2    c    0.692733 *  0.228745 *  0.818943 *   0.87073    1.000000    
    137 O2    c    0.532379 *  0.304066 *  0.488779 *   0.87073    1.000000    
    138 O2    c    0.762531 *  0.469380 *  0.151207 *   0.87073    1.000000    
    139 O3    c    0.774550 *  0.545801 *  0.021680 *   1.33043    1.000000    
    140 O2    c    0.465328 *  0.248255 *  0.360655 *   0.87073    1.000000    
    141 O2    c    0.745214 *  0.214675 *  0.693440 *   0.87073    1.000000    
    142 O2    c    0.214701 *  0.460760 *  0.525674 *   0.87073    1.000000    
    143 O2    c    0.532409 *  0.753162 *  0.858191 *   0.87073    1.000000    
    144 O2    c    0.246005 *  0.787441 *  0.194055 *   0.87073    1.000000    
    145 O2    c    0.535171 *  0.783892 *  0.303569 *   0.87073    1.000000    
    146 O2    c    0.245657 *  0.466574 *  0.968229 *   0.87073    1.000000    
    147 O2    c    0.223783 *  0.744760 *  0.637145 *   0.87073    1.000000    
    148 O2    c    0.463184 *  0.211777 *  0.801731 *   0.87073    1.000000    
    149 O2    c    0.749424 *  0.535607 *  0.471865 *   0.87073    1.000000    
    150 O3    c    0.774182 *  0.252366 *  0.137895 *   1.33043    1.000000    
    151 O2    c    0.225730 *  0.326438 *  0.894269 *   0.87073    1.000000    
    152 O2    c    0.678462 *  0.913657 *  0.230889 *   0.87073    1.000000    
    153 O2    c    0.100042 *  0.769989 *  0.563700 *   0.87073    1.000000    
    154 O2    c    0.768716 *  0.675169 *  0.396850 *   0.87073    1.000000    
    155 O3    c    0.302674 *  0.090125 *  0.731310 *   1.33043    1.000000    
    156 O3    c    0.897896 *  0.226528 *  0.057124 *   1.33043    1.000000    
    157 O2    c    0.322518 *  0.231625 *  0.433951 *   0.87073    1.000000    
    158 O2    c    0.901638 *  0.671095 *  0.097084 *   0.87073    1.000000    
    159 O2    c    0.762248 *  0.093912 *  0.766175 *   0.87073    1.000000    
    160 O2    c    0.674904 *  0.767867 *  0.932557 *   0.87073    1.000000    
    161 O2    c    0.092136 *  0.318597 *  0.600187 *   0.87073    1.000000    
    162 O2    c    0.231121 *  0.908589 *  0.269493 *   0.87073    1.000000    
    163 O2    c    0.583179 *  0.559609 *  0.988262 *   0.87073    1.000000    
    164 O2    c    0.442958 *  0.024590 *  0.325641 *   0.87073    1.000000    
    165 O2    c    0.978860 *  0.412715 *  0.656536 *   0.87073    1.000000    
    166 O2    c    0.411966 *  0.440868 *  0.488473 *   0.87073    1.000000    
    167 O2    c    0.553173 *  0.976371 *  0.817842 *   0.87073    1.000000    
    168 O2    c    0.017565 *  0.578209 *  0.150463 *   0.87073    1.000000    
    169 O2    c    0.558049 *  0.585097 *  0.340397 *   0.87073    1.000000    
    170 O2    c    0.016088 *  0.440291 *  0.006201 *   0.87073    1.000000    
    171 O3    c    0.408245 *  0.956150 *  0.668176 *   1.33043    1.000000    
    172 O2    c    0.436790 *  0.411410 *  0.840221 *   0.87073    1.000000    
    173 O2    c    0.970665 *  0.559422 *  0.509123 *   0.87073    1.000000    
    174 O2    c    0.588599 *  0.036602 *  0.176998 *   0.87073    1.000000    
    175 O2    c    0.582252 *  0.165521 *  0.252839 *   0.87073    1.000000    
    176 O2    c    0.838824 *  0.419097 *  0.583518 *   0.87073    1.000000    
    177 O2    c    0.581899 *  0.420903 *  0.914680 *   0.87073    1.000000    
    178 O2    c    0.413645 *  0.836318 *  0.745748 *   0.87073    1.000000    
    179 O2    c    0.155138 *  0.582073 *  0.078280 *   0.87073    1.000000    
    180 O2    c    0.415456 *  0.580285 *  0.413746 *   0.87073    1.000000    
    181 F     c    0.450103 *  0.904391 *  0.248949 *   0.56000    1.000000    
    182 F     c    0.098925 *  0.543485 *  0.581741 *   0.56000    1.000000    
    183 F     c    0.447872 *  0.552451 *  0.912438 *   0.56000    1.000000    
    184 F     c    0.516922 *  0.094549 *  0.736896 *   0.56000    1.000000    
    185 F     c    0.855683 *  0.427710 *  0.071737 *   0.56000    1.000000    
    186 F     c    0.547937 *  0.451852 *  0.414317 *   0.56000    1.000000    
    187 O2    s    0.923448 *  0.006385 *  0.999251 *  -2.87073    1.000000    
    188 O2    s    0.001564 *  0.921831 *  0.331464 *  -2.87073    1.000000    
    189 O2    s    0.072214 *  0.069586 *  0.664982 *  -2.87073    1.000000    
    190 O2    s    0.075677 *  0.998923 *  0.498630 *  -2.87073    1.000000    
    191 O2    s    0.993861 *  0.075576 *  0.830915 *  -2.87073    1.000000    
    192 O2    s    0.920371 *  0.920327 *  0.165129 *  -2.87073    1.000000    
    193 O2    s    0.351902 *  0.584026 *  0.330013 *  -2.87073    1.000000    
    194 O2    s    0.419398 *  0.756174 *  0.664054 *  -2.87073    1.000000    
    195 O2    s    0.228283 *  0.646993 *  0.995021 *  -2.87073    1.000000    
    196 O2    s    0.644366 *  0.413654 *  0.831358 *  -2.87073    1.000000    
    197 O2    s    0.581782 *  0.238215 *  0.170894 *  -2.87073    1.000000    
    198 O2    s    0.765220 *  0.353835 *  0.500489 *  -2.87073    1.000000    
    199 O3    s    0.572985 *  0.348535 *  0.997340 *  -3.33043    1.000000    
    200 O2    s    0.781131 *  0.425419 *  0.667317 *  -2.87073    1.000000    
    201 O2    s    0.649165 *  0.232105 *  0.335579 *  -2.87073    1.000000    
    202 O2    s    0.411673 *  0.644398 *  0.497072 *  -2.87073    1.000000    
    203 O2    s    0.237223 *  0.597222 *  0.162912 *  -2.87073    1.000000    
    204 O2    s    0.348496 *  0.765307 *  0.829492 *  -2.87073    1.000000    
    205 O2    s    0.121407 *  0.217391 *  0.966612 *  -2.87073    1.000000    
    206 O2    s    0.783766 *  0.902966 *  0.302664 *  -2.87073    1.000000    
    207 O2    s    0.108771 *  0.880084 *  0.636366 *  -2.87073    1.000000    
    208 O2    s    0.878008 *  0.783431 *  0.468738 *  -2.87073    1.000000    
    209 O2    s    0.212604 *  0.096655 *  0.805588 *  -2.87073    1.000000    
    210 O3    s    0.908387 *  0.118318 *  0.135537 *  -3.33043    1.000000    
    211 O2    s    0.216827 *  0.119572 *  0.362086 *  -2.87073    1.000000    
    212 O2    s    0.907429 *  0.792893 *  0.027526 *  -2.87073    1.000000    
    213 O2    s    0.877546 *  0.095341 *  0.694441 *  -2.87073    1.000000    
    214 O2    s    0.779898 *  0.876068 *  0.860308 *  -2.87073    1.000000    
    215 O2    s    0.092836 *  0.213733 *  0.528427 *  -2.87073    1.000000    
    216 O2    s    0.119717 *  0.907101 *  0.197142 *  -2.87073    1.000000    
    217 O2    s    0.924029 *  0.853014 *  0.248409 *  -2.87073    1.000000    
    218 O2    s    0.141257 *  0.068661 *  0.581898 *  -2.87073    1.000000    
    219 O2    s    0.928467 *  0.062868 *  0.914257 *  -2.87073    1.000000    
    220 O2    s    0.067238 *  0.134413 *  0.748264 *  -2.87073    1.000000    
    221 O2    s    0.853111 *  0.929798 *  0.081676 *  -2.87073    1.000000    
    222 O2    s    0.070080 *  0.928864 *  0.415502 *  -2.87073    1.000000    
    223 O2    s    0.909343 *  0.206658 *  0.974822 *  -2.87073    1.000000    
    224 O2    s    0.794682 *  0.701172 *  0.314646 *  -2.87073    1.000000    
    225 O3    s    0.297137 *  0.097619 *  0.647409 *  -3.33043    1.000000    
    226 O2    s    0.091052 *  0.794135 *  0.481243 *  -2.87073    1.000000    
    227 O2    s    0.199580 *  0.296778 *  0.812495 *  -2.87073    1.000000    
    228 O2    s    0.702837 *  0.917629 *  0.147902 *  -2.87073    1.000000    
    229 O2    s    0.206930 *  0.907224 *  0.351626 *  -2.87073    1.000000    
    230 O2    s    0.702091 *  0.797057 *  0.014736 *  -2.87073    1.000000    
    231 O2    s    0.094506 *  0.291001 *  0.682487 *  -2.87073    1.000000    
    232 O2    s    0.788951 *  0.087676 *  0.849719 *  -2.87073    1.000000    
    233 O2    s    0.295675 *  0.205483 *  0.516777 *  -2.87073    1.000000    
    234 O2    s    0.909209 *  0.703433 *  0.181387 *  -2.87073    1.000000    
    235 O2    s    0.328041 *  0.658776 *  0.247530 *  -2.87073    1.000000    
    236 O2    s    0.346761 *  0.665254 *  0.580698 *  -2.87073    1.000000    
    237 O2    s    0.323850 *  0.672301 *  0.912587 *  -2.87073    1.000000    
    238 O2    s    0.668954 *  0.343802 *  0.748359 *  -2.87073    1.000000    
    239 O3    s    0.628764 *  0.312573 *  0.086742 *  -3.33043    1.000000    
    240 O2    s    0.672564 *  0.329633 *  0.417194 *  -2.87073    1.000000    
    241 O2    s    0.373236 *  0.342691 *  0.964501 *  -2.87073    1.000000    
    242 O2    s    0.661358 *  0.035453 *  0.302900 *  -2.87073    1.000000    
    243 O2    s    0.974559 *  0.627251 *  0.634048 *  -2.87073    1.000000    
    244 O2    s    0.622289 *  0.659411 *  0.466222 *  -2.87073    1.000000    
    245 O2    s    0.333416 *  0.960229 *  0.797904 *  -2.87073    1.000000    
    246 O3    s    0.044912 *  0.387954 *  0.130641 *  -3.33043    1.000000    
    247 O2    s    0.339033 *  0.374372 *  0.362432 *  -2.87073    1.000000    
    248 O2    s    0.028099 *  0.656802 *  0.026491 *  -2.87073    1.000000    
    249 O2    s    0.623387 *  0.964262 *  0.696156 *  -2.87073    1.000000    
    250 O2    s    0.655816 *  0.622831 *  0.862024 *  -2.87073    1.000000    
    251 O2    s    0.962794 *  0.339410 *  0.530309 *  -2.87073    1.000000    
    252 O2    s    0.374835 *  0.039077 *  0.199867 *  -2.87073    1.000000    
    253 O3    s    0.767103 *  0.295513 *  0.004755 *  -3.33043    1.000000    
    254 O2    s    0.689504 *  0.464425 *  0.346490 *  -2.87073    1.000000    
    255 O3    s    0.549819 *  0.242719 *  0.675447 *  -3.33043    1.000000    
    256 O2    s    0.222529 *  0.685416 *  0.511862 *  -2.87073    1.000000    
    257 O2    s    0.308052 *  0.535048 *  0.842804 *  -2.87073    1.000000    
    258 O2    s    0.466916 *  0.785346 *  0.179047 *  -2.87073    1.000000    
    259 O2    s    0.310818 *  0.774826 *  0.318541 *  -2.87073    1.000000    
    260 O2    s    0.463040 *  0.690354 *  0.982629 *  -2.87073    1.000000    
    261 O2    s    0.229330 *  0.526925 *  0.650542 *  -2.87073    1.000000    
    262 O2    s    0.685493 *  0.221998 *  0.816202 *  -2.87073    1.000000    
    263 O2    s    0.532942 *  0.311637 *  0.485699 *  -2.87073    1.000000    
    264 O2    s    0.769303 *  0.468785 *  0.148701 *  -2.87073    1.000000    
    265 O3    s    0.783700 *  0.547350 *  0.024635 *  -3.33043    1.000000    
    266 O2    s    0.468064 *  0.256285 *  0.363281 *  -2.87073    1.000000    
    267 O2    s    0.739300 *  0.210137 *  0.695668 *  -2.87073    1.000000    
    268 O2    s    0.209695 *  0.463692 *  0.528293 *  -2.87073    1.000000    
    269 O2    s    0.529522 *  0.744636 *  0.860757 *  -2.87073    1.000000    
    270 O2    s    0.254596 *  0.792782 *  0.196671 *  -2.87073    1.000000    
    271 O2    s    0.532441 *  0.789156 *  0.301084 *  -2.87073    1.000000    
    272 O2    s    0.253655 *  0.469500 *  0.965636 *  -2.87073    1.000000    
    273 O2    s    0.218620 *  0.737524 *  0.634515 *  -2.87073    1.000000    
    274 O2    s    0.466134 *  0.208402 *  0.799541 *  -2.87073    1.000000    
    275 O2    s    0.741620 *  0.532896 *  0.469188 *  -2.87073    1.000000    
    276 O3    s    0.777145 *  0.258794 *  0.135499 *  -3.33043    1.000000    
    277 O2    s    0.235547 *  0.335741 *  0.895202 *  -2.87073    1.000000    
    278 O2    s    0.668685 *  0.913127 *  0.231753 *  -2.87073    1.000000    
    279 O2    s    0.099929 *  0.760562 *  0.564507 *  -2.87073    1.000000    
    280 O2    s    0.759154 *  0.665536 *  0.397699 *  -2.87073    1.000000    
    281 O3    s    0.312732 *  0.090220 *  0.733988 *  -3.33043    1.000000    
    282 O3    s    0.897764 *  0.235099 *  0.057600 *  -3.33043    1.000000    
    283 O2    s    0.332080 *  0.240824 *  0.433068 *  -2.87073    1.000000    
    284 O2    s    0.901102 *  0.662536 *  0.096701 *  -2.87073    1.000000    
    285 O2    s    0.753869 *  0.093901 *  0.765464 *  -2.87073    1.000000    
    286 O2    s    0.665082 *  0.758578 *  0.931597 *  -2.87073    1.000000    
    287 O2    s    0.092674 *  0.328452 *  0.599338 *  -2.87073    1.000000    
    288 O2    s    0.240515 *  0.908349 *  0.268525 *  -2.87073    1.000000    
    289 O2    s    0.579067 *  0.560414 *  0.984924 *  -2.87073    1.000000    
    290 O2    s    0.442630 *  0.020219 *  0.322227 *  -2.87073    1.000000    
    291 O2    s    0.983832 *  0.417389 *  0.653114 *  -2.87073    1.000000    
    292 O2    s    0.416424 *  0.440430 *  0.485190 *  -2.87073    1.000000    
    293 O2    s    0.553930 *  0.980195 *  0.815088 *  -2.87073    1.000000    
    294 O2    s    0.014719 *  0.576095 *  0.147672 *  -2.87073    1.000000    
    295 O2    s    0.558311 *  0.580356 *  0.343850 *  -2.87073    1.000000    
    296 O2    s    0.012913 *  0.440973 *  0.008836 *  -2.87073    1.000000    
    297 O3    s    0.414822 *  0.958800 *  0.672291 *  -3.33043    1.000000    
    298 O2    s    0.436775 *  0.416448 *  0.843496 *  -2.87073    1.000000    
    299 O2    s    0.976088 *  0.559676 *  0.512424 *  -2.87073    1.000000    
    300 O2    s    0.583818 *  0.031154 *  0.180316 *  -2.87073    1.000000    
    301 O2    s    0.576760 *  0.154554 *  0.252737 *  -2.87073    1.000000    
    302 O2    s    0.850248 *  0.424883 *  0.583405 *  -2.87073    1.000000    
    303 O2    s    0.576244 *  0.425876 *  0.914393 *  -2.87073    1.000000    
    304 O2    s    0.418573 *  0.845804 *  0.746066 *  -2.87073    1.000000    
    305 O2    s    0.146017 *  0.577322 *  0.078354 *  -2.87073    1.000000    
    306 O2    s    0.421066 *  0.574782 *  0.413770 *  -2.87073    1.000000    
    307 F     s    0.449678 *  0.903844 *  0.248796 *  -1.56000    1.000000    
    308 F     s    0.099187 *  0.543376 *  0.581733 *  -1.56000    1.000000    
    309 F     s    0.447499 *  0.553074 *  0.912301 *  -1.56000    1.000000    
    310 F     s    0.510131 *  0.094746 *  0.733882 *  -1.56000    1.000000    
    311 F     s    0.847367 *  0.423902 *  0.069994 *  -1.56000    1.000000    
    312 F     s    0.548195 *  0.451746 *  0.414176 *  -1.56000    1.000000    
--------------------------------------------------------------------------------



********************************************************************************
*  General input information                                                   *
********************************************************************************

  Species output for all configurations : 

--------------------------------------------------------------------------------
  Species    Type    Atomic    Atomic    Charge       Radii (Angs)     Library
                     Number     Mass       (e)     Cova   Ionic  VDW   Symbol
--------------------------------------------------------------------------------
    Si       Core       14      28.09   4.000000   1.200  0.000  2.100          
    O1       Core        8      16.00   1.733957   0.730  0.000  1.360          
    O1       Shell       8       0.00  -3.733957   0.730  0.000  1.360          
    O2       Core        8      16.00   0.870733   0.730  0.000  1.360          
    O2       Shell       8       0.00  -2.870733   0.730  0.000  1.360          
    O3       Core        8      16.00   1.330431   0.730  0.000  1.360          
    O3       Shell       8       0.00  -3.330431   0.730  0.000  1.360          
    F        Core        9      19.00   0.560000   0.710  0.000  1.300          
    F        Shell       9       0.00  -1.560000   0.710  0.000  1.300          
    Ge       Core       32      72.61   4.000000   1.170  0.000  1.750          
--------------------------------------------------------------------------------


  Lattice summation method               =    Ewald          (3-D)
                                         =    Parry          (2-D)
                                         =    Saunders et al (1-D)
  Accuracy factor for lattice sums       =   12.000


  Time limit = Infinity

  Maximum range for interatomic potentials =        16.000000 Angstroms

  Taper potentials to zero over   1.0000 Angstroms using polynomial

  General interatomic potentials :

--------------------------------------------------------------------------------
Atom  Types   Potential         A         B         C         D     Cutoffs(Ang)
  1     2                                                            Min    Max 
--------------------------------------------------------------------------------
Si   c O1   s Buckingham    0.132E+04 0.318      10.1      0.00     0.000 16.000
Si   c O2   s Buckingham    0.132E+04 0.318      10.1      0.00     0.000 16.000
Si   c O3   s Buckingham    0.132E+04 0.318      10.1      0.00     0.000 16.000
Ge   c O1   s Buckingham    0.150E+04 0.326      16.8      0.00     0.000 16.000
Ge   c O2   s Buckingham    0.150E+04 0.326      16.8      0.00     0.000 16.000
Ge   c O3   s Buckingham    0.150E+04 0.326      16.8      0.00     0.000 16.000
O1   s O1   s Buckingham    0.228E+05 0.149      10.9      0.00     0.000 16.000
O1   s O2   s Buckingham    0.228E+05 0.149      10.9      0.00     0.000 16.000
O1   s O3   s Buckingham    0.228E+05 0.149      10.9      0.00     0.000 16.000
O2   s O2   s Buckingham    0.228E+05 0.149      10.9      0.00     0.000 16.000
O2   s O3   s Buckingham    0.228E+05 0.149      10.9      0.00     0.000 16.000
O3   s O3   s Buckingham    0.228E+05 0.149      10.9      0.00     0.000 16.000
Si   c F    s Buckingham     977.     0.282      0.00      0.00     0.000 16.000
Ge   c F    s Buckingham     681.     0.320      0.00      0.00     0.000 16.000
F    s F    s Buckingham     540.     0.262      0.00      0.00     0.000 16.000
O1   s F    s Buckingham    0.168E+04 0.268      0.00      0.00     0.000 16.000
O2   s F    s Buckingham    0.168E+04 0.268      0.00      0.00     0.000 16.000
O3   s F    s Buckingham    0.168E+04 0.268      0.00      0.00     0.000 16.000
O2   c O2   s Spring (c-s)   76.0      0.00      0.00      0.00     0.000  0.800
O3   c O3   s Spring (c-s)   128.      0.00      0.00      0.00     0.000  0.800
O1   c O1   s Spring (c-s)   180.      0.00      0.00      0.00     0.000  0.800
F    c F    s Spring (c-s)   33.5      0.00      0.00      0.00     0.000  0.800
--------------------------------------------------------------------------------

  General Three-body potentials :

  Harmonic form:

--------------------------------------------------------------------------------
Atom    Atom    Atom           Force Constants            Theta     Cutoffs  
  1       2       3     (eVrad**-2/eVrad**-3/eVrad**-4)   (deg)  1-2  1-3  2-3
--------------------------------------------------------------------------------
Si    c O1    s O1    s  1.261        0.0000    0.0000   109.470 0.00 0.00 0.00
                                                                 1.90 1.90 3.50
Si    c O1    s O2    s  1.261        0.0000    0.0000   109.470 0.00 0.00 0.00
                                                                 1.90 1.90 3.50
Si    c O2    s O2    s  1.261        0.0000    0.0000   109.470 0.00 0.00 0.00
                                                                 1.90 1.90 3.50
--------------------------------------------------------------------------------

********************************************************************************
*  Output for configuration   1                                                *
********************************************************************************


  Components of energy : 

--------------------------------------------------------------------------------
  Interatomic potentials     =        2063.68024622 eV
  Three-body potentials      =           0.46612859 eV
  Monopole - monopole (real) =       -6611.45212689 eV
  Monopole - monopole (recip)=       -3172.87517039 eV
  Monopole - monopole (total)=       -9784.32729729 eV
  Neutralising energy        =          -6.46315237 eV
--------------------------------------------------------------------------------
  Total lattice energy       =       -7726.64407486 eV
--------------------------------------------------------------------------------
  Total lattice energy       =         -745503.0407 kJ/(mole unit cells)
--------------------------------------------------------------------------------


  Number of variables =      939

  Maximum number of calculations  =          5000
  Maximum Hessian update interval =            10
  Maximum step size               =   0.100000000
  Maximum parameter tolerance     =   0.000010000
  Maximum function  tolerance     =   0.000010000
  Maximum gradient  tolerance     =   0.001000000
  Maximum gradient  component     =   0.010000000

  Symmetry not applied to optimisation

  Cell parameters to be optimised using strains

  Newton-Raphson optimiser to be used

  BFGS hessian update to be used

  Dumpfile to be written after every cycle

  Start of bulk optimisation :

  Cycle:      0 Energy:     -7726.644075  Gnorm:      0.010748  CPU:    2.031
  ** Hessian calculated **
  Cycle:      1 Energy:     -7726.644302  Gnorm:      0.003233  CPU:    5.238
  Cycle:      2 Energy:     -7726.644364  Gnorm:      0.002039  CPU:    8.064
  Cycle:      3 Energy:     -7726.644421  Gnorm:      0.001587  CPU:   10.892
  Cycle:      4 Energy:     -7726.644654  Gnorm:      0.002405  CPU:   16.434
  Cycle:      5 Energy:     -7726.644940  Gnorm:      0.004193  CPU:   20.619
  Cycle:      6 Energy:     -7726.645401  Gnorm:      0.006804  CPU:   25.483
  Cycle:      7 Energy:     -7726.645965  Gnorm:      0.009424  CPU:   29.668
  Cycle:      8 Energy:     -7726.646864  Gnorm:      0.013067  CPU:   34.529
  Cycle:      9 Energy:     -7726.647931  Gnorm:      0.016587  CPU:   38.716
  Cycle:     10 Energy:     -7726.649273  Gnorm:      0.020366  CPU:   42.902
  ** Hessian calculated **
  Cycle:     11 Energy:     -7726.650194  Gnorm:      0.005255  CPU:   48.108
  Cycle:     12 Energy:     -7726.650410  Gnorm:      0.003120  CPU:   51.615
  Cycle:     13 Energy:     -7726.650651  Gnorm:      0.003383  CPU:   55.800
  Cycle:     14 Energy:     -7726.650954  Gnorm:      0.004339  CPU:   59.986
  Cycle:     15 Energy:     -7726.651279  Gnorm:      0.004650  CPU:   64.168
  Cycle:     16 Energy:     -7726.651523  Gnorm:      0.004085  CPU:   67.676
  Cycle:     17 Energy:     -7726.651803  Gnorm:      0.003282  CPU:   71.861
  Cycle:     18 Energy:     -7726.652126  Gnorm:      0.002999  CPU:   76.047
  Cycle:     19 Energy:     -7726.652575  Gnorm:      0.004016  CPU:   80.233
  Cycle:     20 Energy:     -7726.653249  Gnorm:      0.005754  CPU:   84.415
  ** Hessian calculated **
  Cycle:     21 Energy:     -7726.654114  Gnorm:      0.005732  CPU:   90.297
  Cycle:     22 Energy:     -7726.655575  Gnorm:      0.005694  CPU:   95.158
  Cycle:     23 Energy:     -7726.657831  Gnorm:      0.005635  CPU:  100.018
  Cycle:     24 Energy:     -7726.661209  Gnorm:      0.005545  CPU:  104.878
  Cycle:     25 Energy:     -7726.665362  Gnorm:      0.005431  CPU:  109.060
  Cycle:     26 Energy:     -7726.672216  Gnorm:      0.005236  CPU:  113.919
  Cycle:     27 Energy:     -7726.682359  Gnorm:      0.004929  CPU:  118.780
  Cycle:     28 Energy:     -7726.694217  Gnorm:      0.004535  CPU:  122.962
  Cycle:     29 Energy:     -7726.712002  Gnorm:      0.003854  CPU:  127.822
  Cycle:     30 Energy:     -7726.730377  Gnorm:      0.002976  CPU:  132.006
  ** Hessian calculated **
  Cycle:     31 Energy:     -7726.748397  Gnorm:      0.001628  CPU:  137.884
  Cycle:     32 Energy:     -7726.752682  Gnorm:      0.000986  CPU:  142.067
  Cycle:     33 Energy:     -7726.753705  Gnorm:      0.000535  CPU:  146.251
  Cycle:     34 Energy:     -7726.753957  Gnorm:      0.000280  CPU:  150.435
  Cycle:     35 Energy:     -7726.754020  Gnorm:      0.000143  CPU:  154.623
  Cycle:     36 Energy:     -7726.754030  Gnorm:      0.000100  CPU:  157.455
  Cycle:     37 Energy:     -7726.754036  Gnorm:      0.000070  CPU:  160.286
  Cycle:     38 Energy:     -7726.754038  Gnorm:      0.000049  CPU:  163.118
  Cycle:     39 Energy:     -7726.754039  Gnorm:      0.000035  CPU:  165.946


  **** Optimisation achieved ****


  Final energy =   -7726.75404009 eV
  Final Gnorm  =       0.00002421

  Components of energy : 

--------------------------------------------------------------------------------
  Interatomic potentials     =        2064.20145274 eV
  Three-body potentials      =           0.48362781 eV
  Monopole - monopole (real) =       -6612.01221511 eV
  Monopole - monopole (recip)=       -3172.96356867 eV
  Monopole - monopole (total)=       -9784.97578378 eV
  Neutralising energy        =          -6.46333686 eV
--------------------------------------------------------------------------------
  Total lattice energy       =       -7726.75404009 eV
--------------------------------------------------------------------------------
  Total lattice energy       =         -745513.6506 kJ/(mole unit cells)
--------------------------------------------------------------------------------

  Final fractional coordinates of atoms :

--------------------------------------------------------------------------------
   No.  Atomic        x           y          z          Radius
        Label       (Frac)      (Frac)     (Frac)       (Angs) 
--------------------------------------------------------------------------------
     1  Ge    c     0.699600    0.375700    0.033890    0.000000
     2  Si    c     0.604550    0.305156    0.365695    0.000000
     3  Si    c     0.669302    0.297184    0.695042    0.000000
     4  Si    c     0.280315    0.600400    0.527768    0.000000
     5  Si    c     0.359842    0.660326    0.859803    0.000000
     6  Si    c     0.307678    0.696239    0.195843    0.000000
     7  Si    c     0.359638    0.682818    0.296464    0.000000
     8  Si    c     0.305244    0.608952    0.960304    0.000000
     9  Si    c     0.291667    0.655817    0.628486    0.000000
    10  Si    c     0.602663    0.284894    0.797206    0.000000
    11  Si    c     0.658563    0.363887    0.466416    0.000000
    12  Si    c     0.670410    0.307606    0.132803    0.000000
    13  Si    c     0.517446    0.406637    0.965896    0.000000
    14  Si    c     0.566127    0.093295    0.302590    0.000000
    15  Si    c     0.887678    0.464727    0.633205    0.000000
    16  Si    c     0.449661    0.563026    0.462182    0.000000
    17  Si    c     0.395141    0.868561    0.793552    0.000000
    18  Si    c     0.100334    0.521983    0.128141    0.000000
    19  Si    c     0.397625    0.507107    0.360303    0.000000
    20  Si    c     0.093599    0.573269    0.024343    0.000000
    21  Si    c     0.456015    0.869517    0.690611    0.000000
    22  Si    c     0.564669    0.455252    0.862891    0.000000
    23  Si    c     0.872694    0.404729    0.531803    0.000000
    24  Si    c     0.512287    0.101993    0.200828    0.000000
    25  Si    c     0.282929    0.383791    0.846634    0.000000
    26  Si    c     0.586006    0.897251    0.183124    0.000000
    27  Si    c     0.081650    0.683134    0.515825    0.000000
    28  Si    c     0.679324    0.579734    0.348256    0.000000
    29  Ge    c     0.399302    0.085639    0.685933    0.000000
    30  Si    c     0.879520    0.285545    0.007948    0.000000
    31  Si    c     0.377819    0.283777    0.478758    0.000000
    32  Si    c     0.882439    0.589463    0.143030    0.000000
    33  Si    c     0.680700    0.081161    0.810943    0.000000
    34  Si    c     0.584587    0.687304    0.976810    0.000000
    35  Si    c     0.090087    0.382042    0.645274    0.000000
    36  Si    c     0.284221    0.883136    0.314431    0.000000
    37  Si    c     0.236555    0.330109    0.947607    0.000000
    38  Si    c     0.642160    0.893010    0.284158    0.000000
    39  Si    c     0.089532    0.741210    0.616883    0.000000
    40  Si    c     0.730264    0.642856    0.449032    0.000000
    41  Si    c     0.314638    0.071726    0.781501    0.000000
    42  Ge    c     0.889916    0.239134    0.112811    0.000000
    43  Si    c     0.321798    0.230862    0.377397    0.000000
    44  Si    c     0.893935    0.658333    0.040541    0.000000
    45  Si    c     0.737060    0.079221    0.709166    0.000000
    46  Si    c     0.640889    0.732829    0.875893    0.000000
    47  Si    c     0.071801    0.321989    0.544285    0.000000
    48  Si    c     0.233189    0.899671    0.213652    0.000000
    49  Si    c     0.958550    0.111621    0.961724    0.000000
    50  Si    c     0.858276    0.826571    0.297978    0.000000
    51  Si    c     0.147338    0.020275    0.631993    0.000000
    52  Si    c     0.010359    0.861703    0.464664    0.000000
    53  Si    c     0.102376    0.134198    0.797604    0.000000
    54  Si    c     0.831515    0.959880    0.131289    0.000000
    55  Si    c     0.104549    0.950732    0.363599    0.000000
    56  Si    c     0.832707    0.874355    0.028950    0.000000
    57  Si    c     0.016796    0.133255    0.695035    0.000000
    58  Si    c     0.859418    0.009884    0.862035    0.000000
    59  Si    c     0.131403    0.103619    0.530234    0.000000
    60  Si    c     0.951645    0.833473    0.196654    0.000000
    61  O2    c     0.912521    0.999267    0.998500    0.000000
    62  O2    c     0.983375    0.906528    0.329620    0.000000
    63  O2    c     0.053649    0.050510    0.662750    0.000000
    64  O2    c     0.051481    0.983011    0.496890    0.000000
    65  O2    c     0.978555    0.055625    0.828829    0.000000
    66  O2    c     0.906840    0.909305    0.163115    0.000000
    67  O2    c     0.320973    0.556209    0.326947    0.000000
    68  O2    c     0.417869    0.741109    0.660930    0.000000
    69  O2    c     0.218639    0.646848    0.992256    0.000000
    70  O2    c     0.640442    0.404282    0.831126    0.000000
    71  O2    c     0.560795    0.231005    0.170887    0.000000
    72  O2    c     0.743057    0.327463    0.500539    0.000000
    73  O3    c     0.562204    0.332718    0.998543    0.000000
    74  O2    c     0.768785    0.424791    0.667657    0.000000
    75  O2    c     0.643626    0.217092    0.335420    0.000000
    76  O2    c     0.399809    0.639146    0.493603    0.000000
    77  O2    c     0.226957    0.578303    0.160603    0.000000
    78  O2    c     0.321403    0.743870    0.825876    0.000000
    79  O2    c     0.112840    0.201804    0.967714    0.000000
    80  O2    c     0.767682    0.889791    0.304378    0.000000
    81  O2    c     0.093597    0.866554    0.637866    0.000000
    82  O2    c     0.855589    0.770488    0.469024    0.000000
    83  O2    c     0.194704    0.073454    0.806767    0.000000
    84  O3    c     0.900101    0.111263    0.136559    0.000000
    85  O2    c     0.195934    0.103771    0.357052    0.000000
    86  O2    c     0.906885    0.793576    0.024505    0.000000
    87  O2    c     0.862616    0.079302    0.689476    0.000000
    88  O2    c     0.768344    0.857037    0.855716    0.000000
    89  O2    c     0.067369    0.194244    0.524285    0.000000
    90  O2    c     0.106946    0.902174    0.193548    0.000000
    91  O2    c     0.905413    0.839625    0.246647    0.000000
    92  O2    c     0.120697    0.050126    0.580444    0.000000
    93  O2    c     0.916326    0.046276    0.912627    0.000000
    94  O2    c     0.050162    0.116035    0.746478    0.000000
    95  O2    c     0.836687    0.919736    0.080065    0.000000
    96  O2    c     0.050436    0.914312    0.413944    0.000000
    97  O2    c     0.892364    0.198313    0.968804    0.000000
    98  O2    c     0.777573    0.675593    0.309807    0.000000
    99  O3    c     0.294464    0.096424    0.643714    0.000000
   100  O2    c     0.079893    0.779746    0.477202    0.000000
   101  O2    c     0.183005    0.286087    0.808461    0.000000
   102  O2    c     0.680417    0.898639    0.143868    0.000000
   103  O2    c     0.186949    0.880465    0.353054    0.000000
   104  O2    c     0.682161    0.788192    0.014897    0.000000
   105  O2    c     0.091860    0.284920    0.683561    0.000000
   106  O2    c     0.774300    0.078010    0.850736    0.000000
   107  O2    c     0.282605    0.187299    0.517205    0.000000
   108  O2    c     0.888520    0.684329    0.182884    0.000000
   109  O2    c     0.304276    0.631504    0.245112    0.000000
   110  O2    c     0.344954    0.656660    0.577676    0.000000
   111  O2    c     0.301085    0.663007    0.909489    0.000000
   112  O2    c     0.659636    0.340527    0.747218    0.000000
   113  O3    c     0.606646    0.299042    0.084188    0.000000
   114  O2    c     0.661748    0.307073    0.416485    0.000000
   115  O2    c     0.359489    0.322026    0.966204    0.000000
   116  O2    c     0.653103    0.023585    0.304066    0.000000
   117  O2    c     0.957270    0.619554    0.635194    0.000000
   118  O2    c     0.606169    0.651915    0.465552    0.000000
   119  O2    c     0.309126    0.938269    0.796842    0.000000
   120  O3    c     0.035672    0.370040    0.129744    0.000000
   121  O2    c     0.310616    0.351364    0.357336    0.000000
   122  O2    c     0.023904    0.659588    0.023183    0.000000
   123  O2    c     0.613982    0.947311    0.691548    0.000000
   124  O2    c     0.650199    0.610590    0.857993    0.000000
   125  O2    c     0.938772    0.315348    0.527090    0.000000
   126  O2    c     0.355451    0.032315    0.196260    0.000000
   127  O3    c     0.747122    0.282504    0.000071    0.000000
   128  O2    c     0.679594    0.445949    0.341678    0.000000
   129  O3    c     0.532890    0.237018    0.670045    0.000000
   130  O2    c     0.211742    0.676977    0.506271    0.000000
   131  O2    c     0.285125    0.517927    0.837084    0.000000
   132  O2    c     0.450614    0.766050    0.173746    0.000000
   133  O2    c     0.283914    0.748722    0.319615    0.000000
   134  O2    c     0.449328    0.687267    0.983078    0.000000
   135  O2    c     0.226764    0.513996    0.651399    0.000000
   136  O2    c     0.676383    0.211958    0.817419    0.000000
   137  O2    c     0.514081    0.287526    0.487251    0.000000
   138  O2    c     0.747649    0.457807    0.149864    0.000000
   139  O3    c     0.767033    0.542905    0.019913    0.000000
   140  O2    c     0.447951    0.229283    0.359104    0.000000
   141  O2    c     0.732850    0.204073    0.691926    0.000000
   142  O2    c     0.197371    0.444913    0.523398    0.000000
   143  O2    c     0.516757    0.737431    0.855412    0.000000
   144  O2    c     0.228694    0.773916    0.192124    0.000000
   145  O2    c     0.515956    0.765691    0.301976    0.000000
   146  O2    c     0.232011    0.453973    0.966628    0.000000
   147  O2    c     0.213037    0.732418    0.635040    0.000000
   148  O2    c     0.447502    0.195865    0.799901    0.000000
   149  O2    c     0.730958    0.519228    0.470201    0.000000
   150  O3    c     0.761159    0.242267    0.136118    0.000000
   151  O2    c     0.212556    0.312223    0.893209    0.000000
   152  O2    c     0.660413    0.896976    0.229636    0.000000
   153  O2    c     0.086593    0.756983    0.562185    0.000000
   154  O2    c     0.749971    0.656758    0.394534    0.000000
   155  O3    c     0.289096    0.076908    0.728818    0.000000
   156  O3    c     0.883984    0.216237    0.055068    0.000000
   157  O2    c     0.304233    0.213610    0.431791    0.000000
   158  O2    c     0.888863    0.661441    0.095959    0.000000
   159  O2    c     0.748341    0.080263    0.764083    0.000000
   160  O2    c     0.659559    0.754611    0.930288    0.000000
   161  O2    c     0.078311    0.305564    0.598713    0.000000
   162  O2    c     0.214188    0.893035    0.268071    0.000000
   163  O2    c     0.568872    0.549359    0.987166    0.000000
   164  O2    c     0.424948    0.005336    0.324736    0.000000
   165  O2    c     0.969149    0.402571    0.655638    0.000000
   166  O2    c     0.392974    0.423386    0.485885    0.000000
   167  O2    c     0.538091    0.959751    0.815034    0.000000
   168  O2    c     0.001796    0.563770    0.148553    0.000000
   169  O2    c     0.539262    0.564915    0.337645    0.000000
   170  O2    c     0.001896    0.431295    0.004153    0.000000
   171  O3    c     0.397117    0.946334    0.665061    0.000000
   172  O2    c     0.422192    0.395282    0.839275    0.000000
   173  O2    c     0.953209    0.545175    0.508325    0.000000
   174  O2    c     0.573321    0.023949    0.176103    0.000000
   175  O2    c     0.564339    0.149333    0.252278    0.000000
   176  O2    c     0.825567    0.406803    0.583237    0.000000
   177  O2    c     0.568880    0.409168    0.914296    0.000000
   178  O2    c     0.400034    0.823200    0.742234    0.000000
   179  O2    c     0.141123    0.570634    0.076228    0.000000
   180  O2    c     0.396150    0.560836    0.410724    0.000000
   181  F     c     0.432425    0.888497    0.247225    0.000000
   182  F     c     0.086855    0.531210    0.580013    0.000000
   183  F     c     0.431774    0.539439    0.910460    0.000000
   184  F     c     0.503668    0.081989    0.734534    0.000000
   185  F     c     0.847020    0.423233    0.070435    0.000000
   186  F     c     0.529667    0.433048    0.411977    0.000000
   187  O2    s     0.908612    0.997727    0.997808    0.000000
   188  O2    s     0.982780    0.902424    0.329841    0.000000
   189  O2    s     0.059109    0.056739    0.663233    0.000000
   190  O2    s     0.055616    0.982581    0.496913    0.000000
   191  O2    s     0.978755    0.059228    0.829145    0.000000
   192  O2    s     0.903505    0.906324    0.163375    0.000000
   193  O2    s     0.332742    0.564339    0.327158    0.000000
   194  O2    s     0.409070    0.745408    0.660650    0.000000
   195  O2    s     0.214136    0.635321    0.992430    0.000000
   196  O2    s     0.628833    0.396940    0.830782    0.000000
   197  O2    s     0.566881    0.225383    0.170115    0.000000
   198  O2    s     0.747567    0.339255    0.500179    0.000000
   199  O3    s     0.566919    0.343922    0.997436    0.000000
   200  O2    s     0.770558    0.415411    0.667009    0.000000
   201  O2    s     0.631601    0.213098    0.335066    0.000000
   202  O2    s     0.392730    0.627183    0.493837    0.000000
   203  O2    s     0.221636    0.584340    0.160745    0.000000
   204  O2    s     0.333056    0.748448    0.825944    0.000000
   205  O2    s     0.108822    0.205156    0.965051    0.000000
   206  O2    s     0.764186    0.883423    0.301612    0.000000
   207  O2    s     0.098470    0.868342    0.635057    0.000000
   208  O2    s     0.858928    0.766870    0.466506    0.000000
   209  O2    s     0.197027    0.079679    0.803324    0.000000
   210  O3    s     0.892273    0.105557    0.134211    0.000000
   211  O2    s     0.199197    0.100636    0.359806    0.000000
   212  O2    s     0.897724    0.788140    0.026619    0.000000
   213  O2    s     0.865247    0.084927    0.692133    0.000000
   214  O2    s     0.765039    0.860697    0.858435    0.000000
   215  O2    s     0.074490    0.197945    0.526933    0.000000
   216  O2    s     0.103379    0.894574    0.195937    0.000000
   217  O2    s     0.905411    0.837465    0.246709    0.000000
   218  O2    s     0.124721    0.053178    0.580039    0.000000
   219  O2    s     0.914633    0.049506    0.912419    0.000000
   220  O2    s     0.052351    0.120069    0.746524    0.000000
   221  O2    s     0.835660    0.919122    0.080043    0.000000
   222  O2    s     0.052129    0.912587    0.413860    0.000000
   223  O2    s     0.898222    0.197981    0.972052    0.000000
   224  O2    s     0.776256    0.681984    0.312425    0.000000
   225  O3    s     0.284720    0.087116    0.645143    0.000000
   226  O2    s     0.072630    0.778653    0.479799    0.000000
   227  O2    s     0.184726    0.280051    0.811229    0.000000
   228  O2    s     0.686357    0.904885    0.146637    0.000000
   229  O2    s     0.188288    0.888075    0.350202    0.000000
   230  O2    s     0.688372    0.787171    0.012527    0.000000
   231  O2    s     0.083798    0.278956    0.680834    0.000000
   232  O2    s     0.773291    0.071275    0.847737    0.000000
   233  O2    s     0.276708    0.188619    0.514543    0.000000
   234  O2    s     0.894645    0.690260    0.180148    0.000000
   235  O2    s     0.310214    0.643323    0.245268    0.000000
   236  O2    s     0.332886    0.650811    0.577788    0.000000
   237  O2    s     0.307399    0.657256    0.909646    0.000000
   238  O2    s     0.654601    0.330514    0.747390    0.000000
   239  O3    s     0.619311    0.304872    0.085953    0.000000
   240  O2    s     0.655508    0.312691    0.416310    0.000000
   241  O2    s     0.361674    0.331386    0.964102    0.000000
   242  O2    s     0.643040    0.017100    0.301825    0.000000
   243  O2    s     0.963736    0.615879    0.633051    0.000000
   244  O2    s     0.603094    0.641790    0.463448    0.000000
   245  O2    s     0.318653    0.944419    0.794941    0.000000
   246  O3    s     0.030722    0.375154    0.128238    0.000000
   247  O2    s     0.320668    0.354848    0.359715    0.000000
   248  O2    s     0.018094    0.650516    0.025054    0.000000
   249  O2    s     0.611261    0.953618    0.693356    0.000000
   250  O2    s     0.640454    0.607526    0.860378    0.000000
   251  O2    s     0.945954    0.325238    0.529387    0.000000
   252  O2    s     0.358627    0.025439    0.198572    0.000000
   253  O3    s     0.758205    0.289003    0.003227    0.000000
   254  O2    s     0.671930    0.445567    0.344834    0.000000
   255  O3    s     0.537899    0.232811    0.673799    0.000000
   256  O2    s     0.205056    0.669727    0.509524    0.000000
   257  O2    s     0.292603    0.518566    0.840458    0.000000
   258  O2    s     0.450014    0.772645    0.177079    0.000000
   259  O2    s     0.291691    0.756085    0.316664    0.000000
   260  O2    s     0.448453    0.679254    0.980067    0.000000
   261  O2    s     0.219013    0.514643    0.648358    0.000000
   262  O2    s     0.669307    0.205421    0.814643    0.000000
   263  O2    s     0.514694    0.295055    0.484153    0.000000
   264  O2    s     0.754590    0.457355    0.147432    0.000000
   265  O3    s     0.776445    0.544264    0.023054    0.000000
   266  O2    s     0.450560    0.237370    0.361709    0.000000
   267  O2    s     0.726887    0.199424    0.694116    0.000000
   268  O2    s     0.192421    0.447886    0.526066    0.000000
   269  O2    s     0.513944    0.728954    0.858039    0.000000
   270  O2    s     0.237378    0.779261    0.194768    0.000000
   271  O2    s     0.513275    0.770939    0.299484    0.000000
   272  O2    s     0.240093    0.456931    0.964006    0.000000
   273  O2    s     0.207733    0.725227    0.632429    0.000000
   274  O2    s     0.450589    0.192616    0.797722    0.000000
   275  O2    s     0.723206    0.516452    0.467518    0.000000
   276  O3    s     0.763871    0.248189    0.133791    0.000000
   277  O2    s     0.222446    0.321639    0.894063    0.000000
   278  O2    s     0.650680    0.896600    0.230498    0.000000
   279  O2    s     0.086379    0.747501    0.563005    0.000000
   280  O2    s     0.740480    0.647208    0.395412    0.000000
   281  O3    s     0.299053    0.076902    0.731545    0.000000
   282  O3    s     0.884010    0.224517    0.055542    0.000000
   283  O2    s     0.313798    0.222786    0.430887    0.000000
   284  O2    s     0.888667    0.653335    0.095483    0.000000
   285  O2    s     0.739940    0.080249    0.763354    0.000000
   286  O2    s     0.649750    0.745286    0.929375    0.000000
   287  O2    s     0.078849    0.315336    0.597829    0.000000
   288  O2    s     0.223501    0.892715    0.267101    0.000000
   289  O2    s     0.565197    0.550354    0.983854    0.000000
   290  O2    s     0.424591    0.001199    0.321288    0.000000
   291  O2    s     0.973782    0.406969    0.652183    0.000000
   292  O2    s     0.397458    0.422930    0.482617    0.000000
   293  O2    s     0.538863    0.963739    0.812313    0.000000
   294  O2    s     0.999110    0.562052    0.145780    0.000000
   295  O2    s     0.539531    0.560317    0.341137    0.000000
   296  O2    s     0.999268    0.431939    0.006742    0.000000
   297  O3    s     0.403525    0.948670    0.669176    0.000000
   298  O2    s     0.422115    0.400432    0.842511    0.000000
   299  O2    s     0.958757    0.545344    0.511576    0.000000
   300  O2    s     0.568257    0.018347    0.179386    0.000000
   301  O2    s     0.558998    0.138454    0.252079    0.000000
   302  O2    s     0.836829    0.412502    0.583026    0.000000
   303  O2    s     0.563359    0.413904    0.913883    0.000000
   304  O2    s     0.404954    0.832548    0.742624    0.000000
   305  O2    s     0.132004    0.565897    0.076257    0.000000
   306  O2    s     0.401843    0.555451    0.410783    0.000000
   307  F     s     0.431981    0.887925    0.247035    0.000000
   308  F     s     0.087323    0.531223    0.579985    0.000000
   309  F     s     0.431227    0.540153    0.910287    0.000000
   310  F     s     0.496821    0.082328    0.731443    0.000000
   311  F     s     0.836720    0.419198    0.068086    0.000000
   312  F     s     0.529944    0.432871    0.411807    0.000000
--------------------------------------------------------------------------------

  Final Cartesian lattice vectors (Angstroms) :

       11.928021    0.001187   -0.013012
       -6.001105   10.418313    0.014959
       -0.434379   -0.054355   29.379955


  Final cell parameters and derivatives :

--------------------------------------------------------------------------------
       a           11.928028 Angstrom     dE/de1(xx)     0.001975 eV/strain
       b           12.023091 Angstrom     dE/de2(yy)     0.001779 eV/strain
       c           29.383216 Angstrom     dE/de3(zz)     0.002741 eV/strain
       alpha       89.597788 Degrees      dE/de4(yz)     0.000001 eV/strain
       beta        90.909558 Degrees      dE/de5(xz)    -0.000130 eV/strain
       gamma      119.936933 Degrees      dE/de6(xy)    -0.000184 eV/strain
--------------------------------------------------------------------------------

  Primitive cell volume =          3651.198642 Angs**3

  Density of cell =      1.752327 g/cm**3

  Non-primitive cell volume =          3651.198642 Angs**3


  Final internal derivatives :

--------------------------------------------------------------------------------
   No.  Atomic          a             b             c           Radius
        Label          (eV)          (eV)          (eV)        (eV/Angs)
--------------------------------------------------------------------------------
      1 Ge    c       0.000000      0.000000      0.000000      0.000000
      2 Si    c       0.000055     -0.000014      0.000229      0.000000
      3 Si    c      -0.000338     -0.000759     -0.000222      0.000000
      4 Si    c      -0.000435      0.000054      0.000001      0.000000
      5 Si    c       0.000209      0.000105     -0.000368      0.000000
      6 Si    c       0.000146      0.000139     -0.000253      0.000000
      7 Si    c       0.000155      0.000284     -0.000125      0.000000
      8 Si    c       0.000330      0.000353      0.000171      0.000000
      9 Si    c       0.000018      0.000231      0.000286      0.000000
     10 Si    c      -0.000078     -0.000010      0.000511      0.000000
     11 Si    c      -0.000171     -0.000007     -0.000543      0.000000
     12 Si    c       0.000950      0.000209      0.008273      0.000000
     13 Si    c      -0.002334     -0.000056     -0.003159      0.000000
     14 Si    c      -0.000000      0.000280      0.000428      0.000000
     15 Si    c      -0.000132     -0.000312     -0.000052      0.000000
     16 Si    c       0.000017      0.000102      0.000042      0.000000
     17 Si    c       0.000409      0.000021      0.000495      0.000000
     18 Si    c       0.000182      0.000387      0.000020      0.000000
     19 Si    c       0.000105      0.000182      0.000028      0.000000
     20 Si    c       0.000488     -0.000083      0.001680      0.000000
     21 Si    c       0.000361     -0.000258     -0.000848      0.000000
     22 Si    c      -0.000286      0.000009     -0.000305      0.000000
     23 Si    c       0.000098     -0.000367     -0.000512      0.000000
     24 Si    c       0.000050      0.000276     -0.000207      0.000000
     25 Si    c       0.000185     -0.000026     -0.000210      0.000000
     26 Si    c       0.000044      0.000084      0.000242      0.000000
     27 Si    c       0.000110     -0.000171     -0.000143      0.000000
     28 Si    c       0.000107     -0.000004      0.000218      0.000000
     29 Ge    c      -0.000319     -0.000286     -0.000895      0.000000
     30 Si    c       0.003789     -0.000963     -0.000115      0.000000
     31 Si    c      -0.000002     -0.000132     -0.000365      0.000000
     32 Si    c       0.000434      0.000079     -0.000059      0.000000
     33 Si    c       0.000264     -0.000227      0.000369      0.000000
     34 Si    c      -0.000106      0.000645      0.000299      0.000000
     35 Si    c      -0.000198     -0.000168     -0.000346      0.000000
     36 Si    c      -0.000012      0.000433      0.000269      0.000000
     37 Si    c       0.000352     -0.000187     -0.000068      0.000000
     38 Si    c       0.000196      0.000075      0.000254      0.000000
     39 Si    c      -0.000028     -0.000288     -0.000642      0.000000
     40 Si    c       0.000379      0.000098      0.000245      0.000000
     41 Si    c       0.000051      0.000191      0.001852      0.000000
     42 Ge    c       0.001031      0.000538     -0.000010      0.000000
     43 Si    c       0.000019     -0.000133     -0.000061      0.000000
     44 Si    c       0.000778     -0.000298     -0.000529      0.000000
     45 Si    c      -0.000212     -0.000232     -0.000583      0.000000
     46 Si    c       0.000056      0.000354     -0.001099      0.000000
     47 Si    c      -0.000175      0.000351     -0.000425      0.000000
     48 Si    c       0.000079      0.000328     -0.000382      0.000000
     49 Si    c       0.000101      0.000345     -0.000632      0.000000
     50 Si    c       0.000548      0.000221      0.000669      0.000000
     51 Si    c      -0.000019     -0.000043      0.000041      0.000000
     52 Si    c       0.000292     -0.000079      0.000190      0.000000
     53 Si    c       0.000132      0.000474     -0.000252      0.000000
     54 Si    c      -0.000073     -0.000223      0.000235      0.000000
     55 Si    c       0.000352     -0.000067     -0.000795      0.000000
     56 Si    c      -0.000502      0.000901      0.000390      0.000000
     57 Si    c      -0.000326      0.000005     -0.000052      0.000000
     58 Si    c       0.000123      0.000287     -0.000521      0.000000
     59 Si    c       0.000111     -0.000179     -0.000222      0.000000
     60 Si    c       0.000358      0.000086     -0.000187      0.000000
     61 O2    c       0.000379     -0.000756      0.002522      0.000000
     62 O2    c      -0.000054     -0.000106      0.000703      0.000000
     63 O2    c      -0.000227      0.000279      0.001815      0.000000
     64 O2    c       0.000025     -0.000028      0.000746      0.000000
     65 O2    c      -0.000005      0.000067      0.001195      0.000000
     66 O2    c       0.000447     -0.000207      0.001469      0.000000
     67 O2    c       0.000097     -0.000223      0.001075      0.000000
     68 O2    c       0.000145      0.000202      0.000912      0.000000
     69 O2    c       0.000430     -0.000119      0.000077      0.000000
     70 O2    c       0.000212      0.000142     -0.000227      0.000000
     71 O2    c       0.000086      0.000074     -0.000217      0.000000
     72 O2    c       0.000200     -0.000203      0.000007      0.000000
     73 O3    c       0.000174     -0.003282      0.001693      0.000000
     74 O2    c      -0.000043      0.000133     -0.000162      0.000000
     75 O2    c      -0.000085      0.000121     -0.000245      0.000000
     76 O2    c      -0.000044      0.000149      0.000297      0.000000
     77 O2    c       0.000232     -0.000253      0.000166      0.000000
     78 O2    c       0.000086     -0.000262      0.001002      0.000000
     79 O2    c       0.000239      0.000043      0.000333      0.000000
     80 O2    c      -0.000135      0.000181      0.000209      0.000000
     81 O2    c      -0.000153     -0.000087      0.000504      0.000000
     82 O2    c      -0.000089     -0.000009      0.000372      0.000000
     83 O2    c       0.000027     -0.000156      0.000771      0.000000
     84 O3    c       0.000440     -0.000536      0.000319      0.000000
     85 O2    c       0.000197      0.000016      0.000280      0.000000
     86 O2    c       0.001391     -0.000792     -0.000327      0.000000
     87 O2    c      -0.000004      0.000142      0.000640      0.000000
     88 O2    c       0.000132      0.000092     -0.000165      0.000000
     89 O2    c      -0.000096      0.000292     -0.000104      0.000000
     90 O2    c      -0.000041      0.000158      0.000166      0.000000
     91 O2    c       0.000052     -0.000145      0.000265      0.000000
     92 O2    c      -0.000028      0.000142      0.000237      0.000000
     93 O2    c      -0.000108      0.000005      0.001015      0.000000
     94 O2    c       0.000090     -0.000167      0.001192      0.000000
     95 O2    c       0.000377     -0.000044      0.001431      0.000000
     96 O2    c       0.000041     -0.000107      0.001837      0.000000
     97 O2    c       0.000163     -0.000301     -0.001000      0.000000
     98 O2    c      -0.000017     -0.000294      0.000544      0.000000
     99 O3    c       0.000639     -0.000386      0.003543      0.000000
    100 O2    c       0.000063     -0.000021      0.000375      0.000000
    101 O2    c       0.000027      0.000030      0.000766      0.000000
    102 O2    c       0.000165      0.000013      0.000777      0.000000
    103 O2    c      -0.000106      0.000138      0.000458      0.000000
    104 O2    c       0.000039      0.000092      0.000102      0.000000
    105 O2    c       0.000026      0.000163      0.000766      0.000000
    106 O2    c       0.000176     -0.000001     -0.000005      0.000000
    107 O2    c       0.000144     -0.000046      0.000064      0.000000
    108 O2    c       0.000105     -0.000210      0.000090      0.000000
    109 O2    c      -0.000016     -0.000133      0.000868      0.000000
    110 O2    c      -0.000040      0.000331      0.000774      0.000000
    111 O2    c      -0.000385      0.000376      0.000438      0.000000
    112 O2    c       0.000113      0.000397     -0.000201      0.000000
    113 O3    c      -0.004913     -0.001097      0.002102      0.000000
    114 O2    c       0.000031      0.000018     -0.000168      0.000000
    115 O2    c       0.000506     -0.000111     -0.000159      0.000000
    116 O2    c       0.000077     -0.000012      0.000113      0.000000
    117 O2    c       0.000128     -0.000081     -0.000360      0.000000
    118 O2    c      -0.000205      0.000032      0.000265      0.000000
    119 O2    c      -0.000010     -0.000289      0.000790      0.000000
    120 O3    c       0.000166     -0.000030     -0.000173      0.000000
    121 O2    c       0.000069      0.000147      0.000037      0.000000
    122 O2    c       0.000103      0.000459      0.000368      0.000000
    123 O2    c      -0.000042     -0.000022      0.000694      0.000000
    124 O2    c       0.000050     -0.000002     -0.000687      0.000000
    125 O2    c      -0.000110      0.000191      0.000043      0.000000
    126 O2    c      -0.000016      0.000106     -0.000068      0.000000
    127 O3    c       0.000272     -0.002304     -0.008932      0.000000
    128 O2    c       0.000115      0.000104     -0.000415      0.000000
    129 O3    c       0.000111     -0.000067      0.002492      0.000000
    130 O2    c       0.000266     -0.000126      0.000245      0.000000
    131 O2    c      -0.000055      0.000118     -0.000637      0.000000
    132 O2    c       0.000200     -0.000097      0.000135      0.000000
    133 O2    c       0.000025     -0.000084      0.000321      0.000000
    134 O2    c       0.000081      0.000211      0.000771      0.000000
    135 O2    c      -0.000127      0.000047      0.000391      0.000000
    136 O2    c       0.000187      0.000134      0.000445      0.000000
    137 O2    c       0.000093     -0.000021     -0.000114      0.000000
    138 O2    c       0.000300     -0.000031      0.001041      0.000000
    139 O3    c       0.000429      0.001902     -0.001658      0.000000
    140 O2    c       0.000063     -0.000101     -0.000257      0.000000
    141 O2    c       0.000180      0.000138      0.000126      0.000000
    142 O2    c      -0.000107      0.000166     -0.000265      0.000000
    143 O2    c      -0.000014      0.000218     -0.000508      0.000000
    144 O2    c       0.000036      0.000030      0.000106      0.000000
    145 O2    c      -0.000043     -0.000049      0.000271      0.000000
    146 O2    c      -0.000225     -0.000280      0.000758      0.000000
    147 O2    c       0.000162     -0.000157      0.000071      0.000000
    148 O2    c      -0.000052      0.000134      0.000503      0.000000
    149 O2    c       0.000076     -0.000186      0.000156      0.000000
    150 O3    c       0.000534     -0.000524      0.001659      0.000000
    151 O2    c       0.000031     -0.000164      0.000319      0.000000
    152 O2    c       0.000097     -0.000054      0.000565      0.000000
    153 O2    c       0.000022      0.000089      0.001001      0.000000
    154 O2    c       0.000033     -0.000039     -0.000077      0.000000
    155 O3    c      -0.000488      0.000010     -0.000556      0.000000
    156 O3    c       0.000438     -0.000466      0.001117      0.000000
    157 O2    c       0.000086     -0.000094      0.000727      0.000000
    158 O2    c       0.000130      0.000118      0.003206      0.000000
    159 O2    c       0.000183      0.000003     -0.000167      0.000000
    160 O2    c      -0.000003     -0.000040      0.001592      0.000000
    161 O2    c      -0.000250      0.000029      0.000940      0.000000
    162 O2    c      -0.000200      0.000018      0.000287      0.000000
    163 O2    c      -0.000385      0.000267      0.000132      0.000000
    164 O2    c      -0.000233      0.000165      0.000170      0.000000
    165 O2    c      -0.000106     -0.000127     -0.000258      0.000000
    166 O2    c       0.000029      0.000053      0.000065      0.000000
    167 O2    c      -0.000119     -0.000046      0.000641      0.000000
    168 O2    c      -0.000042      0.000106      0.000037      0.000000
    169 O2    c      -0.000056      0.000063      0.000007      0.000000
    170 O2    c       0.000217      0.000490      0.000825      0.000000
    171 O3    c       0.000073     -0.000019      0.002967      0.000000
    172 O2    c       0.000227      0.000113     -0.000214      0.000000
    173 O2    c       0.000193     -0.000044      0.000369      0.000000
    174 O2    c      -0.000001      0.000039     -0.000191      0.000000
    175 O2    c      -0.000093      0.000149      0.000169      0.000000
    176 O2    c       0.000214     -0.000082      0.000131      0.000000
    177 O2    c       0.000108     -0.000320     -0.000196      0.000000
    178 O2    c       0.000021     -0.000278      0.000452      0.000000
    179 O2    c      -0.000346     -0.000298      0.000228      0.000000
    180 O2    c      -0.000070      0.000063      0.000702      0.000000
    181 F     c      -0.000004      0.000016     -0.000005      0.000000
    182 F     c      -0.000244      0.000025     -0.000067      0.000000
    183 F     c       0.000349     -0.000256      0.000101      0.000000
    184 F     c       0.000046      0.000043      0.000334      0.000000
    185 F     c       0.001003     -0.000015     -0.001017      0.000000
    186 F     c       0.000027      0.000006      0.000159      0.000000
    187 O2    s       0.000025     -0.000574     -0.000491      0.000000
    188 O2    s      -0.000148      0.000462     -0.001050      0.000000
    189 O2    s      -0.000000      0.000052     -0.001435      0.000000
    190 O2    s      -0.000183      0.000144     -0.000698      0.000000
    191 O2    s      -0.000128      0.000062     -0.000349      0.000000
    192 O2    s       0.000085     -0.000188     -0.000421      0.000000
    193 O2    s       0.000193      0.000063      0.000076      0.000000
    194 O2    s      -0.000565     -0.000186     -0.000192      0.000000
    195 O2    s       0.000368     -0.000080      0.000204      0.000000
    196 O2    s       0.000344     -0.000054     -0.000228      0.000000
    197 O2    s       0.000501     -0.000462      0.000783      0.000000
    198 O2    s      -0.000105      0.000131      0.000137      0.000000
    199 O3    s       0.001699      0.002480      0.000807      0.000000
    200 O2    s      -0.000198      0.000153     -0.000552      0.000000
    201 O2    s       0.000004     -0.000043     -0.000305      0.000000
    202 O2    s       0.000138      0.000078      0.000139      0.000000
    203 O2    s       0.000112     -0.000005     -0.000205      0.000000
    204 O2    s       0.000383     -0.000024      0.000469      0.000000
    205 O2    s       0.000171      0.000002     -0.000473      0.000000
    206 O2    s       0.000054      0.000350     -0.000105      0.000000
    207 O2    s      -0.000372     -0.000058      0.000256      0.000000
    208 O2    s      -0.000208      0.000102     -0.000195      0.000000
    209 O2    s       0.000138      0.000151     -0.000259      0.000000
    210 O3    s       0.000168      0.000002     -0.000051      0.000000
    211 O2    s      -0.000190      0.000261      0.000040      0.000000
    212 O2    s      -0.000292     -0.000048     -0.000061      0.000000
    213 O2    s       0.000411     -0.000415     -0.000673      0.000000
    214 O2    s       0.000195     -0.000365      0.000907      0.000000
    215 O2    s       0.000075     -0.000015      0.000375      0.000000
    216 O2    s       0.000093      0.000068     -0.000154      0.000000
    217 O2    s       0.000197      0.000553     -0.000688      0.000000
    218 O2    s      -0.000193      0.000171     -0.000607      0.000000
    219 O2    s       0.000088      0.000209     -0.001907      0.000000
    220 O2    s       0.000130      0.000356     -0.000694      0.000000
    221 O2    s      -0.000245      0.000359     -0.000964      0.000000
    222 O2    s      -0.000155      0.000252     -0.001107      0.000000
    223 O2    s       0.000057      0.000364     -0.000586      0.000000
    224 O2    s      -0.000035     -0.000015      0.000380      0.000000
    225 O3    s       0.000174     -0.000129     -0.002471      0.000000
    226 O2    s      -0.000055      0.000087     -0.000515      0.000000
    227 O2    s       0.000225      0.000024     -0.001018      0.000000
    228 O2    s       0.000068      0.000133     -0.001056      0.000000
    229 O2    s       0.000045      0.000100     -0.000354      0.000000
    230 O2    s       0.000311     -0.000836     -0.000602      0.000000
    231 O2    s      -0.000089     -0.000132     -0.000591      0.000000
    232 O2    s       0.000074      0.000115      0.000480      0.000000
    233 O2    s       0.000023      0.000134      0.000402      0.000000
    234 O2    s       0.000261     -0.000097     -0.000271      0.000000
    235 O2    s       0.000125      0.000313     -0.000455      0.000000
    236 O2    s       0.000285     -0.000279     -0.000665      0.000000
    237 O2    s       0.000436      0.000395     -0.000016      0.000000
    238 O2    s      -0.000055     -0.000339     -0.000161      0.000000
    239 O3    s       0.002462      0.001749     -0.000477      0.000000
    240 O2    s      -0.000071     -0.000062     -0.000247      0.000000
    241 O2    s      -0.000194      0.000217     -0.000391      0.000000
    242 O2    s       0.000003      0.000105     -0.000129      0.000000
    243 O2    s      -0.000207      0.000222     -0.000115      0.000000
    244 O2    s       0.000006      0.000088     -0.000048      0.000000
    245 O2    s       0.000225      0.000062     -0.000377      0.000000
    246 O3    s      -0.000131     -0.000251     -0.000230      0.000000
    247 O2    s      -0.000023      0.000028      0.000089      0.000000
    248 O2    s      -0.000122      0.000390     -0.000031      0.000000
    249 O2    s      -0.000021      0.000111     -0.000038      0.000000
    250 O2    s       0.000322      0.000063      0.001638      0.000000
    251 O2    s       0.000067     -0.000242     -0.000195      0.000000
    252 O2    s      -0.000073     -0.000047     -0.000194      0.000000
    253 O3    s      -0.000105      0.002211      0.004982      0.000000
    254 O2    s      -0.000008      0.000100      0.000112      0.000000
    255 O3    s       0.000135      0.000061     -0.003012      0.000000
    256 O2    s       0.000010      0.000097     -0.000619      0.000000
    257 O2    s       0.000164      0.000201     -0.000035      0.000000
    258 O2    s       0.000121     -0.000091      0.000169      0.000000
    259 O2    s       0.000130      0.000146     -0.000102      0.000000
    260 O2    s       0.000307     -0.000329     -0.000028      0.000000
    261 O2    s       0.000025     -0.000138      0.000669      0.000000
    262 O2    s       0.000041     -0.000091     -0.000463      0.000000
    263 O2    s      -0.000024      0.000196      0.000256      0.000000
    264 O2    s       0.000076     -0.000939     -0.000401      0.000000
    265 O3    s      -0.001550     -0.000460     -0.001446      0.000000
    266 O2    s       0.000072      0.000254      0.000142      0.000000
    267 O2    s      -0.000523     -0.000168     -0.000017      0.000000
    268 O2    s       0.000484     -0.000330     -0.000360      0.000000
    269 O2    s       0.000237     -0.000011      0.000876      0.000000
    270 O2    s       0.000259     -0.000060      0.000204      0.000000
    271 O2    s      -0.000094      0.000270     -0.000066      0.000000
    272 O2    s       0.000479     -0.000002      0.000274      0.000000
    273 O2    s      -0.000394      0.000033      0.000556      0.000000
    274 O2    s       0.000137     -0.000225     -0.000873      0.000000
    275 O2    s       0.000004      0.000093      0.000504      0.000000
    276 O3    s      -0.000936      0.000907     -0.002302      0.000000
    277 O2    s       0.000371     -0.000129      0.000022      0.000000
    278 O2    s       0.000061      0.000217     -0.000704      0.000000
    279 O2    s      -0.000480     -0.000029     -0.000261      0.000000
    280 O2    s      -0.000169      0.000356     -0.000418      0.000000
    281 O3    s       0.000414      0.000050     -0.000646      0.000000
    282 O3    s      -0.000286      0.001229      0.001185      0.000000
    283 O2    s      -0.000040      0.000306     -0.000290      0.000000
    284 O2    s       0.000579      0.000610     -0.001212      0.000000
    285 O2    s      -0.000104      0.000012      0.000331      0.000000
    286 O2    s       0.000585     -0.000298     -0.000733      0.000000
    287 O2    s       0.000240     -0.000254     -0.000282      0.000000
    288 O2    s       0.000303     -0.000068     -0.000483      0.000000
    289 O2    s       0.001436     -0.000648     -0.000083      0.000000
    290 O2    s       0.000118     -0.000010      0.000035      0.000000
    291 O2    s      -0.000104     -0.000004      0.000156      0.000000
    292 O2    s       0.000055      0.000003      0.000326      0.000000
    293 O2    s      -0.000112      0.000089     -0.000464      0.000000
    294 O2    s       0.000328      0.000168     -0.000168      0.000000
    295 O2    s       0.000059      0.000233      0.000547      0.000000
    296 O2    s      -0.000009     -0.000842     -0.000301      0.000000
    297 O3    s      -0.000304      0.000037     -0.002715      0.000000
    298 O2    s      -0.000047      0.000134      0.000700      0.000000
    299 O2    s      -0.000310      0.000247     -0.000514      0.000000
    300 O2    s       0.000229      0.000031     -0.000344      0.000000
    301 O2    s       0.000320     -0.000005     -0.000185      0.000000
    302 O2    s      -0.000276      0.000172      0.000142      0.000000
    303 O2    s      -0.000030      0.000515      0.000752      0.000000
    304 O2    s      -0.000067      0.000243     -0.000093      0.000000
    305 O2    s       0.000767      0.000288      0.000076      0.000000
    306 O2    s       0.000387      0.000081     -0.000386      0.000000
    307 F     s       0.000109     -0.000111      0.000281      0.000000
    308 F     s      -0.000277      0.000152      0.000618      0.000000
    309 F     s       0.000367     -0.000083     -0.000015      0.000000
    310 F     s       0.000064     -0.000224      0.000342      0.000000
    311 F     s      -0.000442     -0.000899     -0.001560      0.000000
    312 F     s      -0.000163      0.000213      0.000135      0.000000
--------------------------------------------------------------------------------
  Maximum abs         0.004913      0.003282      0.008932      0.000000
--------------------------------------------------------------------------------


  Time to end of optimisation =     168.7759 seconds


  Peak dynamic memory used =      19.13 MB 


  Timing analysis for GULP :

--------------------------------------------------------------------------------
  Task / Subroutine                                          Time (Seconds)
--------------------------------------------------------------------------------
  Calculation of reciprocal space energy and derivatives          3.8671
  Calculation of real space energy and derivatives              148.0868
  Calculation of three-body energy and derivatives               15.1181
  Calculation of matrix inversion                                 1.4914
  Global summation overhead                                       0.0003
--------------------------------------------------------------------------------
  Total CPU time                                                168.7760
--------------------------------------------------------------------------------


  Dump file written as out.res                                                 
  CIF file written as out.cif                                                 


  Job Finished at 14:50.20  6th November   2016                               

