********************************************************************************
*                       GENERAL UTILITY LATTICE PROGRAM                        *
*                                 Julian Gale                                  *
*                      Nanochemistry Research Institute                        *
*                           Department of Chemistry                            *
*                    Curtin University, Western Australia                      *
********************************************************************************
* Version = 4.2.0 * Last modified =  20th January 2014                         *
********************************************************************************
*  optimise     - perform optimisation run                                     *
*  conp         - constant pressure calculation                                *
*  qok          - running with non charge neutral cell is OK                   *
********************************************************************************

  Job Started  at 20:30.46  6th November   2016                               

  Number of CPUs =     1


  Total number of configurations input =   1

********************************************************************************
*  Input for Configuration =   1                                               *
********************************************************************************

  Formula = Ge3Si57O120F6                                               

  Number of irreducible atoms/shells =     312


  Total number atoms/shells =     312

  Dimensionality = 3               :  Bulk   


  Charge on solid   =  -6.000000 =>neutralising background added


  Cartesian lattice vectors (Angstroms) :

       11.946513    0.000000    0.000000
       -6.046722   10.403269    0.000000
       -0.399822   -0.178738   29.405427

  Cell parameters (Angstroms/Degrees):

  a =      11.9465    alpha =  89.9096
  b =      12.0329    beta  =  90.7790
  c =      29.4087    gamma = 120.1666

  Initial cell volume =        3654.588313 Angs**3

  Temperature of configuration =  0.000     K 

  Pressure of configuration =         0.000 GPa 

  Fractional coordinates of asymmetric unit :

--------------------------------------------------------------------------------
   No.  Atomic       x           y          z         Charge      Occupancy
        Label      (Frac)      (Frac)     (Frac)        (e)         (Frac)  
--------------------------------------------------------------------------------
      1 Ge    c    0.699600    0.375700    0.033890     4.00000    1.000000    
      2 Si    c    0.618925 *  0.317091 *  0.366469 *   4.00000    1.000000    
      3 Si    c    0.683325 *  0.310806 *  0.696125 *   4.00000    1.000000    
      4 Si    c    0.295757 *  0.613691 *  0.528641 *   4.00000    1.000000    
      5 Si    c    0.369516 *  0.673178 *  0.860609 *   4.00000    1.000000    
      6 Si    c    0.317650 *  0.697846 *  0.195745 *   4.00000    1.000000    
      7 Si    c    0.368951 *  0.690140 *  0.296944 *   4.00000    1.000000    
      8 Si    c    0.312221 *  0.620666 *  0.960942 *   4.00000    1.000000    
      9 Si    c    0.305206 *  0.668759 *  0.629333 *   4.00000    1.000000    
     10 Si    c    0.615470 *  0.298780 *  0.798125 *   4.00000    1.000000    
     11 Si    c    0.674265 *  0.377689 *  0.467110 *   4.00000    1.000000    
     12 Si    c    0.680689 *  0.311256 *  0.132094 *   4.00000    1.000000    
     13 Si    c    0.525493 *  0.418304 *  0.966362 *   4.00000    1.000000    
     14 Si    c    0.578425 *  0.102726 *  0.303488 *   4.00000    1.000000    
     15 Si    c    0.901685 *  0.477547 *  0.634078 *   4.00000    1.000000    
     16 Si    c    0.465647 *  0.577122 *  0.462914 *   4.00000    1.000000    
     17 Si    c    0.406997 *  0.882004 *  0.794586 *   4.00000    1.000000    
     18 Si    c    0.105166 *  0.529193 *  0.127932 *   4.00000    1.000000    
     19 Si    c    0.411532 *  0.519218 *  0.361081 *   4.00000    1.000000    
     20 Si    c    0.097794 *  0.580512 *  0.024556 *   4.00000    1.000000    
     21 Si    c    0.468568 *  0.882791 *  0.691738 *   4.00000    1.000000    
     22 Si    c    0.575013 *  0.468174 *  0.863660 *   4.00000    1.000000    
     23 Si    c    0.887468 *  0.417176 *  0.532649 *   4.00000    1.000000    
     24 Si    c    0.529320 *  0.107632 *  0.201667 *   4.00000    1.000000    
     25 Si    c    0.293359 *  0.396594 *  0.847396 *   4.00000    1.000000    
     26 Si    c    0.598339 *  0.899898 *  0.184869 *   4.00000    1.000000    
     27 Si    c    0.097224 *  0.695893 *  0.516950 *   4.00000    1.000000    
     28 Si    c    0.693035 *  0.591207 *  0.348961 *   4.00000    1.000000    
     29 Ge    c    0.412660 *  0.098907 *  0.687145 *   4.00000    1.000000    
     30 Si    c    0.885716 *  0.292809 *  0.009318 *   4.00000    1.000000    
     31 Si    c    0.393514 *  0.297933 *  0.479715 *   4.00000    1.000000    
     32 Si    c    0.887654 *  0.595567 *  0.143042 *   4.00000    1.000000    
     33 Si    c    0.693219 *  0.095441 *  0.811847 *   4.00000    1.000000    
     34 Si    c    0.591355 *  0.698575 *  0.977179 *   4.00000    1.000000    
     35 Si    c    0.103415 *  0.394768 *  0.646129 *   4.00000    1.000000    
     36 Si    c    0.294499 *  0.891746 *  0.313721 *   4.00000    1.000000    
     37 Si    c    0.244902 *  0.342029 *  0.948005 *   4.00000    1.000000    
     38 Si    c    0.652180 *  0.900384 *  0.286236 *   4.00000    1.000000    
     39 Si    c    0.104126 *  0.754587 *  0.617912 *   4.00000    1.000000    
     40 Si    c    0.745943 *  0.656378 *  0.449542 *   4.00000    1.000000    
     41 Si    c    0.326789 *  0.084899 *  0.782513 *   4.00000    1.000000    
     42 Si    c    0.899060 *  0.248435 *  0.112451 *   4.00000    1.000000    
     43 Si    c    0.336660 *  0.243317 *  0.378488 *   4.00000    1.000000    
     44 Si    c    0.893925 *  0.660395 *  0.040745 *   4.00000    1.000000    
     45 Si    c    0.750251 *  0.092956 *  0.710209 *   4.00000    1.000000    
     46 Si    c    0.650406 *  0.745801 *  0.876660 *   4.00000    1.000000    
     47 Si    c    0.086253 *  0.334908 *  0.545110 *   4.00000    1.000000    
     48 Si    c    0.249458 *  0.906195 *  0.212599 *   4.00000    1.000000    
     49 Si    c    0.967894 *  0.120398 *  0.962709 *   4.00000    1.000000    
     50 Si    c    0.870496 *  0.839850 *  0.300305 *   4.00000    1.000000    
     51 Si    c    0.161509 *  0.034027 *  0.633017 *   4.00000    1.000000    
     52 Si    c    0.027164 *  0.874600 *  0.465938 *   4.00000    1.000000    
     53 Si    c    0.113779 *  0.146320 *  0.798196 *   4.00000    1.000000    
     54 Si    c    0.842600 *  0.973194 *  0.130446 *   4.00000    1.000000    
     55 Si    c    0.118881 *  0.962628 *  0.364775 *   4.00000    1.000000    
     56 Si    c    0.840904 *  0.882098 *  0.028792 *   4.00000    1.000000    
     57 Si    c    0.029467 *  0.146033 *  0.695728 *   4.00000    1.000000    
     58 Si    c    0.870465 *  0.022881 *  0.862435 *   4.00000    1.000000    
     59 Si    c    0.147315 *  0.117698 *  0.531392 *   4.00000    1.000000    
     60 Ge    c    0.965727 *  0.847702 *  0.196382 *   4.00000    1.000000    
     61 O2    c    0.924868 *  0.005576 *  0.998048 *   0.87073    1.000000    
     62 O2    c    0.994324 *  0.919123 *  0.332836 *   0.87073    1.000000    
     63 O2    c    0.066318 *  0.063377 *  0.663283 *   0.87073    1.000000    
     64 O2    c    0.067762 *  0.995911 *  0.498299 *   0.87073    1.000000    
     65 O2    c    0.989128 *  0.067017 *  0.829063 *   0.87073    1.000000    
     66 O3    c    0.932488 *  0.941764 *  0.161321 *   1.33043    1.000000    
     67 O2    c    0.332062 *  0.565060 *  0.327956 *   0.87073    1.000000    
     68 O2    c    0.431118 *  0.754347 *  0.661990 *   0.87073    1.000000    
     69 O2    c    0.223678 *  0.656360 *  0.992806 *   0.87073    1.000000    
     70 O2    c    0.652138 *  0.418296 *  0.832098 *   0.87073    1.000000    
     71 O2    c    0.577145 *  0.235286 *  0.171414 *   0.87073    1.000000    
     72 O2    c    0.757975 *  0.340749 *  0.501121 *   0.87073    1.000000    
     73 O3    c    0.565131 *  0.338953 *  0.998458 *   1.33043    1.000000    
     74 O2    c    0.782960 *  0.438004 *  0.668575 *   0.87073    1.000000    
     75 O2    c    0.656045 *  0.227143 *  0.336328 *   0.87073    1.000000    
     76 O2    c    0.415500 *  0.652828 *  0.494525 *   0.87073    1.000000    
     77 O2    c    0.231759 *  0.579076 *  0.160551 *   0.87073    1.000000    
     78 O2    c    0.332406 *  0.757250 *  0.826763 *   0.87073    1.000000    
     79 O2    c    0.121722 *  0.214034 *  0.968494 *   0.87073    1.000000    
     80 O2    c    0.776325 *  0.898493 *  0.307969 *   0.87073    1.000000    
     81 O2    c    0.107997 *  0.880203 *  0.638717 *   0.87073    1.000000    
     82 O2    c    0.871977 *  0.784197 *  0.469471 *   0.87073    1.000000    
     83 O2    c    0.206509 *  0.086529 *  0.807534 *   0.87073    1.000000    
     84 O2    c    0.902208 *  0.126722 *  0.133864 *   0.87073    1.000000    
     85 O2    c    0.211207 *  0.115571 *  0.357952 *   0.87073    1.000000    
     86 O2    c    0.909670 *  0.796900 *  0.024706 *   0.87073    1.000000    
     87 O2    c    0.875262 *  0.092289 *  0.690398 *   0.87073    1.000000    
     88 O2    c    0.777752 *  0.869862 *  0.856309 *   0.87073    1.000000    
     89 O2    c    0.082468 *  0.207188 *  0.525213 *   0.87073    1.000000    
     90 O3    c    0.129405 *  0.911710 *  0.190549 *   1.33043    1.000000    
     91 O3    c    0.920920 *  0.862814 *  0.249697 *   1.33043    1.000000    
     92 O2    c    0.136823 *  0.064897 *  0.581531 *   0.87073    1.000000    
     93 O2    c    0.927585 *  0.059260 *  0.912922 *   0.87073    1.000000    
     94 O2    c    0.062693 *  0.128112 *  0.746968 *   0.87073    1.000000    
     95 O2    c    0.846006 *  0.929873 *  0.079655 *   0.87073    1.000000    
     96 O2    c    0.070928 *  0.927921 *  0.415711 *   0.87073    1.000000    
     97 O2    c    0.897391 *  0.201998 *  0.971563 *   0.87073    1.000000    
     98 O2    c    0.791247 *  0.687173 *  0.310431 *   0.87073    1.000000    
     99 O3    c    0.308477 *  0.110619 *  0.645123 *   1.33043    1.000000    
    100 O2    c    0.095527 *  0.792153 *  0.478523 *   0.87073    1.000000    
    101 O2    c    0.193860 *  0.298536 *  0.809036 *   0.87073    1.000000    
    102 O2    c    0.693640 *  0.899068 *  0.146362 *   0.87073    1.000000    
    103 O2    c    0.197331 *  0.889979 *  0.352085 *   0.87073    1.000000    
    104 O2    c    0.689451 *  0.799998 *  0.015171 *   0.87073    1.000000    
    105 O2    c    0.104764 *  0.297862 *  0.684330 *   0.87073    1.000000    
    106 O2    c    0.786966 *  0.092426 *  0.851425 *   0.87073    1.000000    
    107 O2    c    0.298603 *  0.202359 *  0.518337 *   0.87073    1.000000    
    108 O3    c    0.888379 *  0.686644 *  0.182805 *   1.33043    1.000000    
    109 O2    c    0.314607 *  0.636348 *  0.245508 *   0.87073    1.000000    
    110 O2    c    0.359636 *  0.670080 *  0.578671 *   0.87073    1.000000    
    111 O2    c    0.309699 *  0.675133 *  0.910193 *   0.87073    1.000000    
    112 O2    c    0.673537 *  0.354560 *  0.748321 *   0.87073    1.000000    
    113 O3    c    0.610144 *  0.298609 *  0.084546 *   1.33043    1.000000    
    114 O2    c    0.677010 *  0.320452 *  0.417115 *   0.87073    1.000000    
    115 O2    c    0.367562 *  0.333928 *  0.966326 *   0.87073    1.000000    
    116 O2    c    0.663754 *  0.031897 *  0.305515 *   0.87073    1.000000    
    117 O2    c    0.971531 *  0.632612 *  0.636035 *   0.87073    1.000000    
    118 O2    c    0.622382 *  0.666133 *  0.466212 *   0.87073    1.000000    
    119 O2    c    0.321477 *  0.951906 *  0.797981 *   0.87073    1.000000    
    120 O2    c    0.032630 *  0.373924 *  0.129184 *   0.87073    1.000000    
    121 O2    c    0.325088 *  0.363120 *  0.358482 *   0.87073    1.000000    
    122 O2    c    0.026134 *  0.664260 *  0.023962 *   0.87073    1.000000    
    123 O2    c    0.626574 *  0.960757 *  0.692715 *   0.87073    1.000000    
    124 O2    c    0.659951 *  0.623635 *  0.858766 *   0.87073    1.000000    
    125 O2    c    0.953246 *  0.327751 *  0.527795 *   0.87073    1.000000    
    126 O2    c    0.373527 *  0.038760 *  0.196366 *   0.87073    1.000000    
    127 O3    c    0.750847 *  0.283970 *  0.000856 *   1.33043    1.000000    
    128 O2    c    0.693579 *  0.457517 *  0.342186 *   0.87073    1.000000    
    129 O3    c    0.546795 *  0.250210 *  0.671206 *   1.33043    1.000000    
    130 O2    c    0.227268 *  0.689954 *  0.507328 *   0.87073    1.000000    
    131 O2    c    0.295372 *  0.530431 *  0.837758 *   0.87073    1.000000    
    132 O2    c    0.462258 *  0.768198 *  0.174738 *   0.87073    1.000000    
    133 O2    c    0.292899 *  0.756718 *  0.319235 *   0.87073    1.000000    
    134 O2    c    0.456540 *  0.699082 *  0.983729 *   0.87073    1.000000    
    135 O2    c    0.240368 *  0.527084 *  0.652217 *   0.87073    1.000000    
    136 O2    c    0.688916 *  0.226235 *  0.818453 *   0.87073    1.000000    
    137 O2    c    0.529704 *  0.301863 *  0.487939 *   0.87073    1.000000    
    138 O2    c    0.755438 *  0.460761 *  0.149503 *   0.87073    1.000000    
    139 O3    c    0.766846 *  0.546055 *  0.019925 *   1.33043    1.000000    
    140 O2    c    0.462341 *  0.241222 *  0.360162 *   0.87073    1.000000    
    141 O2    c    0.746733 *  0.217867 *  0.693035 *   0.87073    1.000000    
    142 O2    c    0.212192 *  0.457910 *  0.524290 *   0.87073    1.000000    
    143 O2    c    0.526481 *  0.750422 *  0.856371 *   0.87073    1.000000    
    144 O2    c    0.242584 *  0.778254 *  0.191829 *   0.87073    1.000000    
    145 O2    c    0.524840 *  0.773448 *  0.303562 *   0.87073    1.000000    
    146 O2    c    0.239795 *  0.465666 *  0.966961 *   0.87073    1.000000    
    147 O2    c    0.227197 *  0.745712 *  0.636100 *   0.87073    1.000000    
    148 O2    c    0.460092 *  0.209757 *  0.800732 *   0.87073    1.000000    
    149 O2    c    0.746944 *  0.533281 *  0.470766 *   0.87073    1.000000    
    150 O2    c    0.775827 *  0.250421 *  0.132340 *   0.87073    1.000000    
    151 O2    c    0.221439 *  0.324267 *  0.893610 *   0.87073    1.000000    
    152 O2    c    0.671024 *  0.899592 *  0.231738 *   0.87073    1.000000    
    153 O2    c    0.102048 *  0.770091 *  0.563285 *   0.87073    1.000000    
    154 O2    c    0.764964 *  0.669573 *  0.395048 *   0.87073    1.000000    
    155 O3    c    0.301702 *  0.089262 *  0.729853 *   1.33043    1.000000    
    156 O2    c    0.894645 *  0.232061 *  0.058065 *   0.87073    1.000000    
    157 O2    c    0.319426 *  0.226955 *  0.432840 *   0.87073    1.000000    
    158 O2    c    0.891914 *  0.668458 *  0.096413 *   0.87073    1.000000    
    159 O2    c    0.761354 *  0.094751 *  0.765077 *   0.87073    1.000000    
    160 O2    c    0.668026 *  0.766907 *  0.931062 *   0.87073    1.000000    
    161 O2    c    0.091733 *  0.318308 *  0.599471 *   0.87073    1.000000    
    162 O2    c    0.224636 *  0.898864 *  0.266945 *   0.87073    1.000000    
    163 O2    c    0.575754 *  0.560749 *  0.987767 *   0.87073    1.000000    
    164 O2    c    0.435146 *  0.015069 *  0.324247 *   0.87073    1.000000    
    165 O2    c    0.982787 *  0.415553 *  0.656432 *   0.87073    1.000000    
    166 O2    c    0.409198 *  0.437828 *  0.486646 *   0.87073    1.000000    
    167 O2    c    0.550383 *  0.973619 *  0.815931 *   0.87073    1.000000    
    168 O2    c    0.012360 *  0.577602 *  0.148241 *   0.87073    1.000000    
    169 O2    c    0.553035 *  0.576381 *  0.338289 *   0.87073    1.000000    
    170 O2    c    0.006765 *  0.438605 *  0.003470 *   0.87073    1.000000    
    171 O3    c    0.409976 *  0.959333 *  0.666206 *   1.33043    1.000000    
    172 O2    c    0.432374 *  0.407622 *  0.840130 *   0.87073    1.000000    
    173 O2    c    0.968535 *  0.557617 *  0.509349 *   0.87073    1.000000    
    174 O2    c    0.589845 *  0.028411 *  0.177571 *   0.87073    1.000000    
    175 O2    c    0.580698 *  0.158257 *  0.252931 *   0.87073    1.000000    
    176 O2    c    0.839920 *  0.419074 *  0.584041 *   0.87073    1.000000    
    177 O2    c    0.578878 *  0.422282 *  0.915023 *   0.87073    1.000000    
    178 O2    c    0.411931 *  0.836581 *  0.743230 *   0.87073    1.000000    
    179 O2    c    0.147000 *  0.577210 *  0.076283 *   0.87073    1.000000    
    180 O2    c    0.411777 *  0.574273 *  0.411528 *   0.87073    1.000000    
    181 F     c    0.445109 *  0.895836 *  0.247854 *   0.56000    1.000000    
    182 F     c    0.101536 *  0.544152 *  0.580955 *   0.56000    1.000000    
    183 F     c    0.440869 *  0.551979 *  0.911083 *   0.56000    1.000000    
    184 F     c    0.516939 *  0.095976 *  0.735667 *   0.56000    1.000000    
    185 F     c    0.849762 *  0.433386 *  0.069342 *   0.56000    1.000000    
    186 F     c    0.545642 *  0.446864 *  0.412607 *   0.56000    1.000000    
    187 O2    s    0.920259 *  0.004664 *  0.997509 *  -2.87073    1.000000    
    188 O2    s    0.994515 *  0.915138 *  0.332804 *  -2.87073    1.000000    
    189 O2    s    0.071914 *  0.069671 *  0.663834 *  -2.87073    1.000000    
    190 O2    s    0.071933 *  0.995621 *  0.498283 *  -2.87073    1.000000    
    191 O2    s    0.989470 *  0.070863 *  0.829437 *  -2.87073    1.000000    
    192 O3    s    0.925678 *  0.937078 *  0.161014 *  -3.33043    1.000000    
    193 O2    s    0.343841 *  0.573322 *  0.328081 *  -2.87073    1.000000    
    194 O2    s    0.422273 *  0.758650 *  0.661700 *  -2.87073    1.000000    
    195 O2    s    0.219401 *  0.644913 *  0.992929 *  -2.87073    1.000000    
    196 O2    s    0.640512 *  0.410828 *  0.831730 *  -2.87073    1.000000    
    197 O2    s    0.583068 *  0.229846 *  0.170431 *  -2.87073    1.000000    
    198 O2    s    0.762545 *  0.352488 *  0.500800 *  -2.87073    1.000000    
    199 O3    s    0.570630 *  0.350164 *  0.997585 *  -3.33043    1.000000    
    200 O2    s    0.784707 *  0.428646 *  0.667939 *  -2.87073    1.000000    
    201 O2    s    0.644197 *  0.223260 *  0.335957 *  -2.87073    1.000000    
    202 O2    s    0.408442 *  0.640901 *  0.494734 *  -2.87073    1.000000    
    203 O2    s    0.227062 *  0.585660 *  0.160647 *  -2.87073    1.000000    
    204 O2    s    0.343975 *  0.761750 *  0.826841 *  -2.87073    1.000000    
    205 O2    s    0.117623 *  0.216972 *  0.965796 *  -2.87073    1.000000    
    206 O2    s    0.773136 *  0.892525 *  0.304910 *  -2.87073    1.000000    
    207 O2    s    0.112855 *  0.881940 *  0.635945 *  -2.87073    1.000000    
    208 O2    s    0.875297 *  0.780463 *  0.467041 *  -2.87073    1.000000    
    209 O2    s    0.208827 *  0.092641 *  0.804105 *  -2.87073    1.000000    
    210 O2    s    0.895551 *  0.123518 *  0.131223 *  -2.87073    1.000000    
    211 O2    s    0.214357 *  0.112528 *  0.360763 *  -2.87073    1.000000    
    212 O2    s    0.900688 *  0.792160 *  0.026764 *  -2.87073    1.000000    
    213 O2    s    0.877971 *  0.097969 *  0.693038 *  -2.87073    1.000000    
    214 O2    s    0.774619 *  0.873561 *  0.859031 *  -2.87073    1.000000    
    215 O2    s    0.089586 *  0.211009 *  0.527870 *  -2.87073    1.000000    
    216 O3    s    0.127722 *  0.905775 *  0.193241 *  -3.33043    1.000000    
    217 O3    s    0.919508 *  0.858990 *  0.250367 *  -3.33043    1.000000    
    218 O2    s    0.140614 *  0.067760 *  0.581124 *  -2.87073    1.000000    
    219 O2    s    0.925623 *  0.062022 *  0.912792 *  -2.87073    1.000000    
    220 O2    s    0.064755 *  0.132227 *  0.747041 *  -2.87073    1.000000    
    221 O2    s    0.845032 *  0.929412 *  0.079683 *  -2.87073    1.000000    
    222 O2    s    0.071495 *  0.925886 *  0.415508 *  -2.87073    1.000000    
    223 O2    s    0.903853 *  0.202723 *  0.974580 *  -2.87073    1.000000    
    224 O2    s    0.789741 *  0.693511 *  0.313192 *  -2.87073    1.000000    
    225 O3    s    0.298675 *  0.101180 *  0.646494 *  -3.33043    1.000000    
    226 O2    s    0.088361 *  0.791113 *  0.481112 *  -2.87073    1.000000    
    227 O2    s    0.195580 *  0.292464 *  0.811826 *  -2.87073    1.000000    
    228 O2    s    0.699501 *  0.906959 *  0.148684 *  -2.87073    1.000000    
    229 O2    s    0.199119 *  0.897756 *  0.349453 *  -2.87073    1.000000    
    230 O2    s    0.695627 *  0.798432 *  0.012747 *  -2.87073    1.000000    
    231 O2    s    0.096733 *  0.291874 *  0.681608 *  -2.87073    1.000000    
    232 O2    s    0.785760 *  0.085551 *  0.848416 *  -2.87073    1.000000    
    233 O2    s    0.292696 *  0.203500 *  0.515655 *  -2.87073    1.000000    
    234 O3    s    0.894649 *  0.690868 *  0.179991 *  -3.33043    1.000000    
    235 O2    s    0.320313 *  0.647949 *  0.245563 *  -2.87073    1.000000    
    236 O2    s    0.347535 *  0.664164 *  0.578740 *  -2.87073    1.000000    
    237 O2    s    0.315926 *  0.669434 *  0.910356 *  -2.87073    1.000000    
    238 O2    s    0.668416 *  0.344525 *  0.748478 *  -2.87073    1.000000    
    239 O3    s    0.623204 *  0.304912 *  0.086092 *  -3.33043    1.000000    
    240 O2    s    0.670726 *  0.325950 *  0.416948 *  -2.87073    1.000000    
    241 O2    s    0.369806 *  0.343341 *  0.964274 *  -2.87073    1.000000    
    242 O2    s    0.653711 *  0.025410 *  0.303271 *  -2.87073    1.000000    
    243 O2    s    0.977995 *  0.628938 *  0.633916 *  -2.87073    1.000000    
    244 O2    s    0.619182 *  0.655932 *  0.464107 *  -2.87073    1.000000    
    245 O2    s    0.330919 *  0.957987 *  0.796060 *  -2.87073    1.000000    
    246 O2    s    0.026389 *  0.377188 *  0.127313 *  -2.87073    1.000000    
    247 O2    s    0.335138 *  0.366684 *  0.360826 *  -2.87073    1.000000    
    248 O2    s    0.020679 *  0.655051 *  0.025684 *  -2.87073    1.000000    
    249 O2    s    0.623927 *  0.967123 *  0.694515 *  -2.87073    1.000000    
    250 O2    s    0.650202 *  0.620504 *  0.861155 *  -2.87073    1.000000    
    251 O2    s    0.960412 *  0.337661 *  0.530109 *  -2.87073    1.000000    
    252 O2    s    0.376776 *  0.031858 *  0.198679 *  -2.87073    1.000000    
    253 O3    s    0.761799 *  0.290980 *  0.004005 *  -3.33043    1.000000    
    254 O2    s    0.685951 *  0.457135 *  0.345374 *  -2.87073    1.000000    
    255 O3    s    0.551820 *  0.246076 *  0.674962 *  -3.33043    1.000000    
    256 O2    s    0.220593 *  0.682714 *  0.510565 *  -2.87073    1.000000    
    257 O2    s    0.302813 *  0.531178 *  0.841154 *  -2.87073    1.000000    
    258 O2    s    0.461355 *  0.774512 *  0.177990 *  -2.87073    1.000000    
    259 O2    s    0.300840 *  0.763916 *  0.316335 *  -2.87073    1.000000    
    260 O2    s    0.455559 *  0.691013 *  0.980695 *  -2.87073    1.000000    
    261 O2    s    0.232554 *  0.527654 *  0.649178 *  -2.87073    1.000000    
    262 O2    s    0.681883 *  0.219675 *  0.815660 *  -2.87073    1.000000    
    263 O2    s    0.530329 *  0.309316 *  0.484869 *  -2.87073    1.000000    
    264 O2    s    0.762198 *  0.460363 *  0.147020 *  -2.87073    1.000000    
    265 O3    s    0.776884 *  0.548272 *  0.023029 *  -3.33043    1.000000    
    266 O2    s    0.465079 *  0.249415 *  0.362752 *  -2.87073    1.000000    
    267 O2    s    0.740709 *  0.213202 *  0.695215 *  -2.87073    1.000000    
    268 O2    s    0.207293 *  0.460933 *  0.526945 *  -2.87073    1.000000    
    269 O2    s    0.523599 *  0.741902 *  0.858967 *  -2.87073    1.000000    
    270 O2    s    0.251273 *  0.783272 *  0.194418 *  -2.87073    1.000000    
    271 O2    s    0.522282 *  0.778625 *  0.300990 *  -2.87073    1.000000    
    272 O2    s    0.247888 *  0.468685 *  0.964366 *  -2.87073    1.000000    
    273 O2    s    0.221843 *  0.738517 *  0.633467 *  -2.87073    1.000000    
    274 O2    s    0.463143 *  0.206426 *  0.798582 *  -2.87073    1.000000    
    275 O2    s    0.739109 *  0.530349 *  0.468095 *  -2.87073    1.000000    
    276 O2    s    0.779943 *  0.256487 *  0.130087 *  -2.87073    1.000000    
    277 O2    s    0.231412 *  0.333723 *  0.894516 *  -2.87073    1.000000    
    278 O2    s    0.661480 *  0.899669 *  0.232494 *  -2.87073    1.000000    
    279 O2    s    0.101755 *  0.760577 *  0.564101 *  -2.87073    1.000000    
    280 O2    s    0.755428 *  0.659980 *  0.395953 *  -2.87073    1.000000    
    281 O3    s    0.311669 *  0.089394 *  0.732596 *  -3.33043    1.000000    
    282 O2    s    0.894223 *  0.239869 *  0.059084 *  -2.87073    1.000000    
    283 O2    s    0.329012 *  0.236128 *  0.431933 *  -2.87073    1.000000    
    284 O2    s    0.891662 *  0.659985 *  0.095954 *  -2.87073    1.000000    
    285 O2    s    0.752924 *  0.094635 *  0.764335 *  -2.87073    1.000000    
    286 O2    s    0.658173 *  0.757556 *  0.930069 *  -2.87073    1.000000    
    287 O2    s    0.092367 *  0.328107 *  0.598609 *  -2.87073    1.000000    
    288 O2    s    0.234309 *  0.898833 *  0.266158 *  -2.87073    1.000000    
    289 O2    s    0.572088 *  0.561450 *  0.984400 *  -2.87073    1.000000    
    290 O2    s    0.435085 *  0.010842 *  0.320925 *  -2.87073    1.000000    
    291 O2    s    0.987421 *  0.419906 *  0.652992 *  -2.87073    1.000000    
    292 O2    s    0.413601 *  0.437305 *  0.483390 *  -2.87073    1.000000    
    293 O2    s    0.551119 *  0.977591 *  0.813228 *  -2.87073    1.000000    
    294 O2    s    0.009032 *  0.574221 *  0.145507 *  -2.87073    1.000000    
    295 O2    s    0.553244 *  0.571845 *  0.341785 *  -2.87073    1.000000    
    296 O2    s    0.004015 *  0.438978 *  0.006338 *  -2.87073    1.000000    
    297 O3    s    0.416374 *  0.961759 *  0.670320 *  -3.33043    1.000000    
    298 O2    s    0.432391 *  0.412891 *  0.843351 *  -2.87073    1.000000    
    299 O2    s    0.974055 *  0.557807 *  0.512601 *  -2.87073    1.000000    
    300 O2    s    0.584355 *  0.022674 *  0.180847 *  -2.87073    1.000000    
    301 O2    s    0.575003 *  0.147077 *  0.252776 *  -2.87073    1.000000    
    302 O2    s    0.851161 *  0.424826 *  0.583841 *  -2.87073    1.000000    
    303 O2    s    0.573203 *  0.426825 *  0.914635 *  -2.87073    1.000000    
    304 O2    s    0.416900 *  0.845917 *  0.743642 *  -2.87073    1.000000    
    305 O2    s    0.137655 *  0.572501 *  0.076498 *  -2.87073    1.000000    
    306 O2    s    0.417307 *  0.568837 *  0.411572 *  -2.87073    1.000000    
    307 F     s    0.444752 *  0.895471 *  0.247681 *  -1.56000    1.000000    
    308 F     s    0.102035 *  0.544182 *  0.580935 *  -1.56000    1.000000    
    309 F     s    0.440365 *  0.552686 *  0.910913 *  -1.56000    1.000000    
    310 F     s    0.510115 *  0.096300 *  0.732571 *  -1.56000    1.000000    
    311 F     s    0.838963 *  0.429248 *  0.066908 *  -1.56000    1.000000    
    312 F     s    0.546000 *  0.446751 *  0.412419 *  -1.56000    1.000000    
--------------------------------------------------------------------------------



********************************************************************************
*  General input information                                                   *
********************************************************************************

  Species output for all configurations : 

--------------------------------------------------------------------------------
  Species    Type    Atomic    Atomic    Charge       Radii (Angs)     Library
                     Number     Mass       (e)     Cova   Ionic  VDW   Symbol
--------------------------------------------------------------------------------
    Si       Core       14      28.09   4.000000   1.200  0.000  2.100          
    O1       Core        8      16.00   1.733957   0.730  0.000  1.360          
    O1       Shell       8       0.00  -3.733957   0.730  0.000  1.360          
    O2       Core        8      16.00   0.870733   0.730  0.000  1.360          
    O2       Shell       8       0.00  -2.870733   0.730  0.000  1.360          
    O3       Core        8      16.00   1.330431   0.730  0.000  1.360          
    O3       Shell       8       0.00  -3.330431   0.730  0.000  1.360          
    F        Core        9      19.00   0.560000   0.710  0.000  1.300          
    F        Shell       9       0.00  -1.560000   0.710  0.000  1.300          
    Ge       Core       32      72.61   4.000000   1.170  0.000  1.750          
--------------------------------------------------------------------------------


  Lattice summation method               =    Ewald          (3-D)
                                         =    Parry          (2-D)
                                         =    Saunders et al (1-D)
  Accuracy factor for lattice sums       =   12.000


  Time limit = Infinity

  Maximum range for interatomic potentials =        16.000000 Angstroms

  Taper potentials to zero over   1.0000 Angstroms using polynomial

  General interatomic potentials :

--------------------------------------------------------------------------------
Atom  Types   Potential         A         B         C         D     Cutoffs(Ang)
  1     2                                                            Min    Max 
--------------------------------------------------------------------------------
Si   c O1   s Buckingham    0.132E+04 0.318      10.1      0.00     0.000 16.000
Si   c O2   s Buckingham    0.132E+04 0.318      10.1      0.00     0.000 16.000
Si   c O3   s Buckingham    0.132E+04 0.318      10.1      0.00     0.000 16.000
Ge   c O1   s Buckingham    0.150E+04 0.326      16.8      0.00     0.000 16.000
Ge   c O2   s Buckingham    0.150E+04 0.326      16.8      0.00     0.000 16.000
Ge   c O3   s Buckingham    0.150E+04 0.326      16.8      0.00     0.000 16.000
O1   s O1   s Buckingham    0.228E+05 0.149      10.9      0.00     0.000 16.000
O1   s O2   s Buckingham    0.228E+05 0.149      10.9      0.00     0.000 16.000
O1   s O3   s Buckingham    0.228E+05 0.149      10.9      0.00     0.000 16.000
O2   s O2   s Buckingham    0.228E+05 0.149      10.9      0.00     0.000 16.000
O2   s O3   s Buckingham    0.228E+05 0.149      10.9      0.00     0.000 16.000
O3   s O3   s Buckingham    0.228E+05 0.149      10.9      0.00     0.000 16.000
Si   c F    s Buckingham     977.     0.282      0.00      0.00     0.000 16.000
Ge   c F    s Buckingham     681.     0.320      0.00      0.00     0.000 16.000
F    s F    s Buckingham     540.     0.262      0.00      0.00     0.000 16.000
O1   s F    s Buckingham    0.168E+04 0.268      0.00      0.00     0.000 16.000
O2   s F    s Buckingham    0.168E+04 0.268      0.00      0.00     0.000 16.000
O3   s F    s Buckingham    0.168E+04 0.268      0.00      0.00     0.000 16.000
O2   c O2   s Spring (c-s)   76.0      0.00      0.00      0.00     0.000  0.800
O3   c O3   s Spring (c-s)   128.      0.00      0.00      0.00     0.000  0.800
O1   c O1   s Spring (c-s)   180.      0.00      0.00      0.00     0.000  0.800
F    c F    s Spring (c-s)   33.5      0.00      0.00      0.00     0.000  0.800
--------------------------------------------------------------------------------

  General Three-body potentials :

  Harmonic form:

--------------------------------------------------------------------------------
Atom    Atom    Atom           Force Constants            Theta     Cutoffs  
  1       2       3     (eVrad**-2/eVrad**-3/eVrad**-4)   (deg)  1-2  1-3  2-3
--------------------------------------------------------------------------------
Si    c O1    s O1    s  1.261        0.0000    0.0000   109.470 0.00 0.00 0.00
                                                                 1.90 1.90 3.50
Si    c O1    s O2    s  1.261        0.0000    0.0000   109.470 0.00 0.00 0.00
                                                                 1.90 1.90 3.50
Si    c O2    s O2    s  1.261        0.0000    0.0000   109.470 0.00 0.00 0.00
                                                                 1.90 1.90 3.50
--------------------------------------------------------------------------------

********************************************************************************
*  Output for configuration   1                                                *
********************************************************************************


  Components of energy : 

--------------------------------------------------------------------------------
  Interatomic potentials     =        2063.73608350 eV
  Three-body potentials      =           0.49679712 eV
  Monopole - monopole (real) =       -6612.44323802 eV
  Monopole - monopole (recip)=       -3171.98611290 eV
  Monopole - monopole (total)=       -9784.42935092 eV
  Neutralising energy        =          -6.46133797 eV
--------------------------------------------------------------------------------
  Total lattice energy       =       -7726.65780827 eV
--------------------------------------------------------------------------------
  Total lattice energy       =         -745504.3657 kJ/(mole unit cells)
--------------------------------------------------------------------------------


  Number of variables =      939

  Maximum number of calculations  =          5000
  Maximum Hessian update interval =            10
  Maximum step size               =   0.100000000
  Maximum parameter tolerance     =   0.000010000
  Maximum function  tolerance     =   0.000010000
  Maximum gradient  tolerance     =   0.001000000
  Maximum gradient  component     =   0.010000000

  Symmetry not applied to optimisation

  Cell parameters to be optimised using strains

  Newton-Raphson optimiser to be used

  BFGS hessian update to be used

  Dumpfile to be written after every cycle

  Start of bulk optimisation :

  Cycle:      0 Energy:     -7726.657808  Gnorm:      0.000391  CPU:    2.041
  ** Hessian calculated **
  Cycle:      1 Energy:     -7726.669862  Gnorm:      0.000347  CPU:    6.585
  Cycle:      2 Energy:     -7726.683813  Gnorm:      0.000429  CPU:   10.752
  Cycle:      3 Energy:     -7726.698023  Gnorm:      0.000791  CPU:   14.920
  Cycle:      4 Energy:     -7726.703574  Gnorm:      0.000789  CPU:   19.088
  Cycle:      5 Energy:     -7726.704934  Gnorm:      0.000512  CPU:   23.256
  Cycle:      6 Energy:     -7726.705274  Gnorm:      0.000290  CPU:   27.424
  Cycle:      7 Energy:     -7726.705359  Gnorm:      0.000154  CPU:   31.592
  Cycle:      8 Energy:     -7726.705374  Gnorm:      0.000109  CPU:   34.409
  Cycle:      9 Energy:     -7726.705381  Gnorm:      0.000077  CPU:   37.226
  Cycle:     10 Energy:     -7726.705384  Gnorm:      0.000054  CPU:   40.042
  ** Hessian calculated **


  **** Optimisation achieved ****


  Final energy =   -7726.70538423 eV
  Final Gnorm  =       0.00002866

  Components of energy : 

--------------------------------------------------------------------------------
  Interatomic potentials     =        2063.87588920 eV
  Three-body potentials      =           0.48921514 eV
  Monopole - monopole (real) =       -6613.65901298 eV
  Monopole - monopole (recip)=       -3170.95224177 eV
  Monopole - monopole (total)=       -9784.61125475 eV
  Neutralising energy        =          -6.45923383 eV
--------------------------------------------------------------------------------
  Total lattice energy       =       -7726.70538423 eV
--------------------------------------------------------------------------------
  Total lattice energy       =         -745508.9561 kJ/(mole unit cells)
--------------------------------------------------------------------------------

  Final fractional coordinates of atoms :

--------------------------------------------------------------------------------
   No.  Atomic        x           y          z          Radius
        Label       (Frac)      (Frac)     (Frac)       (Angs) 
--------------------------------------------------------------------------------
     1  Ge    c     0.699600    0.375700    0.033890    0.000000
     2  Si    c     0.601615    0.301707    0.366331    0.000000
     3  Si    c     0.667013    0.293519    0.695643    0.000000
     4  Si    c     0.278841    0.597028    0.528858    0.000000
     5  Si    c     0.358079    0.659310    0.860971    0.000000
     6  Si    c     0.305255    0.685707    0.196329    0.000000
     7  Si    c     0.354079    0.676535    0.297570    0.000000
     8  Si    c     0.304143    0.608038    0.961554    0.000000
     9  Si    c     0.288776    0.652475    0.629568    0.000000
    10  Si    c     0.600875    0.283429    0.797741    0.000000
    11  Si    c     0.657012    0.360761    0.467009    0.000000
    12  Si    c     0.670486    0.301712    0.131682    0.000000
    13  Si    c     0.517014    0.405775    0.965997    0.000000
    14  Si    c     0.562787    0.088954    0.303088    0.000000
    15  Si    c     0.885171    0.460670    0.633694    0.000000
    16  Si    c     0.448660    0.560120    0.463309    0.000000
    17  Si    c     0.392766    0.867033    0.794890    0.000000
    18  Si    c     0.094765    0.516831    0.128794    0.000000
    19  Si    c     0.394666    0.503602    0.361464    0.000000
    20  Si    c     0.092394    0.572503    0.025609    0.000000
    21  Si    c     0.452963    0.866203    0.691981    0.000000
    22  Si    c     0.563320    0.454895    0.863034    0.000000
    23  Si    c     0.870721    0.400365    0.532320    0.000000
    24  Si    c     0.516351    0.095860    0.200990    0.000000
    25  Si    c     0.281787    0.383085    0.847280    0.000000
    26  Si    c     0.585135    0.887441    0.185161    0.000000
    27  Si    c     0.080365    0.679016    0.516898    0.000000
    28  Si    c     0.675993    0.576007    0.348922    0.000000
    29  Ge    c     0.396587    0.081998    0.687046    0.000000
    30  Si    c     0.879936    0.285915    0.009267    0.000000
    31  Si    c     0.376438    0.280815    0.479808    0.000000
    32  Si    c     0.878750    0.584814    0.144027    0.000000
    33  Si    c     0.678691    0.080265    0.811856    0.000000
    34  Si    c     0.583433    0.685972    0.977106    0.000000
    35  Si    c     0.086903    0.378221    0.645986    0.000000
    36  Si    c     0.279217    0.878083    0.313641    0.000000
    37  Si    c     0.236411    0.329488    0.948155    0.000000
    38  Si    c     0.636888    0.886693    0.286635    0.000000
    39  Si    c     0.087235    0.737677    0.617820    0.000000
    40  Si    c     0.728852    0.639684    0.449632    0.000000
    41  Si    c     0.312413    0.069729    0.782584    0.000000
    42  Si    c     0.888203    0.237318    0.112442    0.000000
    43  Si    c     0.319591    0.227653    0.378549    0.000000
    44  Si    c     0.892453    0.657303    0.042047    0.000000
    45  Si    c     0.734496    0.076128    0.710163    0.000000
    46  Si    c     0.639138    0.732291    0.876321    0.000000
    47  Si    c     0.069574    0.318173    0.545012    0.000000
    48  Si    c     0.236670    0.893802    0.212350    0.000000
    49  Si    c     0.958343    0.110654    0.962601    0.000000
    50  Si    c     0.854286    0.825110    0.300451    0.000000
    51  Si    c     0.144946    0.016971    0.633123    0.000000
    52  Si    c     0.010026    0.857844    0.466024    0.000000
    53  Si    c     0.100781    0.132971    0.798362    0.000000
    54  Si    c     0.829748    0.961388    0.130850    0.000000
    55  Si    c     0.102453    0.947233    0.364912    0.000000
    56  Si    c     0.832044    0.872964    0.029226    0.000000
    57  Si    c     0.013984    0.129905    0.695938    0.000000
    58  Si    c     0.857608    0.010048    0.862717    0.000000
    59  Si    c     0.130118    0.100537    0.531443    0.000000
    60  Ge    c     0.953111    0.835628    0.196863    0.000000
    61  O2    c     0.913388    0.996969    0.998559    0.000000
    62  O2    c     0.977765    0.903003    0.333099    0.000000
    63  O2    c     0.050843    0.046812    0.663788    0.000000
    64  O2    c     0.050117    0.978598    0.498547    0.000000
    65  O2    c     0.976838    0.055370    0.829611    0.000000
    66  O3    c     0.919288    0.929018    0.161541    0.000000
    67  O2    c     0.316074    0.551009    0.328534    0.000000
    68  O2    c     0.414432    0.737517    0.662289    0.000000
    69  O2    c     0.218481    0.646211    0.993918    0.000000
    70  O2    c     0.638963    0.403958    0.831231    0.000000
    71  O2    c     0.565026    0.223337    0.170401    0.000000
    72  O2    c     0.741297    0.323956    0.500846    0.000000
    73  O3    c     0.563028    0.332508    0.998232    0.000000
    74  O2    c     0.766138    0.420725    0.668025    0.000000
    75  O2    c     0.639557    0.212951    0.335976    0.000000
    76  O2    c     0.398870    0.635967    0.494921    0.000000
    77  O2    c     0.220458    0.565845    0.161614    0.000000
    78  O2    c     0.319329    0.742817    0.827398    0.000000
    79  O2    c     0.112538    0.201077    0.968192    0.000000
    80  O2    c     0.760774    0.884344    0.308383    0.000000
    81  O2    c     0.090912    0.863044    0.638669    0.000000
    82  O2    c     0.854933    0.767244    0.469462    0.000000
    83  O2    c     0.192597    0.072099    0.807634    0.000000
    84  O2    c     0.889497    0.114825    0.134095    0.000000
    85  O2    c     0.194021    0.100211    0.358093    0.000000
    86  O2    c     0.907467    0.793600    0.026308    0.000000
    87  O2    c     0.859723    0.075429    0.690628    0.000000
    88  O2    c     0.766366    0.857088    0.856257    0.000000
    89  O2    c     0.065833    0.190541    0.525156    0.000000
    90  O3    c     0.116658    0.900172    0.190643    0.000000
    91  O3    c     0.905794    0.849412    0.249929    0.000000
    92  O2    c     0.119588    0.048190    0.581722    0.000000
    93  O2    c     0.914320    0.047271    0.913263    0.000000
    94  O2    c     0.048419    0.114028    0.747284    0.000000
    95  O2    c     0.832163    0.918829    0.079918    0.000000
    96  O2    c     0.054399    0.911842    0.415852    0.000000
    97  O2    c     0.891854    0.196046    0.971269    0.000000
    98  O2    c     0.774088    0.672325    0.310382    0.000000
    99  O3    c     0.291910    0.092838    0.645001    0.000000
   100  O2    c     0.078500    0.775411    0.478482    0.000000
   101  O2    c     0.181846    0.285122    0.809072    0.000000
   102  O2    c     0.681050    0.887061    0.146867    0.000000
   103  O2    c     0.181691    0.875661    0.351964    0.000000
   104  O2    c     0.681901    0.786747    0.014967    0.000000
   105  O2    c     0.088594    0.281398    0.684197    0.000000
   106  O2    c     0.772765    0.078060    0.851490    0.000000
   107  O2    c     0.281297    0.184564    0.518303    0.000000
   108  O3    c     0.877776    0.674419    0.183882    0.000000
   109  O2    c     0.301030    0.623552    0.246072    0.000000
   110  O2    c     0.342686    0.653565    0.578838    0.000000
   111  O2    c     0.299697    0.661599    0.910784    0.000000
   112  O2    c     0.657692    0.337921    0.747700    0.000000
   113  O3    c     0.605227    0.294999    0.083786    0.000000
   114  O2    c     0.659483    0.304028    0.416941    0.000000
   115  O2    c     0.359006    0.320839    0.966412    0.000000
   116  O2    c     0.648199    0.018255    0.305545    0.000000
   117  O2    c     0.954680    0.615593    0.635821    0.000000
   118  O2    c     0.605272    0.648967    0.466504    0.000000
   119  O2    c     0.306908    0.936621    0.798163    0.000000
   120  O2    c     0.021758    0.361662    0.129639    0.000000
   121  O2    c     0.307943    0.347650    0.358643    0.000000
   122  O2    c     0.023460    0.659149    0.025193    0.000000
   123  O2    c     0.610895    0.943877    0.692786    0.000000
   124  O2    c     0.648538    0.610378    0.858081    0.000000
   125  O2    c     0.936746    0.311140    0.527578    0.000000
   126  O2    c     0.360534    0.026299    0.195829    0.000000
   127  O3    c     0.747601    0.281369    0.000723    0.000000
   128  O2    c     0.676278    0.442312    0.342133    0.000000
   129  O3    c     0.530524    0.232809    0.670773    0.000000
   130  O2    c     0.210489    0.673268    0.507321    0.000000
   131  O2    c     0.283469    0.516911    0.838028    0.000000
   132  O2    c     0.449485    0.755804    0.175066    0.000000
   133  O2    c     0.277817    0.743243    0.319486    0.000000
   134  O2    c     0.448757    0.686415    0.983846    0.000000
   135  O2    c     0.223545    0.510458    0.652224    0.000000
   136  O2    c     0.674539    0.211138    0.818144    0.000000
   137  O2    c     0.512614    0.284672    0.487954    0.000000
   138  O2    c     0.745927    0.450516    0.149872    0.000000
   139  O3    c     0.765385    0.544371    0.020340    0.000000
   140  O2    c     0.445119    0.225690    0.360016    0.000000
   141  O2    c     0.730551    0.200644    0.692680    0.000000
   142  O2    c     0.195549    0.441381    0.524368    0.000000
   143  O2    c     0.514898    0.736792    0.856280    0.000000
   144  O2    c     0.229771    0.765816    0.191697    0.000000
   145  O2    c     0.509773    0.760045    0.304246    0.000000
   146  O2    c     0.231744    0.452972    0.967552    0.000000
   147  O2    c     0.210279    0.728917    0.636114    0.000000
   148  O2    c     0.445675    0.194359    0.800701    0.000000
   149  O2    c     0.729613    0.516224    0.470685    0.000000
   150  O2    c     0.764883    0.239959    0.131777    0.000000
   151  O2    c     0.211707    0.311323    0.893825    0.000000
   152  O2    c     0.656614    0.886274    0.232195    0.000000
   153  O2    c     0.085171    0.753254    0.563177    0.000000
   154  O2    c     0.747480    0.653398    0.395117    0.000000
   155  O3    c     0.286694    0.073646    0.729924    0.000000
   156  O2    c     0.886200    0.223093    0.058000    0.000000
   157  O2    c     0.302386    0.210506    0.432908    0.000000
   158  O2    c     0.886699    0.661189    0.097659    0.000000
   159  O2    c     0.745945    0.078477    0.765026    0.000000
   160  O2    c     0.658284    0.753605    0.930663    0.000000
   161  O2    c     0.075125    0.301715    0.599394    0.000000
   162  O2    c     0.210448    0.885640    0.266656    0.000000
   163  O2    c     0.567344    0.548093    0.987415    0.000000
   164  O2    c     0.419610    0.001492    0.323887    0.000000
   165  O2    c     0.966098    0.398637    0.656235    0.000000
   166  O2    c     0.392163    0.420606    0.486971    0.000000
   167  O2    c     0.535940    0.958834    0.816156    0.000000
   168  O2    c     0.002161    0.565100    0.149319    0.000000
   169  O2    c     0.535889    0.560928    0.338478    0.000000
   170  O2    c     0.001270    0.431765    0.004053    0.000000
   171  O3    c     0.393981    0.942354    0.666367    0.000000
   172  O2    c     0.420764    0.394660    0.839573    0.000000
   173  O2    c     0.951843    0.540963    0.509098    0.000000
   174  O2    c     0.576859    0.016007    0.177534    0.000000
   175  O2    c     0.566119    0.145137    0.252469    0.000000
   176  O2    c     0.823316    0.402256    0.583717    0.000000
   177  O2    c     0.568018    0.408909    0.914309    0.000000
   178  O2    c     0.397147    0.820725    0.743630    0.000000
   179  O2    c     0.139074    0.566926    0.077449    0.000000
   180  O2    c     0.394699    0.557768    0.411980    0.000000
   181  F     c     0.430560    0.882165    0.247804    0.000000
   182  F     c     0.084483    0.527488    0.580794    0.000000
   183  F     c     0.430716    0.538412    0.910886    0.000000
   184  F     c     0.501266    0.079407    0.735579    0.000000
   185  F     c     0.846270    0.428810    0.069922    0.000000
   186  F     c     0.527854    0.430020    0.412701    0.000000
   187  O2    s     0.909213    0.995768    0.997958    0.000000
   188  O2    s     0.978027    0.899253    0.333042    0.000000
   189  O2    s     0.056326    0.053100    0.664264    0.000000
   190  O2    s     0.054389    0.978398    0.498492    0.000000
   191  O2    s     0.977043    0.058912    0.829914    0.000000
   192  O3    s     0.912553    0.924513    0.161269    0.000000
   193  O2    s     0.327892    0.559177    0.328643    0.000000
   194  O2    s     0.405722    0.741868    0.661981    0.000000
   195  O2    s     0.213805    0.634701    0.994007    0.000000
   196  O2    s     0.627339    0.396488    0.830934    0.000000
   197  O2    s     0.570964    0.218143    0.169547    0.000000
   198  O2    s     0.745798    0.335665    0.500538    0.000000
   199  O3    s     0.567581    0.343641    0.997207    0.000000
   200  O2    s     0.767973    0.411377    0.667411    0.000000
   201  O2    s     0.627689    0.208979    0.335618    0.000000
   202  O2    s     0.391748    0.624041    0.495110    0.000000
   203  O2    s     0.215680    0.572626    0.161626    0.000000
   204  O2    s     0.330963    0.747355    0.827406    0.000000
   205  O2    s     0.108444    0.204363    0.965571    0.000000
   206  O2    s     0.757558    0.878373    0.305297    0.000000
   207  O2    s     0.095841    0.864828    0.635910    0.000000
   208  O2    s     0.858224    0.763557    0.467054    0.000000
   209  O2    s     0.194960    0.078252    0.804211    0.000000
   210  O2    s     0.883021    0.111693    0.131447    0.000000
   211  O2    s     0.197250    0.097125    0.360891    0.000000
   212  O2    s     0.897935    0.788084    0.028222    0.000000
   213  O2    s     0.862401    0.081176    0.693234    0.000000
   214  O2    s     0.763098    0.860706    0.858981    0.000000
   215  O2    s     0.072886    0.194302    0.527818    0.000000
   216  O3    s     0.114967    0.894121    0.193326    0.000000
   217  O3    s     0.904504    0.845583    0.250610    0.000000
   218  O2    s     0.123456    0.050963    0.581293    0.000000
   219  O2    s     0.912853    0.050200    0.913091    0.000000
   220  O2    s     0.050495    0.117994    0.747330    0.000000
   221  O2    s     0.831884    0.918488    0.079967    0.000000
   222  O2    s     0.054913    0.909817    0.415644    0.000000
   223  O2    s     0.897856    0.196280    0.974336    0.000000
   224  O2    s     0.772690    0.678625    0.313161    0.000000
   225  O3    s     0.282143    0.083539    0.646400    0.000000
   226  O2    s     0.071337    0.774366    0.481083    0.000000
   227  O2    s     0.183507    0.279064    0.811854    0.000000
   228  O2    s     0.686841    0.894951    0.149161    0.000000
   229  O2    s     0.183438    0.883413    0.349364    0.000000
   230  O2    s     0.687996    0.785708    0.012611    0.000000
   231  O2    s     0.080575    0.275412    0.681502    0.000000
   232  O2    s     0.771675    0.071251    0.848502    0.000000
   233  O2    s     0.275425    0.185835    0.515649    0.000000
   234  O3    s     0.884049    0.678753    0.180994    0.000000
   235  O2    s     0.306777    0.635219    0.246148    0.000000
   236  O2    s     0.330648    0.647668    0.578926    0.000000
   237  O2    s     0.305985    0.655945    0.910925    0.000000
   238  O2    s     0.652633    0.327910    0.747891    0.000000
   239  O3    s     0.618035    0.300808    0.085636    0.000000
   240  O2    s     0.653253    0.309593    0.416796    0.000000
   241  O2    s     0.361238    0.330266    0.964344    0.000000
   242  O2    s     0.638184    0.011733    0.303291    0.000000
   243  O2    s     0.961195    0.611965    0.633694    0.000000
   244  O2    s     0.602113    0.638843    0.464388    0.000000
   245  O2    s     0.316389    0.942734    0.796246    0.000000
   246  O2    s     0.015605    0.365086    0.127763    0.000000
   247  O2    s     0.318020    0.351192    0.360993    0.000000
   248  O2    s     0.017700    0.649958    0.026912    0.000000
   249  O2    s     0.608231    0.950233    0.694582    0.000000
   250  O2    s     0.638825    0.607259    0.860503    0.000000
   251  O2    s     0.943860    0.321010    0.529889    0.000000
   252  O2    s     0.363845    0.019548    0.198144    0.000000
   253  O3    s     0.758800    0.288060    0.003882    0.000000
   254  O2    s     0.668679    0.441951    0.345316    0.000000
   255  O3    s     0.535512    0.228684    0.674545    0.000000
   256  O2    s     0.203798    0.666020    0.510575    0.000000
   257  O2    s     0.290988    0.517591    0.841392    0.000000
   258  O2    s     0.448633    0.762199    0.178345    0.000000
   259  O2    s     0.285776    0.750408    0.316590    0.000000
   260  O2    s     0.447713    0.678336    0.980835    0.000000
   261  O2    s     0.215820    0.511096    0.649193    0.000000
   262  O2    s     0.667463    0.204532    0.815375    0.000000
   263  O2    s     0.513232    0.292150    0.484887    0.000000
   264  O2    s     0.752765    0.450266    0.147398    0.000000
   265  O3    s     0.775104    0.545797    0.023535    0.000000
   266  O2    s     0.447850    0.233878    0.362627    0.000000
   267  O2    s     0.724572    0.196003    0.694880    0.000000
   268  O2    s     0.190597    0.444338    0.527019    0.000000
   269  O2    s     0.512100    0.728289    0.858889    0.000000
   270  O2    s     0.238450    0.770921    0.194336    0.000000
   271  O2    s     0.507202    0.765160    0.301641    0.000000
   272  O2    s     0.239765    0.456020    0.964924    0.000000
   273  O2    s     0.205005    0.721743    0.633490    0.000000
   274  O2    s     0.448694    0.191049    0.798526    0.000000
   275  O2    s     0.721821    0.513360    0.468029    0.000000
   276  O2    s     0.769138    0.246018    0.129602    0.000000
   277  O2    s     0.221643    0.320790    0.894677    0.000000
   278  O2    s     0.647082    0.886408    0.232925    0.000000
   279  O2    s     0.084882    0.743741    0.564010    0.000000
   280  O2    s     0.738026    0.643847    0.396008    0.000000
   281  O3    s     0.296669    0.073745    0.732647    0.000000
   282  O2    s     0.885799    0.230847    0.059040    0.000000
   283  O2    s     0.311971    0.219699    0.432003    0.000000
   284  O2    s     0.886446    0.652862    0.097074    0.000000
   285  O2    s     0.737565    0.078421    0.764291    0.000000
   286  O2    s     0.648411    0.744267    0.929731    0.000000
   287  O2    s     0.075762    0.311507    0.598517    0.000000
   288  O2    s     0.220158    0.885646    0.265924    0.000000
   289  O2    s     0.563764    0.549038    0.984071    0.000000
   290  O2    s     0.419539    0.997214    0.320587    0.000000
   291  O2    s     0.970786    0.403028    0.652782    0.000000
   292  O2    s     0.396567    0.420119    0.483703    0.000000
   293  O2    s     0.536704    0.962760    0.813436    0.000000
   294  O2    s     0.998863    0.561931    0.146547    0.000000
   295  O2    s     0.536169    0.556414    0.341968    0.000000
   296  O2    s     0.998606    0.432154    0.006922    0.000000
   297  O3    s     0.400417    0.944815    0.670473    0.000000
   298  O2    s     0.420740    0.399833    0.842831    0.000000
   299  O2    s     0.957321    0.541092    0.512362    0.000000
   300  O2    s     0.571333    0.010384    0.180788    0.000000
   301  O2    s     0.560502    0.134076    0.252285    0.000000
   302  O2    s     0.834569    0.408009    0.583502    0.000000
   303  O2    s     0.562479    0.413569    0.913930    0.000000
   304  O2    s     0.402103    0.830079    0.744000    0.000000
   305  O2    s     0.129680    0.562236    0.077581    0.000000
   306  O2    s     0.400271    0.552359    0.412003    0.000000
   307  F     s     0.430149    0.881701    0.247615    0.000000
   308  F     s     0.084930    0.527514    0.580762    0.000000
   309  F     s     0.430196    0.539090    0.910698    0.000000
   310  F     s     0.494435    0.079687    0.732498    0.000000
   311  F     s     0.835337    0.424996    0.067311    0.000000
   312  F     s     0.528152    0.429852    0.412512    0.000000
--------------------------------------------------------------------------------

  Final Cartesian lattice vectors (Angstroms) :

       11.951833    0.005696   -0.001392
       -6.044454   10.407592    0.012965
       -0.403513   -0.144398   29.400591


  Final cell parameters and derivatives :

--------------------------------------------------------------------------------
       a           11.951834 Angstrom     dE/de1(xx)     0.003749 eV/strain
       b           12.035512 Angstrom     dE/de2(yy)     0.002775 eV/strain
       c           29.403714 Angstrom     dE/de3(zz)     0.003981 eV/strain
       alpha       89.786714 Degrees      dE/de4(yz)    -0.000306 eV/strain
       beta        90.793115 Degrees      dE/de5(xz)     0.000400 eV/strain
       gamma      120.119570 Degrees      dE/de6(xy)     0.000217 eV/strain
--------------------------------------------------------------------------------

  Primitive cell volume =          3658.161000 Angs**3

  Density of cell =      1.748991 g/cm**3

  Non-primitive cell volume =          3658.161000 Angs**3


  Final internal derivatives :

--------------------------------------------------------------------------------
   No.  Atomic          a             b             c           Radius
        Label          (eV)          (eV)          (eV)        (eV/Angs)
--------------------------------------------------------------------------------
      1 Ge    c       0.000000      0.000000      0.000000      0.000000
      2 Si    c       0.000018      0.000315      0.000325      0.000000
      3 Si    c       0.000004     -0.000028     -0.000494      0.000000
      4 Si    c      -0.000019      0.000167      0.000070      0.000000
      5 Si    c      -0.000066      0.000247     -0.000333      0.000000
      6 Si    c       0.000324      0.000051      0.000278      0.000000
      7 Si    c       0.000326      0.000256     -0.000302      0.000000
      8 Si    c       0.000388     -0.000014     -0.000712      0.000000
      9 Si    c       0.000010      0.000183      0.000028      0.000000
     10 Si    c       0.000106     -0.000455     -0.000115      0.000000
     11 Si    c       0.000148      0.000083      0.000154      0.000000
     12 Si    c       0.001036     -0.001305      0.008989      0.000000
     13 Si    c      -0.003871      0.003389     -0.008802      0.000000
     14 Si    c      -0.000022     -0.000013     -0.000161      0.000000
     15 Si    c       0.000068     -0.000105     -0.000070      0.000000
     16 Si    c       0.000171      0.000090     -0.000218      0.000000
     17 Si    c       0.000072      0.000275      0.000253      0.000000
     18 Si    c      -0.000085      0.000576      0.001078      0.000000
     19 Si    c       0.000185      0.000233      0.000160      0.000000
     20 Si    c      -0.000926      0.000090      0.000953      0.000000
     21 Si    c      -0.000022      0.000201     -0.000093      0.000000
     22 Si    c       0.000191     -0.000047     -0.001181      0.000000
     23 Si    c       0.000076      0.000040     -0.000087      0.000000
     24 Si    c      -0.000293      0.000149     -0.000132      0.000000
     25 Si    c      -0.000080      0.000071     -0.001299      0.000000
     26 Si    c       0.000062     -0.000078      0.000371      0.000000
     27 Si    c       0.000098      0.000148     -0.000103      0.000000
     28 Si    c       0.000104      0.000216     -0.000158      0.000000
     29 Ge    c       0.000059      0.000004     -0.000196      0.000000
     30 Si    c       0.001365     -0.000119     -0.000122      0.000000
     31 Si    c       0.000179      0.000051     -0.000090      0.000000
     32 Si    c       0.000822     -0.000006      0.000544      0.000000
     33 Si    c      -0.000065      0.000100      0.000300      0.000000
     34 Si    c       0.000301      0.000001      0.001107      0.000000
     35 Si    c      -0.000052     -0.000023      0.000006      0.000000
     36 Si    c       0.000199      0.000211     -0.000406      0.000000
     37 Si    c      -0.000312      0.000072      0.000462      0.000000
     38 Si    c       0.000112      0.000016     -0.000348      0.000000
     39 Si    c       0.000127     -0.000069     -0.000255      0.000000
     40 Si    c       0.000166      0.000116     -0.000020      0.000000
     41 Si    c       0.000159     -0.000011      0.000138      0.000000
     42 Si    c       0.000035      0.000326      0.000739      0.000000
     43 Si    c       0.000126      0.000121      0.000072      0.000000
     44 Si    c      -0.000021     -0.001442     -0.003841      0.000000
     45 Si    c      -0.000025      0.000045      0.000032      0.000000
     46 Si    c       0.000034      0.000341     -0.000826      0.000000
     47 Si    c      -0.000014      0.000110      0.000105      0.000000
     48 Si    c       0.000172      0.000102     -0.000191      0.000000
     49 Si    c       0.000208     -0.000572      0.000049      0.000000
     50 Si    c       0.000098      0.000131      0.000370      0.000000
     51 Si    c       0.000196      0.000008     -0.000100      0.000000
     52 Si    c       0.000191     -0.000015     -0.000147      0.000000
     53 Si    c       0.000206      0.000133      0.000263      0.000000
     54 Si    c       0.000228     -0.000230      0.000817      0.000000
     55 Si    c       0.000079      0.000191      0.000056      0.000000
     56 Si    c      -0.000110      0.002089      0.000089      0.000000
     57 Si    c      -0.000131      0.000211     -0.000667      0.000000
     58 Si    c       0.000084      0.000428     -0.000149      0.000000
     59 Si    c       0.000125      0.000143      0.000110      0.000000
     60 Ge    c       0.000046      0.000466     -0.000970      0.000000
     61 O2    c       0.000856     -0.000408     -0.000145      0.000000
     62 O2    c       0.000216      0.000147      0.000015      0.000000
     63 O2    c      -0.000002      0.000002      0.000211      0.000000
     64 O2    c       0.000156      0.000122      0.000141      0.000000
     65 O2    c      -0.000091     -0.000083      0.000107      0.000000
     66 O3    c      -0.000057      0.000121     -0.000134      0.000000
     67 O2    c       0.000180      0.000144      0.000095      0.000000
     68 O2    c      -0.000127     -0.000040     -0.000081      0.000000
     69 O2    c       0.000109      0.000607      0.000020      0.000000
     70 O2    c       0.000178      0.000216      0.000314      0.000000
     71 O2    c      -0.000764     -0.000111      0.000931      0.000000
     72 O2    c       0.000085      0.000202     -0.000070      0.000000
     73 O3    c      -0.004598     -0.004249     -0.001558      0.000000
     74 O2    c       0.000044     -0.000075      0.000020      0.000000
     75 O2    c       0.000143      0.000121     -0.000067      0.000000
     76 O2    c       0.000121      0.000066      0.000090      0.000000
     77 O2    c      -0.000065     -0.000150     -0.001022      0.000000
     78 O2    c       0.000003      0.000125     -0.000102      0.000000
     79 O2    c       0.001176      0.000160      0.000398      0.000000
     80 O2    c       0.000014      0.000231     -0.000206      0.000000
     81 O2    c       0.000019     -0.000030     -0.000048      0.000000
     82 O2    c       0.000194      0.000055     -0.000117      0.000000
     83 O2    c       0.000076      0.000074     -0.000147      0.000000
     84 O2    c       0.000135     -0.000192      0.000142      0.000000
     85 O2    c       0.000154      0.000196      0.000067      0.000000
     86 O2    c       0.003337     -0.003174     -0.001037      0.000000
     87 O2    c       0.000010      0.000015      0.000188      0.000000
     88 O2    c       0.000112     -0.000101     -0.000126      0.000000
     89 O2    c       0.000183      0.000051      0.000121      0.000000
     90 O3    c       0.000315     -0.000018      0.000346      0.000000
     91 O3    c       0.000075      0.000056      0.000866      0.000000
     92 O2    c       0.000097      0.000113      0.000034      0.000000
     93 O2    c      -0.000060     -0.000326     -0.003318      0.000000
     94 O2    c       0.000093      0.000008      0.000772      0.000000
     95 O2    c       0.000139      0.000566      0.006299      0.000000
     96 O2    c       0.000158      0.000065      0.000086      0.000000
     97 O2    c      -0.001310      0.001183     -0.000964      0.000000
     98 O2    c       0.000057      0.000044      0.000157      0.000000
     99 O3    c       0.000025     -0.000068      0.000241      0.000000
    100 O2    c       0.000041      0.000080      0.000278      0.000000
    101 O2    c       0.000035      0.000212      0.000078      0.000000
    102 O2    c       0.000166      0.000127     -0.000066      0.000000
    103 O2    c       0.000232      0.000109     -0.000071      0.000000
    104 O2    c      -0.003096     -0.000071     -0.001141      0.000000
    105 O2    c      -0.000063      0.000123     -0.000144      0.000000
    106 O2    c      -0.000082      0.000221     -0.000199      0.000000
    107 O2    c       0.000101      0.000143     -0.000098      0.000000
    108 O3    c      -0.000208      0.000224      0.000352      0.000000
    109 O2    c       0.000081      0.000200      0.000122      0.000000
    110 O2    c      -0.000032      0.000036      0.000116      0.000000
    111 O2    c      -0.000110      0.000267      0.000107      0.000000
    112 O2    c       0.000085      0.000083     -0.000298      0.000000
    113 O3    c      -0.003792     -0.002320     -0.004000      0.000000
    114 O2    c       0.000060      0.000167     -0.000228      0.000000
    115 O2    c      -0.000328     -0.000452      0.001062      0.000000
    116 O2    c       0.000081      0.000229     -0.000010      0.000000
    117 O2    c       0.000074     -0.000009     -0.000098      0.000000
    118 O2    c       0.000117      0.000057     -0.000081      0.000000
    119 O2    c       0.000069      0.000124     -0.000182      0.000000
    120 O2    c       0.000167      0.000248     -0.000098      0.000000
    121 O2    c       0.000172      0.000050      0.000118      0.000000
    122 O2    c      -0.000001      0.000528      0.000320      0.000000
    123 O2    c      -0.000037      0.000067      0.000139      0.000000
    124 O2    c       0.000203     -0.000044     -0.000036      0.000000
    125 O2    c       0.000175      0.000099      0.000155      0.000000
    126 O2    c       0.000050     -0.000034      0.000064      0.000000
    127 O3    c      -0.001059     -0.000771     -0.000625      0.000000
    128 O2    c       0.000060      0.000213      0.000108      0.000000
    129 O3    c       0.000161     -0.000036      0.000373      0.000000
    130 O2    c       0.000111     -0.000015      0.000254      0.000000
    131 O2    c      -0.000017      0.000212     -0.000096      0.000000
    132 O2    c       0.000117      0.000164      0.000078      0.000000
    133 O2    c       0.000126      0.000261      0.000001      0.000000
    134 O2    c       0.000173      0.000146      0.000336      0.000000
    135 O2    c      -0.000067      0.000048     -0.000016      0.000000
    136 O2    c      -0.000004      0.000157     -0.000060      0.000000
    137 O2    c       0.000087      0.000174     -0.000160      0.000000
    138 O2    c      -0.000321      0.000611     -0.000738      0.000000
    139 O3    c      -0.000736     -0.001501     -0.002818      0.000000
    140 O2    c       0.000188      0.000176      0.000070      0.000000
    141 O2    c      -0.000010      0.000005      0.000173      0.000000
    142 O2    c       0.000054      0.000113      0.000070      0.000000
    143 O2    c       0.000179      0.000086      0.000009      0.000000
    144 O2    c       0.000071      0.000124     -0.000149      0.000000
    145 O2    c       0.000122      0.000182     -0.000040      0.000000
    146 O2    c      -0.000202      0.000311      0.000387      0.000000
    147 O2    c      -0.000046      0.000027     -0.000095      0.000000
    148 O2    c       0.000081      0.000044     -0.000108      0.000000
    149 O2    c       0.000054      0.000175     -0.000136      0.000000
    150 O2    c       0.000232     -0.000064     -0.001208      0.000000
    151 O2    c      -0.000145      0.000028      0.000357      0.000000
    152 O2    c       0.000059      0.000182     -0.000048      0.000000
    153 O2    c       0.000071     -0.000043      0.000277      0.000000
    154 O2    c       0.000108      0.000103      0.000043      0.000000
    155 O3    c       0.000080     -0.000056      0.000632      0.000000
    156 O2    c      -0.000426      0.000324      0.000472      0.000000
    157 O2    c       0.000155      0.000195     -0.000042      0.000000
    158 O2    c       0.000334      0.000746      0.000819      0.000000
    159 O2    c       0.000053      0.000048     -0.000249      0.000000
    160 O2    c       0.000322      0.000222      0.000149      0.000000
    161 O2    c       0.000008      0.000120     -0.000218      0.000000
    162 O2    c       0.000132      0.000046      0.000223      0.000000
    163 O2    c       0.001063      0.000041      0.002062      0.000000
    164 O2    c       0.000194      0.000139     -0.000142      0.000000
    165 O2    c      -0.000032      0.000087     -0.000271      0.000000
    166 O2    c       0.000119      0.000236     -0.000130      0.000000
    167 O2    c       0.000063      0.000060     -0.000150      0.000000
    168 O2    c       0.000290      0.000079     -0.000735      0.000000
    169 O2    c       0.000234      0.000105      0.000083      0.000000
    170 O2    c      -0.000173      0.000419      0.000094      0.000000
    171 O3    c       0.000181     -0.000192      0.000362      0.000000
    172 O2    c       0.000292     -0.000026     -0.000062      0.000000
    173 O2    c       0.000097      0.000012      0.000087      0.000000
    174 O2    c       0.000190     -0.000062     -0.000199      0.000000
    175 O2    c       0.000211      0.000019      0.000337      0.000000
    176 O2    c       0.000111      0.000054     -0.000046      0.000000
    177 O2    c       0.000931     -0.000741     -0.001233      0.000000
    178 O2    c       0.000007      0.000037      0.000015      0.000000
    179 O2    c       0.000297      0.000241     -0.000293      0.000000
    180 O2    c       0.000191      0.000106      0.000376      0.000000
    181 F     c       0.000152      0.000156     -0.000198      0.000000
    182 F     c       0.000036      0.000045      0.000039      0.000000
    183 F     c       0.000010      0.000209     -0.000267      0.000000
    184 F     c      -0.000021      0.000066     -0.000083      0.000000
    185 F     c       0.000202      0.000681     -0.000347      0.000000
    186 F     c       0.000141      0.000180     -0.000008      0.000000
    187 O2    s       0.000452      0.001002     -0.000494      0.000000
    188 O2    s       0.000057      0.000335      0.000118      0.000000
    189 O2    s      -0.000082      0.000096     -0.000361      0.000000
    190 O2    s       0.000203      0.000081     -0.000038      0.000000
    191 O2    s       0.000173      0.000065     -0.000040      0.000000
    192 O3    s       0.000075      0.000315      0.000258      0.000000
    193 O2    s       0.000198      0.000229     -0.000153      0.000000
    194 O2    s      -0.000032      0.000124     -0.000112      0.000000
    195 O2    s       0.000096     -0.000142     -0.000663      0.000000
    196 O2    s      -0.000072      0.000278      0.000107      0.000000
    197 O2    s       0.000588     -0.000338      0.002887      0.000000
    198 O2    s       0.000146      0.000091      0.000069      0.000000
    199 O3    s       0.004780      0.003337      0.004490      0.000000
    200 O2    s       0.000050     -0.000079      0.000055      0.000000
    201 O2    s       0.000144      0.000149     -0.000078      0.000000
    202 O2    s       0.000126      0.000097     -0.000104      0.000000
    203 O2    s       0.000238      0.000137      0.000619      0.000000
    204 O2    s       0.000031      0.000165     -0.000269      0.000000
    205 O2    s       0.001247      0.000220     -0.000722      0.000000
    206 O2    s       0.000166      0.000268     -0.000082      0.000000
    207 O2    s       0.000074     -0.000070     -0.000205      0.000000
    208 O2    s       0.000153      0.000134     -0.000040      0.000000
    209 O2    s       0.000159      0.000092     -0.000051      0.000000
    210 O2    s       0.000161     -0.000086      0.000487      0.000000
    211 O2    s       0.000165      0.000188      0.000205      0.000000
    212 O2    s       0.003109     -0.002475     -0.002941      0.000000
    213 O2    s      -0.000092      0.000001     -0.000303      0.000000
    214 O2    s       0.000138     -0.000077      0.000172      0.000000
    215 O2    s       0.000112      0.000108      0.000140      0.000000
    216 O3    s      -0.000009      0.000173      0.000258      0.000000
    217 O3    s       0.000127      0.000429     -0.000077      0.000000
    218 O2    s       0.000094      0.000104     -0.000191      0.000000
    219 O2    s       0.000273     -0.000479     -0.001553      0.000000
    220 O2    s       0.000167      0.000048     -0.000137      0.000000
    221 O2    s      -0.000663      0.002309      0.003534      0.000000
    222 O2    s       0.000126      0.000120      0.000057      0.000000
    223 O2    s      -0.000955      0.001337      0.001735      0.000000
    224 O2    s       0.000163      0.000114      0.000326      0.000000
    225 O3    s       0.000032      0.000030     -0.000305      0.000000
    226 O2    s       0.000134      0.000091     -0.000005      0.000000
    227 O2    s       0.000160      0.000124      0.000055      0.000000
    228 O2    s       0.000068      0.000207      0.000170      0.000000
    229 O2    s       0.000241      0.000114      0.000023      0.000000
    230 O2    s      -0.003078      0.001144     -0.002315      0.000000
    231 O2    s      -0.000051      0.000075     -0.000320      0.000000
    232 O2    s      -0.000076      0.000166     -0.000141      0.000000
    233 O2    s       0.000124      0.000143     -0.000079      0.000000
    234 O3    s       0.000339     -0.000151      0.001295      0.000000
    235 O2    s       0.000209      0.000178     -0.000221      0.000000
    236 O2    s      -0.000014      0.000079      0.000087      0.000000
    237 O2    s       0.000440     -0.000229     -0.000614      0.000000
    238 O2    s       0.000134      0.000008     -0.000326      0.000000
    239 O3    s       0.002206      0.003282     -0.001522      0.000000
    240 O2    s       0.000056      0.000258      0.000119      0.000000
    241 O2    s      -0.001111      0.001485     -0.002230      0.000000
    242 O2    s       0.000214      0.000180      0.000022      0.000000
    243 O2    s       0.000048     -0.000030     -0.000072      0.000000
    244 O2    s       0.000115      0.000178      0.000037      0.000000
    245 O2    s       0.000086      0.000088     -0.000088      0.000000
    246 O2    s       0.000496     -0.000304      0.001047      0.000000
    247 O2    s       0.000264      0.000105      0.000124      0.000000
    248 O2    s      -0.000087      0.000513     -0.001360      0.000000
    249 O2    s       0.000002      0.000054     -0.000064      0.000000
    250 O2    s      -0.000137      0.000041      0.000428      0.000000
    251 O2    s       0.000060      0.000093      0.000106      0.000000
    252 O2    s       0.000240      0.000202      0.000467      0.000000
    253 O3    s       0.000572      0.000906     -0.001044      0.000000
    254 O2    s       0.000113      0.000207      0.000119      0.000000
    255 O3    s       0.000087     -0.000085      0.000023      0.000000
    256 O2    s       0.000054      0.000089      0.000133      0.000000
    257 O2    s       0.000213     -0.000028      0.000089      0.000000
    258 O2    s       0.000144      0.000130      0.000404      0.000000
    259 O2    s       0.000173      0.000174     -0.000050      0.000000
    260 O2    s       0.000747     -0.000469     -0.000488      0.000000
    261 O2    s      -0.000036      0.000057     -0.000274      0.000000
    262 O2    s       0.000087      0.000045     -0.000146      0.000000
    263 O2    s       0.000087      0.000192     -0.000081      0.000000
    264 O2    s      -0.000002     -0.000112      0.001883      0.000000
    265 O3    s       0.000383     -0.001073      0.004428      0.000000
    266 O2    s       0.000083      0.000245      0.000132      0.000000
    267 O2    s      -0.000023      0.000047     -0.000050      0.000000
    268 O2    s       0.000086      0.000088      0.000187      0.000000
    269 O2    s       0.000225     -0.000138      0.000208      0.000000
    270 O2    s       0.000166      0.000272      0.000558      0.000000
    271 O2    s       0.000124      0.000214     -0.000049      0.000000
    272 O2    s       0.000752     -0.000217     -0.000847      0.000000
    273 O2    s       0.000003     -0.000083     -0.000259      0.000000
    274 O2    s       0.000048     -0.000007     -0.000037      0.000000
    275 O2    s       0.000128      0.000093     -0.000048      0.000000
    276 O2    s       0.000038     -0.000279      0.002506      0.000000
    277 O2    s       0.000421      0.000160      0.000765      0.000000
    278 O2    s       0.000171      0.000185      0.000082      0.000000
    279 O2    s       0.000092     -0.000027     -0.000030      0.000000
    280 O2    s       0.000090      0.000107     -0.000034      0.000000
    281 O3    s       0.000132      0.000077     -0.000070      0.000000
    282 O2    s       0.000971     -0.000765     -0.000619      0.000000
    283 O2    s       0.000207      0.000179     -0.000047      0.000000
    284 O2    s      -0.000592      0.000155      0.000069      0.000000
    285 O2    s      -0.000019      0.000053     -0.000177      0.000000
    286 O2    s      -0.000373     -0.000288      0.000102      0.000000
    287 O2    s       0.000033      0.000093      0.000080      0.000000
    288 O2    s       0.000347      0.000266     -0.000355      0.000000
    289 O2    s      -0.001686      0.000147     -0.004168      0.000000
    290 O2    s       0.000097      0.000230      0.000090      0.000000
    291 O2    s       0.000028     -0.000019     -0.000121      0.000000
    292 O2    s       0.000183      0.000121     -0.000062      0.000000
    293 O2    s      -0.000003      0.000144     -0.000012      0.000000
    294 O2    s       0.000328     -0.000182      0.001795      0.000000
    295 O2    s       0.000189      0.000124      0.000373      0.000000
    296 O2    s       0.000467     -0.000878     -0.001173      0.000000
    297 O3    s       0.000008      0.000056      0.000068      0.000000
    298 O2    s       0.000152      0.000207      0.000625      0.000000
    299 O2    s       0.000168      0.000050      0.000248      0.000000
    300 O2    s       0.000180      0.000214      0.000372      0.000000
    301 O2    s       0.000089      0.000235     -0.000413      0.000000
    302 O2    s       0.000116      0.000014      0.000093      0.000000
    303 O2    s      -0.000937      0.001999     -0.001525      0.000000
    304 O2    s       0.000079      0.000100     -0.000065      0.000000
    305 O2    s       0.000459     -0.000288      0.000749      0.000000
    306 O2    s       0.000235      0.000132      0.000016      0.000000
    307 F     s       0.000183      0.000062      0.000285      0.000000
    308 F     s      -0.000027     -0.000007     -0.000049      0.000000
    309 F     s       0.000443     -0.000258      0.000759      0.000000
    310 F     s      -0.000010      0.000040     -0.000116      0.000000
    311 F     s      -0.000545     -0.000637     -0.000517      0.000000
    312 F     s       0.000125      0.000140      0.000079      0.000000
--------------------------------------------------------------------------------
  Maximum abs         0.004780      0.004249      0.008989      0.000000
--------------------------------------------------------------------------------


  Time to end of optimisation =      44.5548 seconds


  Peak dynamic memory used =      19.13 MB 


  Timing analysis for GULP :

--------------------------------------------------------------------------------
  Task / Subroutine                                          Time (Seconds)
--------------------------------------------------------------------------------
  Calculation of reciprocal space energy and derivatives          1.2750
  Calculation of real space energy and derivatives               38.5427
  Calculation of three-body energy and derivatives                3.9081
  Calculation of matrix inversion                                 0.7448
--------------------------------------------------------------------------------
  Total CPU time                                                 44.5548
--------------------------------------------------------------------------------


  Dump file written as out.res                                                 
  CIF file written as out.cif                                                 


  Job Finished at 20:31.30  6th November   2016                               

