********************************************************************************
*                       GENERAL UTILITY LATTICE PROGRAM                        *
*                                 Julian Gale                                  *
*                      Nanochemistry Research Institute                        *
*                           Department of Chemistry                            *
*                    Curtin University, Western Australia                      *
********************************************************************************
* Version = 4.2.0 * Last modified =  20th January 2014                         *
********************************************************************************
*  optimise     - perform optimisation run                                     *
*  conp         - constant pressure calculation                                *
*  qok          - running with non charge neutral cell is OK                   *
********************************************************************************

  Job Started  at 19:49.51  6th November   2016                               

  Number of CPUs =     1


  Total number of configurations input =   1

********************************************************************************
*  Input for Configuration =   1                                               *
********************************************************************************

  Formula = Ge3Si57O120F6                                               

  Number of irreducible atoms/shells =     312


  Total number atoms/shells =     312

  Dimensionality = 3               :  Bulk   


  Charge on solid   =  -6.000000 =>neutralising background added


  Cartesian lattice vectors (Angstroms) :

       11.945993    0.000000    0.000000
       -6.007624   10.389442    0.000000
       -0.355972   -0.150486   29.431002

  Cell parameters (Angstroms/Degrees):

  a =      11.9460    alpha =  89.9067
  b =      12.0013    beta  =  90.6930
  c =      29.4335    gamma = 120.0384

  Initial cell volume =        3652.746557 Angs**3

  Temperature of configuration =  0.000     K 

  Pressure of configuration =         0.000 GPa 

  Fractional coordinates of asymmetric unit :

--------------------------------------------------------------------------------
   No.  Atomic       x           y          z         Charge      Occupancy
        Label      (Frac)      (Frac)     (Frac)        (e)         (Frac)  
--------------------------------------------------------------------------------
      1 Ge    c    0.699600    0.375700    0.033890     4.00000    1.000000    
      2 Si    c    0.620663 *  0.318294 *  0.363982 *   4.00000    1.000000    
      3 Si    c    0.684291 *  0.310097 *  0.694091 *   4.00000    1.000000    
      4 Si    c    0.297609 *  0.617037 *  0.526127 *   4.00000    1.000000    
      5 Si    c    0.367958 *  0.674279 *  0.860071 *   4.00000    1.000000    
      6 Si    c    0.314987 *  0.699831 *  0.194627 *   4.00000    1.000000    
      7 Si    c    0.370043 *  0.691302 *  0.295071 *   4.00000    1.000000    
      8 Si    c    0.316004 *  0.624626 *  0.960828 *   4.00000    1.000000    
      9 Si    c    0.306404 *  0.672140 *  0.626894 *   4.00000    1.000000    
     10 Si    c    0.613309 *  0.299814 *  0.795186 *   4.00000    1.000000    
     11 Si    c    0.675208 *  0.377807 *  0.464429 *   4.00000    1.000000    
     12 Si    c    0.681958 *  0.314545 *  0.132373 *   4.00000    1.000000    
     13 Si    c    0.528106 *  0.419593 *  0.965930 *   4.00000    1.000000    
     14 Si    c    0.577520 *  0.102469 *  0.301478 *   4.00000    1.000000    
     15 Si    c    0.900344 *  0.478205 *  0.630789 *   4.00000    1.000000    
     16 Si    c    0.467353 *  0.578820 *  0.460762 *   4.00000    1.000000    
     17 Si    c    0.404720 *  0.880789 *  0.792939 *   4.00000    1.000000    
     18 Si    c    0.103784 *  0.529831 *  0.127337 *   4.00000    1.000000    
     19 Si    c    0.414843 *  0.521431 *  0.359024 *   4.00000    1.000000    
     20 Si    c    0.100327 *  0.581640 *  0.024107 *   4.00000    1.000000    
     21 Si    c    0.470448 *  0.882582 *  0.690638 *   4.00000    1.000000    
     22 Si    c    0.572453 *  0.464255 *  0.863142 *   4.00000    1.000000    
     23 Si    c    0.888717 *  0.418992 *  0.529511 *   4.00000    1.000000    
     24 Si    c    0.523356 *  0.107487 *  0.200007 *   4.00000    1.000000    
     25 Si    c    0.291648 *  0.396152 *  0.848248 *   4.00000    1.000000    
     26 Si    c    0.594341 *  0.900939 *  0.182294 *   4.00000    1.000000    
     27 Si    c    0.098056 *  0.698000 *  0.513867 *   4.00000    1.000000    
     28 Si    c    0.696320 *  0.593616 *  0.346884 *   4.00000    1.000000    
     29 Ge    c    0.413199 *  0.098036 *  0.684422 *   4.00000    1.000000    
     30 Si    c    0.887108 *  0.293681 *  0.009397 *   4.00000    1.000000    
     31 Si    c    0.395003 *  0.298561 *  0.477086 *   4.00000    1.000000    
     32 Si    c    0.888601 *  0.600128 *  0.141428 *   4.00000    1.000000    
     33 Si    c    0.689518 *  0.095337 *  0.811568 *   4.00000    1.000000    
     34 Si    c    0.595053 *  0.701860 *  0.976269 *   4.00000    1.000000    
     35 Si    c    0.103343 *  0.397219 *  0.642589 *   4.00000    1.000000    
     36 Si    c    0.294745 *  0.892202 *  0.312612 *   4.00000    1.000000    
     37 Si    c    0.247525 *  0.344836 *  0.949095 *   4.00000    1.000000    
     38 Si    c    0.652817 *  0.901066 *  0.283039 *   4.00000    1.000000    
     39 Si    c    0.103233 *  0.755631 *  0.614770 *   4.00000    1.000000    
     40 Si    c    0.747348 *  0.657325 *  0.447450 *   4.00000    1.000000    
     41 Si    c    0.326386 *  0.084827 *  0.779428 *   4.00000    1.000000    
     42 Si    c    0.898339 *  0.247662 *  0.112562 *   4.00000    1.000000    
     43 Si    c    0.338545 *  0.244276 *  0.375975 *   4.00000    1.000000    
     44 Si    c    0.894970 *  0.660027 *  0.038733 *   4.00000    1.000000    
     45 Si    c    0.751905 *  0.091837 *  0.710692 *   4.00000    1.000000    
     46 Si    c    0.646812 *  0.742067 *  0.875411 *   4.00000    1.000000    
     47 Si    c    0.088229 *  0.337533 *  0.541922 *   4.00000    1.000000    
     48 Si    c    0.243473 *  0.906615 *  0.211955 *   4.00000    1.000000    
     49 Si    c    0.972984 *  0.123034 *  0.963896 *   4.00000    1.000000    
     50 Si    c    0.873120 *  0.840718 *  0.296660 *   4.00000    1.000000    
     51 Si    c    0.162730 *  0.035917 *  0.630298 *   4.00000    1.000000    
     52 Si    c    0.027169 *  0.876318 *  0.463103 *   4.00000    1.000000    
     53 Si    c    0.116864 *  0.149818 *  0.795834 *   4.00000    1.000000    
     54 Si    c    0.841137 *  0.970699 *  0.130583 *   4.00000    1.000000    
     55 Si    c    0.118496 *  0.964231 *  0.362001 *   4.00000    1.000000    
     56 Si    c    0.843354 *  0.882759 *  0.028988 *   4.00000    1.000000    
     57 Si    c    0.032736 *  0.149956 *  0.693367 *   4.00000    1.000000    
     58 Ge    c    0.869932 *  0.022787 *  0.861935 *   4.00000    1.000000    
     59 Si    c    0.148858 *  0.119366 *  0.528627 *   4.00000    1.000000    
     60 Si    c    0.964190 *  0.848457 *  0.194993 *   4.00000    1.000000    
     61 O2    c    0.927855 *  0.009787 *  0.000178 *   0.87073    1.000000    
     62 O2    c    0.997172 *  0.923395 *  0.328522 *   0.87073    1.000000    
     63 O2    c    0.068308 *  0.066604 *  0.660559 *   0.87073    1.000000    
     64 O2    c    0.068786 *  0.997578 *  0.495625 *   0.87073    1.000000    
     65 O3    c    0.989297 *  0.065241 *  0.823423 *   1.33043    1.000000    
     66 O2    c    0.925544 *  0.933968 *  0.163659 *   0.87073    1.000000    
     67 O2    c    0.334594 *  0.566419 *  0.326004 *   0.87073    1.000000    
     68 O2    c    0.431544 *  0.754781 *  0.660049 *   0.87073    1.000000    
     69 O2    c    0.226890 *  0.659437 *  0.992805 *   0.87073    1.000000    
     70 O2    c    0.649174 *  0.416935 *  0.830257 *   0.87073    1.000000    
     71 O2    c    0.574945 *  0.237731 *  0.170675 *   0.87073    1.000000    
     72 O2    c    0.759464 *  0.341033 *  0.498183 *   0.87073    1.000000    
     73 O3    c    0.565651 *  0.339317 *  0.998530 *   1.33043    1.000000    
     74 O2    c    0.781925 *  0.436362 *  0.665601 *   0.87073    1.000000    
     75 O2    c    0.657140 *  0.227721 *  0.333753 *   0.87073    1.000000    
     76 O2    c    0.417907 *  0.655552 *  0.492333 *   0.87073    1.000000    
     77 O2    c    0.229269 *  0.579626 *  0.160120 *   0.87073    1.000000    
     78 O2    c    0.329815 *  0.756691 *  0.825642 *   0.87073    1.000000    
     79 O2    c    0.126049 *  0.218726 *  0.971094 *   0.87073    1.000000    
     80 O2    c    0.779241 *  0.900166 *  0.303060 *   0.87073    1.000000    
     81 O2    c    0.107038 *  0.881352 *  0.635743 *   0.87073    1.000000    
     82 O2    c    0.872576 *  0.784967 *  0.467710 *   0.87073    1.000000    
     83 O2    c    0.208728 *  0.088787 *  0.805103 *   0.87073    1.000000    
     84 O2    c    0.902795 *  0.125123 *  0.133664 *   0.87073    1.000000    
     85 O2    c    0.212692 *  0.117146 *  0.355482 *   0.87073    1.000000    
     86 O2    c    0.910903 *  0.796822 *  0.022555 *   0.87073    1.000000    
     87 O2    c    0.877344 *  0.091858 *  0.690914 *   0.87073    1.000000    
     88 O3    c    0.771879 *  0.860644 *  0.853634 *   1.33043    1.000000    
     89 O2    c    0.085084 *  0.209938 *  0.521975 *   0.87073    1.000000    
     90 O2    c    0.118625 *  0.910121 *  0.191341 *   0.87073    1.000000    
     91 O2    c    0.921881 *  0.855122 *  0.245554 *   0.87073    1.000000    
     92 O2    c    0.138438 *  0.067710 *  0.578912 *   0.87073    1.000000    
     93 O3    c    0.940428 *  0.060543 *  0.914662 *   1.33043    1.000000    
     94 O2    c    0.076349 *  0.140865 *  0.743740 *   0.87073    1.000000    
     95 O2    c    0.849267 *  0.925230 *  0.080716 *   0.87073    1.000000    
     96 O2    c    0.065968 *  0.929123 *  0.412474 *   0.87073    1.000000    
     97 O2    c    0.900002 *  0.203766 *  0.971259 *   0.87073    1.000000    
     98 O2    c    0.794933 *  0.689336 *  0.308482 *   0.87073    1.000000    
     99 O3    c    0.309769 *  0.110263 *  0.642200 *   1.33043    1.000000    
    100 O2    c    0.096922 *  0.794461 *  0.475224 *   0.87073    1.000000    
    101 O2    c    0.191972 *  0.300106 *  0.809910 *   0.87073    1.000000    
    102 O2    c    0.690507 *  0.901310 *  0.143719 *   0.87073    1.000000    
    103 O2    c    0.196920 *  0.890131 *  0.350876 *   0.87073    1.000000    
    104 O2    c    0.692632 *  0.802988 *  0.014375 *   0.87073    1.000000    
    105 O2    c    0.104275 *  0.300758 *  0.680885 *   0.87073    1.000000    
    106 O3    c    0.778489 *  0.096268 *  0.852605 *   1.33043    1.000000    
    107 O2    c    0.300082 *  0.202703 *  0.515623 *   0.87073    1.000000    
    108 O2    c    0.893661 *  0.698943 *  0.179937 *   0.87073    1.000000    
    109 O2    c    0.313490 *  0.637315 *  0.243986 *   0.87073    1.000000    
    110 O2    c    0.360584 *  0.673702 *  0.576163 *   0.87073    1.000000    
    111 O2    c    0.311457 *  0.678328 *  0.910103 *   0.87073    1.000000    
    112 O2    c    0.671432 *  0.357056 *  0.745468 *   0.87073    1.000000    
    113 O3    c    0.611464 *  0.302178 *  0.084826 *   1.33043    1.000000    
    114 O2    c    0.678278 *  0.320502 *  0.414518 *   0.87073    1.000000    
    115 O2    c    0.370530 *  0.336509 *  0.966492 *   0.87073    1.000000    
    116 O2    c    0.663714 *  0.032167 *  0.302764 *   0.87073    1.000000    
    117 O2    c    0.970421 *  0.633621 *  0.632876 *   0.87073    1.000000    
    118 O2    c    0.623821 *  0.667231 *  0.464078 *   0.87073    1.000000    
    119 O2    c    0.318767 *  0.950552 *  0.795185 *   0.87073    1.000000    
    120 O2    c    0.030973 *  0.374221 *  0.129040 *   0.87073    1.000000    
    121 O2    c    0.328417 *  0.365320 *  0.356252 *   0.87073    1.000000    
    122 O2    c    0.028545 *  0.665527 *  0.022985 *   0.87073    1.000000    
    123 O2    c    0.628295 *  0.960552 *  0.692272 *   0.87073    1.000000    
    124 O2    c    0.656183 *  0.619136 *  0.858322 *   0.87073    1.000000    
    125 O2    c    0.955148 *  0.329857 *  0.524603 *   0.87073    1.000000    
    126 O2    c    0.366968 *  0.038953 *  0.194764 *   0.87073    1.000000    
    127 O3    c    0.752147 *  0.284242 *  0.000895 *   1.33043    1.000000    
    128 O2    c    0.696101 *  0.459241 *  0.339953 *   0.87073    1.000000    
    129 O3    c    0.548981 *  0.247568 *  0.668374 *   1.33043    1.000000    
    130 O2    c    0.228940 *  0.693092 *  0.504618 *   0.87073    1.000000    
    131 O2    c    0.293725 *  0.530206 *  0.838460 *   0.87073    1.000000    
    132 O2    c    0.458273 *  0.769354 *  0.172512 *   0.87073    1.000000    
    133 O2    c    0.293599 *  0.757127 *  0.317894 *   0.87073    1.000000    
    134 O2    c    0.460443 *  0.702832 *  0.983199 *   0.87073    1.000000    
    135 O2    c    0.239724 *  0.529483 *  0.649119 *   0.87073    1.000000    
    136 O2    c    0.686936 *  0.227703 *  0.815129 *   0.87073    1.000000    
    137 O2    c    0.530827 *  0.301878 *  0.485335 *   0.87073    1.000000    
    138 O2    c    0.757727 *  0.464821 *  0.149929 *   0.87073    1.000000    
    139 O3    c    0.769125 *  0.545231 *  0.017740 *   1.33043    1.000000    
    140 O2    c    0.464213 *  0.242235 *  0.357568 *   0.87073    1.000000    
    141 O2    c    0.749785 *  0.218460 *  0.694137 *   0.87073    1.000000    
    142 O2    c    0.214495 *  0.461157 *  0.521579 *   0.87073    1.000000    
    143 O2    c    0.524202 *  0.750015 *  0.855419 *   0.87073    1.000000    
    144 O2    c    0.238283 *  0.779529 *  0.190960 *   0.87073    1.000000    
    145 O2    c    0.526203 *  0.774212 *  0.300880 *   0.87073    1.000000    
    146 O2    c    0.243864 *  0.469824 *  0.967479 *   0.87073    1.000000    
    147 O2    c    0.226855 *  0.747891 *  0.633083 *   0.87073    1.000000    
    148 O2    c    0.458505 *  0.210601 *  0.797465 *   0.87073    1.000000    
    149 O2    c    0.747935 *  0.533578 *  0.468459 *   0.87073    1.000000    
    150 O2    c    0.775493 *  0.251124 *  0.132527 *   0.87073    1.000000    
    151 O2    c    0.220280 *  0.325186 *  0.894809 *   0.87073    1.000000    
    152 O2    c    0.668933 *  0.901405 *  0.228566 *   0.87073    1.000000    
    153 O2    c    0.101667 *  0.771885 *  0.560197 *   0.87073    1.000000    
    154 O2    c    0.767681 *  0.671360 *  0.393037 *   0.87073    1.000000    
    155 O3    c    0.301585 *  0.088447 *  0.726748 *   1.33043    1.000000    
    156 O2    c    0.894134 *  0.231424 *  0.058184 *   0.87073    1.000000    
    157 O2    c    0.321196 *  0.227443 *  0.430279 *   0.87073    1.000000    
    158 O2    c    0.888623 *  0.666787 *  0.094139 *   0.87073    1.000000    
    159 O2    c    0.760294 *  0.089128 *  0.765692 *   0.87073    1.000000    
    160 O2    c    0.669395 *  0.770625 *  0.929722 *   0.87073    1.000000    
    161 O2    c    0.092983 *  0.320374 *  0.596200 *   0.87073    1.000000    
    162 O2    c    0.224978 *  0.901536 *  0.266292 *   0.87073    1.000000    
    163 O2    c    0.580754 *  0.563862 *  0.986341 *   0.87073    1.000000    
    164 O2    c    0.435669 *  0.014544 *  0.323249 *   0.87073    1.000000    
    165 O2    c    0.981414 *  0.415893 *  0.652834 *   0.87073    1.000000    
    166 O2    c    0.410403 *  0.438702 *  0.484112 *   0.87073    1.000000    
    167 O2    c    0.546290 *  0.973655 *  0.814917 *   0.87073    1.000000    
    168 O2    c    0.012408 *  0.581160 *  0.146993 *   0.87073    1.000000    
    169 O2    c    0.556729 *  0.579788 *  0.336430 *   0.87073    1.000000    
    170 O2    c    0.009148 *  0.439081 *  0.003489 *   0.87073    1.000000    
    171 O3    c    0.411463 *  0.958015 *  0.664437 *   1.33043    1.000000    
    172 O2    c    0.428770 *  0.403576 *  0.840836 *   0.87073    1.000000    
    173 O2    c    0.969636 *  0.559630 *  0.506090 *   0.87073    1.000000    
    174 O2    c    0.583510 *  0.028647 *  0.175114 *   0.87073    1.000000    
    175 O2    c    0.575324 *  0.156896 *  0.251166 *   0.87073    1.000000    
    176 O2    c    0.839384 *  0.420366 *  0.580715 *   0.87073    1.000000    
    177 O2    c    0.578611 *  0.418811 *  0.914439 *   0.87073    1.000000    
    178 O2    c    0.412224 *  0.834560 *  0.741889 *   0.87073    1.000000    
    179 O2    c    0.148080 *  0.577942 *  0.075877 *   0.87073    1.000000    
    180 O2    c    0.414499 *  0.576602 *  0.409372 *   0.87073    1.000000    
    181 F     c    0.442668 *  0.895357 *  0.245882 *   0.56000    1.000000    
    182 F     c    0.100531 *  0.545610 *  0.577670 *   0.56000    1.000000    
    183 F     c    0.443394 *  0.553929 *  0.910996 *   0.56000    1.000000    
    184 F     c    0.516222 *  0.094865 *  0.733773 *   0.56000    1.000000    
    185 F     c    0.850140 *  0.433719 *  0.069130 *   0.56000    1.000000    
    186 F     c    0.548052 *  0.447765 *  0.410289 *   0.56000    1.000000    
    187 O2    s    0.923271 *  0.008035 *  0.999390 *  -2.87073    1.000000    
    188 O2    s    0.996713 *  0.918616 *  0.328665 *  -2.87073    1.000000    
    189 O2    s    0.073954 *  0.072777 *  0.661135 *  -2.87073    1.000000    
    190 O2    s    0.072907 *  0.997281 *  0.495575 *  -2.87073    1.000000    
    191 O3    s    0.992493 *  0.070667 *  0.823887 *  -3.33043    1.000000    
    192 O2    s    0.920504 *  0.928592 *  0.163475 *  -2.87073    1.000000    
    193 O2    s    0.346388 *  0.574845 *  0.326116 *  -2.87073    1.000000    
    194 O2    s    0.422944 *  0.759260 *  0.659789 *  -2.87073    1.000000    
    195 O2    s    0.222622 *  0.647867 *  0.992859 *  -2.87073    1.000000    
    196 O2    s    0.637602 *  0.409458 *  0.829925 *  -2.87073    1.000000    
    197 O2    s    0.580824 *  0.232168 *  0.169701 *  -2.87073    1.000000    
    198 O2    s    0.763942 *  0.352935 *  0.497864 *  -2.87073    1.000000    
    199 O3    s    0.571415 *  0.350589 *  0.997616 *  -3.33043    1.000000    
    200 O2    s    0.783933 *  0.427407 *  0.665019 *  -2.87073    1.000000    
    201 O2    s    0.645139 *  0.223808 *  0.333447 *  -2.87073    1.000000    
    202 O2    s    0.410703 *  0.643590 *  0.492521 *  -2.87073    1.000000    
    203 O2    s    0.224560 *  0.586393 *  0.160108 *  -2.87073    1.000000    
    204 O2    s    0.341421 *  0.761186 *  0.825747 *  -2.87073    1.000000    
    205 O2    s    0.122115 *  0.221450 *  0.968084 *  -2.87073    1.000000    
    206 O2    s    0.775961 *  0.893936 *  0.300305 *  -2.87073    1.000000    
    207 O2    s    0.112118 *  0.883150 *  0.632978 *  -2.87073    1.000000    
    208 O2    s    0.875914 *  0.781354 *  0.465127 *  -2.87073    1.000000    
    209 O2    s    0.211149 *  0.094786 *  0.801564 *  -2.87073    1.000000    
    210 O2    s    0.895862 *  0.121672 *  0.131162 *  -2.87073    1.000000    
    211 O2    s    0.215675 *  0.114022 *  0.358267 *  -2.87073    1.000000    
    212 O2    s    0.902003 *  0.792123 *  0.024874 *  -2.87073    1.000000    
    213 O2    s    0.880014 *  0.097864 *  0.693258 *  -2.87073    1.000000    
    214 O3    s    0.767705 *  0.862536 *  0.856487 *  -3.33043    1.000000    
    215 O2    s    0.092044 *  0.213664 *  0.524697 *  -2.87073    1.000000    
    216 O2    s    0.114991 *  0.903149 *  0.193840 *  -2.87073    1.000000    
    217 O2    s    0.921204 *  0.852708 *  0.245520 *  -2.87073    1.000000    
    218 O2    s    0.142168 *  0.070342 *  0.578466 *  -2.87073    1.000000    
    219 O3    s    0.937706 *  0.063863 *  0.915283 *  -3.33043    1.000000    
    220 O2    s    0.075880 *  0.142895 *  0.743897 *  -2.87073    1.000000    
    221 O2    s    0.847673 *  0.925736 *  0.080655 *  -2.87073    1.000000    
    222 O2    s    0.067636 *  0.927227 *  0.412361 *  -2.87073    1.000000    
    223 O2    s    0.906423 *  0.204461 *  0.974400 *  -2.87073    1.000000    
    224 O2    s    0.793321 *  0.695783 *  0.311081 *  -2.87073    1.000000    
    225 O3    s    0.299963 *  0.101092 *  0.643608 *  -3.33043    1.000000    
    226 O2    s    0.089589 *  0.793376 *  0.477863 *  -2.87073    1.000000    
    227 O2    s    0.194365 *  0.294170 *  0.812439 *  -2.87073    1.000000    
    228 O2    s    0.696725 *  0.908708 *  0.146289 *  -2.87073    1.000000    
    229 O2    s    0.198775 *  0.898094 *  0.348111 *  -2.87073    1.000000    
    230 O2    s    0.698763 *  0.801224 *  0.012054 *  -2.87073    1.000000    
    231 O2    s    0.096543 *  0.294741 *  0.678208 *  -2.87073    1.000000    
    232 O3    s    0.776835 *  0.090395 *  0.849262 *  -3.33043    1.000000    
    233 O2    s    0.294179 *  0.204025 *  0.512934 *  -2.87073    1.000000    
    234 O2    s    0.900609 *  0.704520 *  0.177522 *  -2.87073    1.000000    
    235 O2    s    0.319329 *  0.649151 *  0.244060 *  -2.87073    1.000000    
    236 O2    s    0.348623 *  0.667742 *  0.576246 *  -2.87073    1.000000    
    237 O2    s    0.317532 *  0.672529 *  0.910201 *  -2.87073    1.000000    
    238 O2    s    0.666628 *  0.346649 *  0.745703 *  -2.87073    1.000000    
    239 O3    s    0.624539 *  0.308334 *  0.086257 *  -3.33043    1.000000    
    240 O2    s    0.671996 *  0.326149 *  0.414357 *  -2.87073    1.000000    
    241 O2    s    0.372673 *  0.345901 *  0.964463 *  -2.87073    1.000000    
    242 O2    s    0.653685 *  0.025654 *  0.300553 *  -2.87073    1.000000    
    243 O2    s    0.976820 *  0.629895 *  0.630761 *  -2.87073    1.000000    
    244 O2    s    0.620627 *  0.657046 *  0.461973 *  -2.87073    1.000000    
    245 O2    s    0.328541 *  0.956680 *  0.793358 *  -2.87073    1.000000    
    246 O2    s    0.024793 *  0.377311 *  0.127147 *  -2.87073    1.000000    
    247 O2    s    0.338354 *  0.368747 *  0.358602 *  -2.87073    1.000000    
    248 O2    s    0.022829 *  0.656103 *  0.024667 *  -2.87073    1.000000    
    249 O2    s    0.625512 *  0.966650 *  0.694078 *  -2.87073    1.000000    
    250 O2    s    0.646279 *  0.615805 *  0.860675 *  -2.87073    1.000000    
    251 O2    s    0.962299 *  0.339819 *  0.526928 *  -2.87073    1.000000    
    252 O2    s    0.370047 *  0.032042 *  0.197120 *  -2.87073    1.000000    
    253 O3    s    0.763084 *  0.291208 *  0.004017 *  -3.33043    1.000000    
    254 O2    s    0.688447 *  0.458854 *  0.343136 *  -2.87073    1.000000    
    255 O3    s    0.553613 *  0.243607 *  0.672219 *  -3.33043    1.000000    
    256 O2    s    0.222230 *  0.685743 *  0.507839 *  -2.87073    1.000000    
    257 O2    s    0.301222 *  0.531163 *  0.841776 *  -2.87073    1.000000    
    258 O2    s    0.457640 *  0.775859 *  0.175831 *  -2.87073    1.000000    
    259 O2    s    0.301545 *  0.764522 *  0.314966 *  -2.87073    1.000000    
    260 O2    s    0.459312 *  0.694716 *  0.980162 *  -2.87073    1.000000    
    261 O2    s    0.232152 *  0.530192 *  0.646088 *  -2.87073    1.000000    
    262 O2    s    0.679507 *  0.220947 *  0.812631 *  -2.87073    1.000000    
    263 O2    s    0.531465 *  0.309419 *  0.482254 *  -2.87073    1.000000    
    264 O2    s    0.764221 *  0.464529 *  0.147276 *  -2.87073    1.000000    
    265 O3    s    0.778934 *  0.547628 *  0.020987 *  -3.33043    1.000000    
    266 O2    s    0.466849 *  0.250401 *  0.360170 *  -2.87073    1.000000    
    267 O2    s    0.743360 *  0.213604 *  0.695943 *  -2.87073    1.000000    
    268 O2    s    0.209520 *  0.464137 *  0.524206 *  -2.87073    1.000000    
    269 O2    s    0.520873 *  0.741206 *  0.858018 *  -2.87073    1.000000    
    270 O2    s    0.246868 *  0.784804 *  0.193549 *  -2.87073    1.000000    
    271 O2    s    0.523672 *  0.779486 *  0.298351 *  -2.87073    1.000000    
    272 O2    s    0.251827 *  0.472680 *  0.964857 *  -2.87073    1.000000    
    273 O2    s    0.221652 *  0.740607 *  0.630494 *  -2.87073    1.000000    
    274 O2    s    0.461772 *  0.207249 *  0.795345 *  -2.87073    1.000000    
    275 O2    s    0.740143 *  0.530759 *  0.465767 *  -2.87073    1.000000    
    276 O2    s    0.779711 *  0.257214 *  0.130310 *  -2.87073    1.000000    
    277 O2    s    0.230412 *  0.334565 *  0.895609 *  -2.87073    1.000000    
    278 O2    s    0.659344 *  0.901320 *  0.229429 *  -2.87073    1.000000    
    279 O2    s    0.101435 *  0.762343 *  0.561009 *  -2.87073    1.000000    
    280 O2    s    0.758051 *  0.661723 *  0.393909 *  -2.87073    1.000000    
    281 O3    s    0.311615 *  0.088636 *  0.729475 *  -3.33043    1.000000    
    282 O2    s    0.893880 *  0.239284 *  0.059222 *  -2.87073    1.000000    
    283 O2    s    0.330763 *  0.236680 *  0.429378 *  -2.87073    1.000000    
    284 O2    s    0.889164 *  0.658724 *  0.093866 *  -2.87073    1.000000    
    285 O2    s    0.752263 *  0.090004 *  0.764761 *  -2.87073    1.000000    
    286 O2    s    0.659467 *  0.760731 *  0.928957 *  -2.87073    1.000000    
    287 O2    s    0.093570 *  0.330313 *  0.595321 *  -2.87073    1.000000    
    288 O2    s    0.234201 *  0.901120 *  0.265307 *  -2.87073    1.000000    
    289 O2    s    0.576717 *  0.564396 *  0.983138 *  -2.87073    1.000000    
    290 O2    s    0.435398 *  0.010430 *  0.319821 *  -2.87073    1.000000    
    291 O2    s    0.986203 *  0.420566 *  0.649405 *  -2.87073    1.000000    
    292 O2    s    0.414899 *  0.438281 *  0.480889 *  -2.87073    1.000000    
    293 O2    s    0.547048 *  0.977296 *  0.812216 *  -2.87073    1.000000    
    294 O2    s    0.008821 *  0.577551 *  0.144280 *  -2.87073    1.000000    
    295 O2    s    0.556867 *  0.575017 *  0.339882 *  -2.87073    1.000000    
    296 O2    s    0.006333 *  0.439588 *  0.006303 *  -2.87073    1.000000    
    297 O3    s    0.417847 *  0.960705 *  0.668561 *  -3.33043    1.000000    
    298 O2    s    0.429052 *  0.409263 *  0.843973 *  -2.87073    1.000000    
    299 O2    s    0.975150 *  0.559832 *  0.509369 *  -2.87073    1.000000    
    300 O2    s    0.578289 *  0.022968 *  0.178441 *  -2.87073    1.000000    
    301 O2    s    0.569956 *  0.145858 *  0.250989 *  -2.87073    1.000000    
    302 O2    s    0.850733 *  0.426154 *  0.580577 *  -2.87073    1.000000    
    303 O2    s    0.573024 *  0.423737 *  0.914086 *  -2.87073    1.000000    
    304 O2    s    0.417075 *  0.844102 *  0.742276 *  -2.87073    1.000000    
    305 O2    s    0.138543 *  0.573216 *  0.076042 *  -2.87073    1.000000    
    306 O2    s    0.419991 *  0.571081 *  0.409444 *  -2.87073    1.000000    
    307 F     s    0.442286 *  0.894834 *  0.245691 *  -1.56000    1.000000    
    308 F     s    0.100842 *  0.545524 *  0.577620 *  -1.56000    1.000000    
    309 F     s    0.443095 *  0.554743 *  0.910839 *  -1.56000    1.000000    
    310 F     s    0.509640 *  0.095139 *  0.730744 *  -1.56000    1.000000    
    311 F     s    0.839377 *  0.429541 *  0.066733 *  -1.56000    1.000000    
    312 F     s    0.548441 *  0.447597 *  0.410105 *  -1.56000    1.000000    
--------------------------------------------------------------------------------



********************************************************************************
*  General input information                                                   *
********************************************************************************

  Species output for all configurations : 

--------------------------------------------------------------------------------
  Species    Type    Atomic    Atomic    Charge       Radii (Angs)     Library
                     Number     Mass       (e)     Cova   Ionic  VDW   Symbol
--------------------------------------------------------------------------------
    Si       Core       14      28.09   4.000000   1.200  0.000  2.100          
    O1       Core        8      16.00   1.733957   0.730  0.000  1.360          
    O1       Shell       8       0.00  -3.733957   0.730  0.000  1.360          
    O2       Core        8      16.00   0.870733   0.730  0.000  1.360          
    O2       Shell       8       0.00  -2.870733   0.730  0.000  1.360          
    O3       Core        8      16.00   1.330431   0.730  0.000  1.360          
    O3       Shell       8       0.00  -3.330431   0.730  0.000  1.360          
    F        Core        9      19.00   0.560000   0.710  0.000  1.300          
    F        Shell       9       0.00  -1.560000   0.710  0.000  1.300          
    Ge       Core       32      72.61   4.000000   1.170  0.000  1.750          
--------------------------------------------------------------------------------


  Lattice summation method               =    Ewald          (3-D)
                                         =    Parry          (2-D)
                                         =    Saunders et al (1-D)
  Accuracy factor for lattice sums       =   12.000


  Time limit = Infinity

  Maximum range for interatomic potentials =        16.000000 Angstroms

  Taper potentials to zero over   1.0000 Angstroms using polynomial

  General interatomic potentials :

--------------------------------------------------------------------------------
Atom  Types   Potential         A         B         C         D     Cutoffs(Ang)
  1     2                                                            Min    Max 
--------------------------------------------------------------------------------
Si   c O1   s Buckingham    0.132E+04 0.318      10.1      0.00     0.000 16.000
Si   c O2   s Buckingham    0.132E+04 0.318      10.1      0.00     0.000 16.000
Si   c O3   s Buckingham    0.132E+04 0.318      10.1      0.00     0.000 16.000
Ge   c O1   s Buckingham    0.150E+04 0.326      16.8      0.00     0.000 16.000
Ge   c O2   s Buckingham    0.150E+04 0.326      16.8      0.00     0.000 16.000
Ge   c O3   s Buckingham    0.150E+04 0.326      16.8      0.00     0.000 16.000
O1   s O1   s Buckingham    0.228E+05 0.149      10.9      0.00     0.000 16.000
O1   s O2   s Buckingham    0.228E+05 0.149      10.9      0.00     0.000 16.000
O1   s O3   s Buckingham    0.228E+05 0.149      10.9      0.00     0.000 16.000
O2   s O2   s Buckingham    0.228E+05 0.149      10.9      0.00     0.000 16.000
O2   s O3   s Buckingham    0.228E+05 0.149      10.9      0.00     0.000 16.000
O3   s O3   s Buckingham    0.228E+05 0.149      10.9      0.00     0.000 16.000
Si   c F    s Buckingham     977.     0.282      0.00      0.00     0.000 16.000
Ge   c F    s Buckingham     681.     0.320      0.00      0.00     0.000 16.000
F    s F    s Buckingham     540.     0.262      0.00      0.00     0.000 16.000
O1   s F    s Buckingham    0.168E+04 0.268      0.00      0.00     0.000 16.000
O2   s F    s Buckingham    0.168E+04 0.268      0.00      0.00     0.000 16.000
O3   s F    s Buckingham    0.168E+04 0.268      0.00      0.00     0.000 16.000
O2   c O2   s Spring (c-s)   76.0      0.00      0.00      0.00     0.000  0.800
O3   c O3   s Spring (c-s)   128.      0.00      0.00      0.00     0.000  0.800
O1   c O1   s Spring (c-s)   180.      0.00      0.00      0.00     0.000  0.800
F    c F    s Spring (c-s)   33.5      0.00      0.00      0.00     0.000  0.800
--------------------------------------------------------------------------------

  General Three-body potentials :

  Harmonic form:

--------------------------------------------------------------------------------
Atom    Atom    Atom           Force Constants            Theta     Cutoffs  
  1       2       3     (eVrad**-2/eVrad**-3/eVrad**-4)   (deg)  1-2  1-3  2-3
--------------------------------------------------------------------------------
Si    c O1    s O1    s  1.261        0.0000    0.0000   109.470 0.00 0.00 0.00
                                                                 1.90 1.90 3.50
Si    c O1    s O2    s  1.261        0.0000    0.0000   109.470 0.00 0.00 0.00
                                                                 1.90 1.90 3.50
Si    c O2    s O2    s  1.261        0.0000    0.0000   109.470 0.00 0.00 0.00
                                                                 1.90 1.90 3.50
--------------------------------------------------------------------------------

********************************************************************************
*  Output for configuration   1                                                *
********************************************************************************


  Components of energy : 

--------------------------------------------------------------------------------
  Interatomic potentials     =        2064.12417893 eV
  Three-body potentials      =           0.47847278 eV
  Monopole - monopole (real) =       -6612.24077622 eV
  Monopole - monopole (recip)=       -3172.52047220 eV
  Monopole - monopole (total)=       -9784.76124842 eV
  Neutralising energy        =          -6.46242375 eV
--------------------------------------------------------------------------------
  Total lattice energy       =       -7726.62102045 eV
--------------------------------------------------------------------------------
  Total lattice energy       =         -745500.8163 kJ/(mole unit cells)
--------------------------------------------------------------------------------


  Number of variables =      939

  Maximum number of calculations  =          5000
  Maximum Hessian update interval =            10
  Maximum step size               =   0.100000000
  Maximum parameter tolerance     =   0.000010000
  Maximum function  tolerance     =   0.000010000
  Maximum gradient  tolerance     =   0.001000000
  Maximum gradient  component     =   0.010000000

  Symmetry not applied to optimisation

  Cell parameters to be optimised using strains

  Newton-Raphson optimiser to be used

  BFGS hessian update to be used

  Dumpfile to be written after every cycle

  Start of bulk optimisation :

  Cycle:      0 Energy:     -7726.621020  Gnorm:      0.006558  CPU:    2.015
  ** Hessian calculated **
  Cycle:      1 Energy:     -7726.621131  Gnorm:      0.002656  CPU:    5.299
  Cycle:      2 Energy:     -7726.621177  Gnorm:      0.001804  CPU:    8.207
  Cycle:      3 Energy:     -7726.621299  Gnorm:      0.001533  CPU:   13.225
  Cycle:      4 Energy:     -7726.621492  Gnorm:      0.003409  CPU:   18.247
  Cycle:      5 Energy:     -7726.621726  Gnorm:      0.005360  CPU:   22.568
  Cycle:      6 Energy:     -7726.622100  Gnorm:      0.007800  CPU:   27.589
  Cycle:      7 Energy:     -7726.622558  Gnorm:      0.010280  CPU:   31.906
  Cycle:      8 Energy:     -7726.623163  Gnorm:      0.012615  CPU:   36.222
  Cycle:      9 Energy:     -7726.623969  Gnorm:      0.014848  CPU:   40.532
  Cycle:     10 Energy:     -7726.624998  Gnorm:      0.016888  CPU:   44.839
  ** Hessian calculated **
  Cycle:     11 Energy:     -7726.625744  Gnorm:      0.004868  CPU:   50.142
  Cycle:     12 Energy:     -7726.625934  Gnorm:      0.003139  CPU:   53.745
  Cycle:     13 Energy:     -7726.626145  Gnorm:      0.003035  CPU:   58.053
  Cycle:     14 Energy:     -7726.626321  Gnorm:      0.003203  CPU:   61.661
  Cycle:     15 Energy:     -7726.626476  Gnorm:      0.003169  CPU:   65.267
  Cycle:     16 Energy:     -7726.626611  Gnorm:      0.002674  CPU:   68.879
  Cycle:     17 Energy:     -7726.626737  Gnorm:      0.002029  CPU:   72.483
  Cycle:     18 Energy:     -7726.626843  Gnorm:      0.001839  CPU:   75.389
  Cycle:     19 Energy:     -7726.627090  Gnorm:      0.002587  CPU:   80.404
  Cycle:     20 Energy:     -7726.627393  Gnorm:      0.003538  CPU:   84.717
  ** Hessian calculated **
  Cycle:     21 Energy:     -7726.627709  Gnorm:      0.003528  CPU:   90.717
  Cycle:     22 Energy:     -7726.628244  Gnorm:      0.003511  CPU:   95.731
  Cycle:     23 Energy:     -7726.629073  Gnorm:      0.003484  CPU:  100.816
  Cycle:     24 Energy:     -7726.630320  Gnorm:      0.003444  CPU:  105.837
  Cycle:     25 Energy:     -7726.631864  Gnorm:      0.003393  CPU:  110.155
  Cycle:     26 Energy:     -7726.634441  Gnorm:      0.003306  CPU:  115.175
  Cycle:     27 Energy:     -7726.638327  Gnorm:      0.003170  CPU:  120.201
  Cycle:     28 Energy:     -7726.643009  Gnorm:      0.002998  CPU:  124.507
  Cycle:     29 Energy:     -7726.650412  Gnorm:      0.002702  CPU:  129.530
  Cycle:     30 Energy:     -7726.658878  Gnorm:      0.002318  CPU:  133.848
  ** Hessian calculated **
  Cycle:     31 Energy:     -7726.669393  Gnorm:      0.001740  CPU:  139.863
  Cycle:     32 Energy:     -7726.679005  Gnorm:      0.001083  CPU:  144.184
  Cycle:     33 Energy:     -7726.681820  Gnorm:      0.000714  CPU:  148.501
  Cycle:     34 Energy:     -7726.682522  Gnorm:      0.000417  CPU:  152.821
  Cycle:     35 Energy:     -7726.682699  Gnorm:      0.000229  CPU:  157.140
  Cycle:     36 Energy:     -7726.682729  Gnorm:      0.000164  CPU:  160.050
  Cycle:     37 Energy:     -7726.682744  Gnorm:      0.000116  CPU:  162.951
  Cycle:     38 Energy:     -7726.682751  Gnorm:      0.000082  CPU:  165.861
  Cycle:     39 Energy:     -7726.682755  Gnorm:      0.000057  CPU:  168.762
  Cycle:     40 Energy:     -7726.682756  Gnorm:      0.000040  CPU:  171.672
  ** Hessian calculated **


  **** Optimisation achieved ****


  Final energy =   -7726.68275636 eV
  Final Gnorm  =       0.00002263

  Components of energy : 

--------------------------------------------------------------------------------
  Interatomic potentials     =        2064.13100131 eV
  Three-body potentials      =           0.48166221 eV
  Monopole - monopole (real) =       -6613.31485299 eV
  Monopole - monopole (recip)=       -3171.52017790 eV
  Monopole - monopole (total)=       -9784.83503089 eV
  Neutralising energy        =          -6.46038899 eV
--------------------------------------------------------------------------------
  Total lattice energy       =       -7726.68275636 eV
--------------------------------------------------------------------------------
  Total lattice energy       =         -745506.7728 kJ/(mole unit cells)
--------------------------------------------------------------------------------

  Final fractional coordinates of atoms :

--------------------------------------------------------------------------------
   No.  Atomic        x           y          z          Radius
        Label       (Frac)      (Frac)     (Frac)       (Angs) 
--------------------------------------------------------------------------------
     1  Ge    c     0.699600    0.375700    0.033890    0.000000
     2  Si    c     0.601374    0.303954    0.365159    0.000000
     3  Si    c     0.668160    0.295037    0.694753    0.000000
     4  Si    c     0.279380    0.600584    0.527726    0.000000
     5  Si    c     0.353079    0.659978    0.860743    0.000000
     6  Si    c     0.302034    0.690732    0.195920    0.000000
     7  Si    c     0.356025    0.680899    0.296645    0.000000
     8  Si    c     0.305427    0.612492    0.961824    0.000000
     9  Si    c     0.289922    0.655962    0.628606    0.000000
    10  Si    c     0.598975    0.285939    0.796014    0.000000
    11  Si    c     0.656846    0.362851    0.465855    0.000000
    12  Si    c     0.670597    0.305201    0.132310    0.000000
    13  Si    c     0.518847    0.409717    0.966450    0.000000
    14  Si    c     0.562612    0.091313    0.302035    0.000000
    15  Si    c     0.885235    0.463226    0.632271    0.000000
    16  Si    c     0.448954    0.562984    0.462415    0.000000
    17  Si    c     0.391125    0.867858    0.794127    0.000000
    18  Si    c     0.091931    0.518708    0.128822    0.000000
    19  Si    c     0.395634    0.506684    0.360530    0.000000
    20  Si    c     0.092320    0.573338    0.025414    0.000000
    21  Si    c     0.454990    0.868237    0.691587    0.000000
    22  Si    c     0.558758    0.451907    0.863179    0.000000
    23  Si    c     0.871540    0.403713    0.530819    0.000000
    24  Si    c     0.509324    0.097905    0.200182    0.000000
    25  Si    c     0.277604    0.382900    0.848654    0.000000
    26  Si    c     0.580275    0.891229    0.183271    0.000000
    27  Si    c     0.080459    0.682247    0.515405    0.000000
    28  Si    c     0.676507    0.578946    0.348043    0.000000
    29  Ge    c     0.397674    0.083649    0.685245    0.000000
    30  Si    c     0.880157    0.286450    0.009664    0.000000
    31  Si    c     0.376950    0.283302    0.478663    0.000000
    32  Si    c     0.877543    0.589812    0.142501    0.000000
    33  Si    c     0.675709    0.081913    0.812602    0.000000
    34  Si    c     0.585307    0.691570    0.976562    0.000000
    35  Si    c     0.087741    0.381560    0.644341    0.000000
    36  Si    c     0.280864    0.881885    0.313775    0.000000
    37  Si    c     0.237849    0.333682    0.949929    0.000000
    38  Si    c     0.638131    0.890252    0.284252    0.000000
    39  Si    c     0.087160    0.740039    0.616475    0.000000
    40  Si    c     0.728760    0.642231    0.448849    0.000000
    41  Si    c     0.312591    0.071663    0.780457    0.000000
    42  Si    c     0.887192    0.237817    0.113278    0.000000
    43  Si    c     0.319590    0.230093    0.377331    0.000000
    44  Si    c     0.891087    0.656822    0.039843    0.000000
    45  Si    c     0.736021    0.077137    0.711450    0.000000
    46  Si    c     0.632447    0.729000    0.875181    0.000000
    47  Si    c     0.070781    0.321711    0.543428    0.000000
    48  Si    c     0.229980    0.896999    0.212840    0.000000
    49  Si    c     0.963091    0.113292    0.964930    0.000000
    50  Si    c     0.855480    0.825753    0.297896    0.000000
    51  Si    c     0.145574    0.019669    0.631650    0.000000
    52  Si    c     0.009119    0.860646    0.464392    0.000000
    53  Si    c     0.102366    0.135303    0.797315    0.000000
    54  Si    c     0.826965    0.959948    0.131879    0.000000
    55  Si    c     0.101854    0.949932    0.363323    0.000000
    56  Si    c     0.833241    0.874666    0.030263    0.000000
    57  Si    c     0.015868    0.133442    0.694748    0.000000
    58  Ge    c     0.855893    0.009012    0.863448    0.000000
    59  Si    c     0.130821    0.103383    0.529897    0.000000
    60  Si    c     0.949489    0.836282    0.196382    0.000000
    61  O2    c     0.917730    0.004147    0.002916    0.000000
    62  O2    c     0.979868    0.906064    0.329831    0.000000
    63  O2    c     0.051533    0.050104    0.662102    0.000000
    64  O2    c     0.050857    0.982291    0.496639    0.000000
    65  O3    c     0.978306    0.051696    0.826477    0.000000
    66  O2    c     0.909881    0.922008    0.165414    0.000000
    67  O2    c     0.318049    0.555115    0.327446    0.000000
    68  O2    c     0.415569    0.739720    0.661497    0.000000
    69  O2    c     0.218970    0.649225    0.994301    0.000000
    70  O2    c     0.635077    0.403859    0.830575    0.000000
    71  O2    c     0.562060    0.227303    0.170173    0.000000
    72  O2    c     0.741995    0.326392    0.499529    0.000000
    73  O3    c     0.562421    0.334499    0.998911    0.000000
    74  O2    c     0.766392    0.421492    0.666676    0.000000
    75  O2    c     0.640028    0.215799    0.334683    0.000000
    76  O2    c     0.399460    0.639310    0.493970    0.000000
    77  O2    c     0.217113    0.569529    0.161839    0.000000
    78  O2    c     0.315199    0.743551    0.826621    0.000000
    79  O2    c     0.116431    0.206838    0.971513    0.000000
    80  O2    c     0.764232    0.888162    0.304199    0.000000
    81  O2    c     0.091118    0.865606    0.637411    0.000000
    82  O2    c     0.854577    0.769682    0.468790    0.000000
    83  O2    c     0.195705    0.075938    0.806272    0.000000
    84  O2    c     0.890148    0.114370    0.134343    0.000000
    85  O2    c     0.193400    0.103081    0.357003    0.000000
    86  O2    c     0.905713    0.793113    0.024134    0.000000
    87  O2    c     0.860996    0.076934    0.691545    0.000000
    88  O3    c     0.756832    0.848091    0.853518    0.000000
    89  O2    c     0.067119    0.194110    0.523474    0.000000
    90  O2    c     0.103999    0.899738    0.192757    0.000000
    91  O2    c     0.904654    0.839177    0.246877    0.000000
    92  O2    c     0.119644    0.050349    0.580143    0.000000
    93  O3    c     0.924036    0.044269    0.916798    0.000000
    94  O2    c     0.056214    0.121829    0.745553    0.000000
    95  O2    c     0.833833    0.912329    0.082257    0.000000
    96  O2    c     0.048939    0.913027    0.413713    0.000000
    97  O2    c     0.893350    0.197373    0.971463    0.000000
    98  O2    c     0.774545    0.674601    0.309587    0.000000
    99  O3    c     0.292758    0.094638    0.643139    0.000000
   100  O2    c     0.078626    0.778757    0.476825    0.000000
   101  O2    c     0.177279    0.286046    0.810529    0.000000
   102  O2    c     0.676649    0.892430    0.144768    0.000000
   103  O2    c     0.183528    0.879440    0.352171    0.000000
   104  O2    c     0.684063    0.793462    0.014219    0.000000
   105  O2    c     0.088652    0.284368    0.682531    0.000000
   106  O3    c     0.765993    0.083887    0.853588    0.000000
   107  O2    c     0.281936    0.186884    0.517069    0.000000
   108  O2    c     0.881207    0.687560    0.180998    0.000000
   109  O2    c     0.300606    0.628246    0.245354    0.000000
   110  O2    c     0.343086    0.656865    0.577787    0.000000
   111  O2    c     0.297952    0.664532    0.910951    0.000000
   112  O2    c     0.656102    0.342058    0.746132    0.000000
   113  O3    c     0.606203    0.298295    0.084173    0.000000
   114  O2    c     0.659000    0.305772    0.415828    0.000000
   115  O2    c     0.361303    0.326029    0.967529    0.000000
   116  O2    c     0.649505    0.021695    0.303671    0.000000
   117  O2    c     0.954816    0.618256    0.634583    0.000000
   118  O2    c     0.605305    0.651658    0.465665    0.000000
   119  O2    c     0.305665    0.937968    0.796405    0.000000
   120  O2    c     0.019392    0.363341    0.130596    0.000000
   121  O2    c     0.308591    0.350820    0.357509    0.000000
   122  O2    c     0.023743    0.660509    0.024455    0.000000
   123  O2    c     0.612647    0.945865    0.693197    0.000000
   124  O2    c     0.641972    0.606494    0.858034    0.000000
   125  O2    c     0.937807    0.314510    0.526073    0.000000
   126  O2    c     0.352791    0.029197    0.195231    0.000000
   127  O3    c     0.747069    0.280329    0.000969    0.000000
   128  O2    c     0.676181    0.444811    0.341226    0.000000
   129  O3    c     0.532819    0.233019    0.668962    0.000000
   130  O2    c     0.210903    0.676938    0.506089    0.000000
   131  O2    c     0.278118    0.516264    0.838987    0.000000
   132  O2    c     0.444606    0.759878    0.173500    0.000000
   133  O2    c     0.280024    0.747176    0.319202    0.000000
   134  O2    c     0.450440    0.691590    0.983671    0.000000
   135  O2    c     0.224041    0.513531    0.650995    0.000000
   136  O2    c     0.672615    0.213876    0.816211    0.000000
   137  O2    c     0.512941    0.286799    0.486923    0.000000
   138  O2    c     0.746797    0.454867    0.150527    0.000000
   139  O3    c     0.766368    0.542985    0.017619    0.000000
   140  O2    c     0.444991    0.228063    0.358743    0.000000
   141  O2    c     0.733269    0.203128    0.694547    0.000000
   142  O2    c     0.196452    0.445009    0.522936    0.000000
   143  O2    c     0.508902    0.735561    0.855402    0.000000
   144  O2    c     0.225089    0.770252    0.191858    0.000000
   145  O2    c     0.512026    0.763932    0.302509    0.000000
   146  O2    c     0.233621    0.457892    0.968713    0.000000
   147  O2    c     0.210514    0.731727    0.634893    0.000000
   148  O2    c     0.444497    0.197146    0.798475    0.000000
   149  O2    c     0.729341    0.518347    0.469788    0.000000
   150  O2    c     0.764302    0.241777    0.132632    0.000000
   151  O2    c     0.208673    0.312875    0.895646    0.000000
   152  O2    c     0.654426    0.891008    0.229736    0.000000
   153  O2    c     0.084647    0.755898    0.561805    0.000000
   154  O2    c     0.747549    0.656032    0.394333    0.000000
   155  O3    c     0.286859    0.074826    0.727693    0.000000
   156  O2    c     0.885645    0.223971    0.058761    0.000000
   157  O2    c     0.302895    0.212974    0.431722    0.000000
   158  O2    c     0.879764    0.658402    0.095195    0.000000
   159  O2    c     0.745610    0.075669    0.766563    0.000000
   160  O2    c     0.656687    0.758600    0.929486    0.000000
   161  O2    c     0.076740    0.305088    0.597813    0.000000
   162  O2    c     0.211799    0.891937    0.267243    0.000000
   163  O2    c     0.571273    0.554026    0.986667    0.000000
   164  O2    c     0.421648    0.003814    0.324152    0.000000
   165  O2    c     0.966463    0.401080    0.654582    0.000000
   166  O2    c     0.392593    0.423237    0.485980    0.000000
   167  O2    c     0.532873    0.960252    0.816143    0.000000
   168  O2    c     0.000749    0.570103    0.148368    0.000000
   169  O2    c     0.536705    0.564426    0.337653    0.000000
   170  O2    c     0.000986    0.432270    0.004049    0.000000
   171  O3    c     0.396309    0.944014    0.665236    0.000000
   172  O2    c     0.414956    0.391412    0.840881    0.000000
   173  O2    c     0.952311    0.544216    0.507467    0.000000
   174  O2    c     0.568946    0.018423    0.175727    0.000000
   175  O2    c     0.560614    0.146337    0.251608    0.000000
   176  O2    c     0.823862    0.405688    0.582164    0.000000
   177  O2    c     0.566416    0.407894    0.914591    0.000000
   178  O2    c     0.398007    0.821720    0.743036    0.000000
   179  O2    c     0.137333    0.566758    0.077409    0.000000
   180  O2    c     0.395157    0.560801    0.411023    0.000000
   181  F     c     0.429123    0.885513    0.246807    0.000000
   182  F     c     0.084625    0.530371    0.579303    0.000000
   183  F     c     0.429670    0.540910    0.911336    0.000000
   184  F     c     0.501291    0.081110    0.734615    0.000000
   185  F     c     0.845969    0.429500    0.069805    0.000000
   186  F     c     0.527766    0.432295    0.411779    0.000000
   187  O2    s     0.913086    0.001514    0.001792    0.000000
   188  O2    s     0.979459    0.901897    0.329966    0.000000
   189  O2    s     0.057145    0.056321    0.662643    0.000000
   190  O2    s     0.054931    0.981867    0.496647    0.000000
   191  O3    s     0.980826    0.057024    0.826638    0.000000
   192  O2    s     0.905112    0.916762    0.165129    0.000000
   193  O2    s     0.329837    0.563258    0.327587    0.000000
   194  O2    s     0.406977    0.744149    0.661209    0.000000
   195  O2    s     0.214350    0.637627    0.994310    0.000000
   196  O2    s     0.623516    0.396365    0.830262    0.000000
   197  O2    s     0.567839    0.221892    0.169357    0.000000
   198  O2    s     0.746420    0.338177    0.499219    0.000000
   199  O3    s     0.567374    0.345719    0.997828    0.000000
   200  O2    s     0.768361    0.412447    0.666090    0.000000
   201  O2    s     0.628030    0.211709    0.334360    0.000000
   202  O2    s     0.392304    0.627361    0.494147    0.000000
   203  O2    s     0.212288    0.576267    0.161747    0.000000
   204  O2    s     0.326883    0.747936    0.826721    0.000000
   205  O2    s     0.112339    0.209749    0.968617    0.000000
   206  O2    s     0.760726    0.881771    0.301473    0.000000
   207  O2    s     0.096060    0.867373    0.634621    0.000000
   208  O2    s     0.857822    0.766049    0.466275    0.000000
   209  O2    s     0.197889    0.081760    0.802731    0.000000
   210  O2    s     0.883211    0.110996    0.131914    0.000000
   211  O2    s     0.196662    0.099901    0.359730    0.000000
   212  O2    s     0.896504    0.787774    0.026385    0.000000
   213  O2    s     0.863702    0.082813    0.693976    0.000000
   214  O3    s     0.752800    0.849806    0.856496    0.000000
   215  O2    s     0.074119    0.197814    0.526166    0.000000
   216  O2    s     0.100496    0.892685    0.195188    0.000000
   217  O2    s     0.904256    0.837347    0.246846    0.000000
   218  O2    s     0.123641    0.053268    0.579714    0.000000
   219  O3    s     0.922271    0.048546    0.917290    0.000000
   220  O2    s     0.056829    0.124725    0.745620    0.000000
   221  O2    s     0.832984    0.913616    0.082120    0.000000
   222  O2    s     0.050529    0.911382    0.413616    0.000000
   223  O2    s     0.899387    0.197743    0.974722    0.000000
   224  O2    s     0.773282    0.681031    0.312211    0.000000
   225  O3    s     0.283054    0.085490    0.644580    0.000000
   226  O2    s     0.071373    0.777669    0.479428    0.000000
   227  O2    s     0.179759    0.280191    0.813102    0.000000
   228  O2    s     0.682837    0.899558    0.147361    0.000000
   229  O2    s     0.184974    0.887067    0.349391    0.000000
   230  O2    s     0.689998    0.791797    0.012098    0.000000
   231  O2    s     0.080837    0.278455    0.679852    0.000000
   232  O3    s     0.764122    0.077788    0.850306    0.000000
   233  O2    s     0.276057    0.188226    0.514392    0.000000
   234  O2    s     0.888101    0.693181    0.178604    0.000000
   235  O2    s     0.306358    0.640010    0.245450    0.000000
   236  O2    s     0.331147    0.651024    0.577883    0.000000
   237  O2    s     0.304201    0.658848    0.911041    0.000000
   238  O2    s     0.651295    0.331698    0.746384    0.000000
   239  O3    s     0.618945    0.303961    0.086015    0.000000
   240  O2    s     0.652811    0.311432    0.415676    0.000000
   241  O2    s     0.363308    0.335306    0.965434    0.000000
   242  O2    s     0.639401    0.015107    0.301464    0.000000
   243  O2    s     0.961248    0.614561    0.632436    0.000000
   244  O2    s     0.602179    0.641542    0.463549    0.000000
   245  O2    s     0.315335    0.944029    0.794545    0.000000
   246  O2    s     0.013285    0.366548    0.128617    0.000000
   247  O2    s     0.318645    0.354283    0.359874    0.000000
   248  O2    s     0.017658    0.651066    0.026101    0.000000
   249  O2    s     0.609879    0.952008    0.694991    0.000000
   250  O2    s     0.632139    0.603215    0.860417    0.000000
   251  O2    s     0.944935    0.324417    0.528382    0.000000
   252  O2    s     0.355959    0.022407    0.197578    0.000000
   253  O3    s     0.758325    0.287221    0.004119    0.000000
   254  O2    s     0.668599    0.444458    0.344398    0.000000
   255  O3    s     0.537496    0.229041    0.672821    0.000000
   256  O2    s     0.204202    0.669630    0.509326    0.000000
   257  O2    s     0.285828    0.517248    0.842288    0.000000
   258  O2    s     0.444055    0.766445    0.176852    0.000000
   259  O2    s     0.287900    0.754500    0.316281    0.000000
   260  O2    s     0.449304    0.683491    0.980672    0.000000
   261  O2    s     0.216426    0.514248    0.647949    0.000000
   262  O2    s     0.665249    0.207175    0.813686    0.000000
   263  O2    s     0.513527    0.294308    0.483833    0.000000
   264  O2    s     0.753401    0.454838    0.147886    0.000000
   265  O3    s     0.775892    0.544788    0.021029    0.000000
   266  O2    s     0.447668    0.236198    0.361359    0.000000
   267  O2    s     0.726958    0.198336    0.696418    0.000000
   268  O2    s     0.191490    0.447950    0.525603    0.000000
   269  O2    s     0.505836    0.726937    0.858054    0.000000
   270  O2    s     0.233627    0.775520    0.194478    0.000000
   271  O2    s     0.509410    0.769083    0.299936    0.000000
   272  O2    s     0.241581    0.460799    0.966036    0.000000
   273  O2    s     0.205335    0.724542    0.632280    0.000000
   274  O2    s     0.447756    0.193773    0.796333    0.000000
   275  O2    s     0.721591    0.515579    0.467117    0.000000
   276  O2    s     0.768591    0.247735    0.130469    0.000000
   277  O2    s     0.218755    0.322279    0.896397    0.000000
   278  O2    s     0.644853    0.890949    0.230591    0.000000
   279  O2    s     0.084468    0.746426    0.562625    0.000000
   280  O2    s     0.738109    0.646485    0.395209    0.000000
   281  O3    s     0.296902    0.075022    0.730443    0.000000
   282  O2    s     0.885270    0.231588    0.059788    0.000000
   283  O2    s     0.312416    0.222152    0.430812    0.000000
   284  O2    s     0.880594    0.650704    0.094841    0.000000
   285  O2    s     0.737544    0.076415    0.765643    0.000000
   286  O2    s     0.646870    0.748764    0.928812    0.000000
   287  O2    s     0.077256    0.314912    0.596927    0.000000
   288  O2    s     0.220940    0.891439    0.266282    0.000000
   289  O2    s     0.567293    0.554746    0.983491    0.000000
   290  O2    s     0.421247    0.999647    0.320702    0.000000
   291  O2    s     0.971152    0.405612    0.651132    0.000000
   292  O2    s     0.396992    0.422771    0.482708    0.000000
   293  O2    s     0.533606    0.963955    0.813434    0.000000
   294  O2    s     0.997187    0.566589    0.145630    0.000000
   295  O2    s     0.537011    0.559816    0.341134    0.000000
   296  O2    s     0.998392    0.432687    0.006928    0.000000
   297  O3    s     0.402618    0.946594    0.669373    0.000000
   298  O2    s     0.415206    0.396947    0.844046    0.000000
   299  O2    s     0.957785    0.544362    0.510753    0.000000
   300  O2    s     0.563827    0.012895    0.179067    0.000000
   301  O2    s     0.555344    0.135426    0.251405    0.000000
   302  O2    s     0.835107    0.411369    0.581993    0.000000
   303  O2    s     0.560924    0.412807    0.914211    0.000000
   304  O2    s     0.402812    0.831125    0.743398    0.000000
   305  O2    s     0.127943    0.562364    0.077506    0.000000
   306  O2    s     0.400774    0.555377    0.411063    0.000000
   307  F     s     0.428784    0.884997    0.246606    0.000000
   308  F     s     0.085005    0.530337    0.579257    0.000000
   309  F     s     0.429238    0.541672    0.911161    0.000000
   310  F     s     0.494622    0.081373    0.731561    0.000000
   311  F     s     0.834850    0.425510    0.067135    0.000000
   312  F     s     0.528039    0.432104    0.411603    0.000000
--------------------------------------------------------------------------------

  Final Cartesian lattice vectors (Angstroms) :

       11.953246    0.006363   -0.023260
       -6.005738   10.405750    0.018873
       -0.413574   -0.130631   29.386490


  Final cell parameters and derivatives :

--------------------------------------------------------------------------------
       a           11.953270 Angstrom     dE/de1(xx)     0.001824 eV/strain
       b           12.014528 Angstrom     dE/de2(yy)     0.001004 eV/strain
       c           29.389691 Angstrom     dE/de3(zz)     0.003983 eV/strain
       alpha       89.727540 Degrees      dE/de4(yz)    -0.000110 eV/strain
       beta        90.917924 Degrees      dE/de5(xz)     0.000551 eV/strain
       gamma      119.961234 Degrees      dE/de6(xy)     0.000192 eV/strain
--------------------------------------------------------------------------------

  Primitive cell volume =          3656.199035 Angs**3

  Density of cell =      1.749930 g/cm**3

  Non-primitive cell volume =          3656.199035 Angs**3


  Final internal derivatives :

--------------------------------------------------------------------------------
   No.  Atomic          a             b             c           Radius
        Label          (eV)          (eV)          (eV)        (eV/Angs)
--------------------------------------------------------------------------------
      1 Ge    c       0.000000      0.000000      0.000000      0.000000
      2 Si    c       0.000100      0.000763      0.001109      0.000000
      3 Si    c      -0.000538     -0.000100      0.000611      0.000000
      4 Si    c       0.000030      0.000368      0.000788      0.000000
      5 Si    c       0.000048      0.000385     -0.000238      0.000000
      6 Si    c      -0.000278     -0.000497      0.000139      0.000000
      7 Si    c      -0.000297     -0.000288     -0.001395      0.000000
      8 Si    c       0.000720      0.000214     -0.001246      0.000000
      9 Si    c       0.000292      0.000323      0.000139      0.000000
     10 Si    c      -0.000094     -0.000058     -0.000170      0.000000
     11 Si    c       0.000038     -0.000183     -0.000220      0.000000
     12 Si    c       0.000851     -0.000703      0.004858      0.000000
     13 Si    c      -0.001439      0.000658     -0.002853      0.000000
     14 Si    c      -0.000173      0.000148     -0.000298      0.000000
     15 Si    c       0.000151     -0.000220     -0.001480      0.000000
     16 Si    c      -0.000082     -0.000090     -0.000396      0.000000
     17 Si    c       0.000057     -0.000163     -0.000507      0.000000
     18 Si    c       0.000307      0.000505     -0.000085      0.000000
     19 Si    c       0.000682      0.000495      0.000530      0.000000
     20 Si    c       0.000183      0.000188      0.000491      0.000000
     21 Si    c      -0.000242      0.000368     -0.000303      0.000000
     22 Si    c      -0.000029     -0.000145      0.000466      0.000000
     23 Si    c      -0.000555     -0.000424     -0.000754      0.000000
     24 Si    c       0.000152      0.000313      0.001066      0.000000
     25 Si    c       0.000010     -0.000073     -0.000608      0.000000
     26 Si    c       0.000072     -0.000245      0.001178      0.000000
     27 Si    c       0.000361      0.000400      0.000313      0.000000
     28 Si    c       0.000421      0.000713      0.000824      0.000000
     29 Ge    c      -0.000212     -0.000106      0.000265      0.000000
     30 Si    c       0.001441      0.000814      0.000378      0.000000
     31 Si    c      -0.000081     -0.000007     -0.001546      0.000000
     32 Si    c       0.000645      0.000220     -0.000358      0.000000
     33 Si    c      -0.000150     -0.000339     -0.000155      0.000000
     34 Si    c       0.000654      0.000214      0.000881      0.000000
     35 Si    c      -0.000283     -0.000197     -0.000259      0.000000
     36 Si    c      -0.000242      0.000104     -0.001802      0.000000
     37 Si    c       0.000447      0.000234      0.000654      0.000000
     38 Si    c       0.000233     -0.000112      0.000349      0.000000
     39 Si    c       0.000145      0.000060      0.000178      0.000000
     40 Si    c       0.000430      0.000281      0.000401      0.000000
     41 Si    c       0.000209     -0.000120      0.000439      0.000000
     42 Si    c       0.000113      0.000185      0.000151      0.000000
     43 Si    c       0.000339      0.000161     -0.000307      0.000000
     44 Si    c       0.000484     -0.000273     -0.002330      0.000000
     45 Si    c      -0.000283     -0.000198      0.000115      0.000000
     46 Si    c       0.000233      0.000226     -0.000026      0.000000
     47 Si    c      -0.000052      0.000330     -0.000150      0.000000
     48 Si    c      -0.000294      0.000062     -0.000523      0.000000
     49 Si    c       0.000295      0.001129      0.001998      0.000000
     50 Si    c       0.001091      0.000871     -0.000233      0.000000
     51 Si    c       0.000626      0.000733     -0.000799      0.000000
     52 Si    c       0.000387      0.000214      0.000117      0.000000
     53 Si    c       0.001821      0.001022     -0.000835      0.000000
     54 Si    c       0.000181     -0.000089      0.001387      0.000000
     55 Si    c      -0.000167     -0.000033      0.000231      0.000000
     56 Si    c      -0.000369     -0.000553      0.000188      0.000000
     57 Si    c       0.000146      0.000276     -0.000401      0.000000
     58 Ge    c      -0.000771      0.001810      0.001906      0.000000
     59 Si    c      -0.000277     -0.000233      0.000763      0.000000
     60 Si    c       0.000026      0.000219     -0.001276      0.000000
     61 O2    c       0.000558     -0.000391      0.001298      0.000000
     62 O2    c      -0.000212      0.000324     -0.000372      0.000000
     63 O2    c       0.000137     -0.000049     -0.000339      0.000000
     64 O2    c       0.000078      0.000138     -0.000310      0.000000
     65 O3    c      -0.001051     -0.000450     -0.001442      0.000000
     66 O2    c       0.000210      0.000019      0.000415      0.000000
     67 O2    c       0.000184     -0.000026     -0.000256      0.000000
     68 O2    c      -0.000260     -0.000158     -0.000020      0.000000
     69 O2    c       0.000169      0.000082      0.000846      0.000000
     70 O2    c       0.000094      0.000113      0.000096      0.000000
     71 O2    c      -0.000324      0.000134     -0.000326      0.000000
     72 O2    c       0.000179      0.000093      0.000083      0.000000
     73 O3    c      -0.001153     -0.001641     -0.000424      0.000000
     74 O2    c       0.000048      0.000012     -0.000031      0.000000
     75 O2    c       0.000004     -0.000189     -0.000598      0.000000
     76 O2    c      -0.000119     -0.000078      0.000539      0.000000
     77 O2    c      -0.000097     -0.000056      0.000242      0.000000
     78 O2    c       0.000184      0.000012     -0.000426      0.000000
     79 O2    c       0.000452     -0.000073     -0.000121      0.000000
     80 O2    c      -0.000501      0.000028     -0.000273      0.000000
     81 O2    c      -0.000058      0.000060     -0.000279      0.000000
     82 O2    c       0.000150      0.000041     -0.000651      0.000000
     83 O2    c       0.000192     -0.000473      0.000000      0.000000
     84 O2    c      -0.000126     -0.000128     -0.000691      0.000000
     85 O2    c       0.000397      0.000351      0.000398      0.000000
     86 O2    c       0.001189     -0.000421     -0.000265      0.000000
     87 O2    c       0.000124      0.000109      0.000485      0.000000
     88 O3    c       0.000177     -0.000993     -0.001132      0.000000
     89 O2    c       0.000367      0.000312      0.000172      0.000000
     90 O2    c       0.000129      0.000107      0.000184      0.000000
     91 O2    c      -0.000042      0.000095     -0.000128      0.000000
     92 O2    c      -0.000065      0.000144      0.000721      0.000000
     93 O3    c      -0.000072     -0.001735     -0.009960      0.000000
     94 O2    c      -0.000603      0.000147     -0.002631      0.000000
     95 O2    c      -0.000154      0.000625      0.003762      0.000000
     96 O2    c       0.000103      0.000045      0.000547      0.000000
     97 O2    c      -0.000755      0.001203     -0.000227      0.000000
     98 O2    c       0.000078     -0.000510      0.000702      0.000000
     99 O3    c       0.000129      0.000072      0.001505      0.000000
    100 O2    c      -0.000125     -0.000114      0.000198      0.000000
    101 O2    c       0.000006      0.000095      0.000623      0.000000
    102 O2    c       0.000067     -0.000163     -0.000496      0.000000
    103 O2    c       0.000305     -0.000222     -0.000120      0.000000
    104 O2    c      -0.000549     -0.000238     -0.000544      0.000000
    105 O2    c      -0.000026      0.000176     -0.000312      0.000000
    106 O3    c      -0.000616      0.000129     -0.001192      0.000000
    107 O2    c       0.000073      0.000242     -0.000528      0.000000
    108 O2    c       0.000138     -0.000076     -0.000081      0.000000
    109 O2    c       0.000262      0.000057      0.000164      0.000000
    110 O2    c       0.000068      0.000068      0.000086      0.000000
    111 O2    c      -0.000105      0.000209      0.000363      0.000000
    112 O2    c      -0.000026      0.000331     -0.000598      0.000000
    113 O3    c      -0.002743     -0.001494     -0.000370      0.000000
    114 O2    c      -0.000138      0.000162     -0.000715      0.000000
    115 O2    c      -0.000260     -0.000268      0.000961      0.000000
    116 O2    c      -0.000115     -0.000103      0.000273      0.000000
    117 O2    c      -0.000249     -0.000026     -0.000119      0.000000
    118 O2    c       0.000241      0.000027      0.000109      0.000000
    119 O2    c      -0.000289     -0.000253      0.000194      0.000000
    120 O2    c       0.000238     -0.000112      0.000454      0.000000
    121 O2    c       0.000234     -0.000227     -0.000322      0.000000
    122 O2    c       0.000400      0.000608     -0.000267      0.000000
    123 O2    c       0.000005     -0.000191     -0.000067      0.000000
    124 O2    c       0.000193      0.000128      0.000510      0.000000
    125 O2    c       0.000237      0.000186     -0.000006      0.000000
    126 O2    c       0.000010      0.000236     -0.000537      0.000000
    127 O3    c      -0.000028     -0.000056     -0.002602      0.000000
    128 O2    c       0.000095      0.000191     -0.000180      0.000000
    129 O3    c       0.000513      0.000209     -0.000718      0.000000
    130 O2    c      -0.000021     -0.000249     -0.000272      0.000000
    131 O2    c       0.000028      0.000300     -0.000147      0.000000
    132 O2    c       0.000311     -0.000021     -0.000639      0.000000
    133 O2    c       0.000034      0.000137      0.000883      0.000000
    134 O2    c      -0.000021      0.000144      0.000612      0.000000
    135 O2    c       0.000039      0.000055      0.000456      0.000000
    136 O2    c       0.000037      0.000283      0.000404      0.000000
    137 O2    c      -0.000043      0.000106      0.000162      0.000000
    138 O2    c      -0.000109      0.000160      0.000144      0.000000
    139 O3    c      -0.000262     -0.000373     -0.000903      0.000000
    140 O2    c       0.000180      0.000057     -0.000763      0.000000
    141 O2    c       0.000312      0.000187     -0.000473      0.000000
    142 O2    c       0.000360     -0.000082     -0.000719      0.000000
    143 O2    c       0.000620      0.000118      0.000527      0.000000
    144 O2    c       0.000069      0.000016     -0.000272      0.000000
    145 O2    c       0.000155     -0.000324      0.000799      0.000000
    146 O2    c      -0.000244     -0.000246      0.000817      0.000000
    147 O2    c      -0.000207      0.000095      0.000048      0.000000
    148 O2    c      -0.000367      0.000118     -0.000037      0.000000
    149 O2    c      -0.000086     -0.000126     -0.000422      0.000000
    150 O2    c      -0.000259     -0.000110     -0.000300      0.000000
    151 O2    c      -0.000072     -0.000109     -0.000076      0.000000
    152 O2    c      -0.000039     -0.000101     -0.000584      0.000000
    153 O2    c      -0.000062     -0.000075     -0.000872      0.000000
    154 O2    c       0.000047     -0.000160     -0.000286      0.000000
    155 O3    c      -0.000085     -0.000123     -0.001383      0.000000
    156 O2    c      -0.000102     -0.000335     -0.001661      0.000000
    157 O2    c      -0.000022     -0.000055      0.000803      0.000000
    158 O2    c      -0.000031      0.000523      0.003091      0.000000
    159 O2    c       0.000450     -0.000268      0.000821      0.000000
    160 O2    c       0.000272      0.000120     -0.000169      0.000000
    161 O2    c      -0.000103     -0.000099      0.000116      0.000000
    162 O2    c      -0.000081      0.000057      0.000487      0.000000
    163 O2    c       0.000507     -0.000529      0.000552      0.000000
    164 O2    c      -0.000189      0.000007      0.000440      0.000000
    165 O2    c      -0.000261      0.000010     -0.000170      0.000000
    166 O2    c      -0.000015      0.000154      0.000554      0.000000
    167 O2    c      -0.000322     -0.000252      0.000196      0.000000
    168 O2    c      -0.000059      0.000191      0.000637      0.000000
    169 O2    c       0.000218      0.000201     -0.000414      0.000000
    170 O2    c       0.000368      0.000280     -0.000444      0.000000
    171 O3    c       0.000054      0.000018     -0.000335      0.000000
    172 O2    c       0.000737      0.000096     -0.000232      0.000000
    173 O2    c       0.000228      0.000176      0.000045      0.000000
    174 O2    c       0.000136     -0.000228     -0.000793      0.000000
    175 O2    c      -0.000170     -0.000012      0.000202      0.000000
    176 O2    c       0.000191      0.000117     -0.000092      0.000000
    177 O2    c       0.000560     -0.000462     -0.001317      0.000000
    178 O2    c       0.000189     -0.000180      0.000509      0.000000
    179 O2    c       0.000276      0.000130      0.000249      0.000000
    180 O2    c       0.000164      0.000166      0.000489      0.000000
    181 F     c       0.000046      0.000024      0.000013      0.000000
    182 F     c      -0.000358      0.000118     -0.000065      0.000000
    183 F     c       0.000208      0.000103     -0.000409      0.000000
    184 F     c      -0.000142     -0.000006     -0.000337      0.000000
    185 F     c      -0.000022      0.000399     -0.000643      0.000000
    186 F     c       0.000258      0.000065     -0.000050      0.000000
    187 O2    s      -0.000044     -0.000445      0.000775      0.000000
    188 O2    s      -0.000349      0.000571     -0.001028      0.000000
    189 O2    s       0.000615      0.000322     -0.000496      0.000000
    190 O2    s       0.000104     -0.000446      0.000105      0.000000
    191 O3    s      -0.000257      0.000508      0.000811      0.000000
    192 O2    s       0.000405      0.000018      0.000188      0.000000
    193 O2    s       0.000246      0.000306      0.000207      0.000000
    194 O2    s      -0.000536      0.000021     -0.001731      0.000000
    195 O2    s      -0.000014      0.000030      0.000753      0.000000
    196 O2    s       0.000051     -0.000052     -0.000377      0.000000
    197 O2    s       0.000493     -0.000254      0.001859      0.000000
    198 O2    s       0.000271     -0.000025      0.000054      0.000000
    199 O3    s       0.001759      0.001112      0.001312      0.000000
    200 O2    s      -0.000320     -0.000177     -0.000036      0.000000
    201 O2    s       0.000314     -0.000343     -0.000820      0.000000
    202 O2    s       0.000047      0.000097     -0.000305      0.000000
    203 O2    s      -0.000093      0.000225      0.001105      0.000000
    204 O2    s       0.000180      0.000233      0.000103      0.000000
    205 O2    s       0.000768      0.000753     -0.000008      0.000000
    206 O2    s      -0.000045      0.000641     -0.000056      0.000000
    207 O2    s      -0.000009     -0.000253     -0.000374      0.000000
    208 O2    s      -0.000050     -0.000418      0.000114      0.000000
    209 O2    s       0.000601      0.000082      0.000705      0.000000
    210 O2    s      -0.000156     -0.000084      0.000293      0.000000
    211 O2    s       0.000422      0.000264      0.000086      0.000000
    212 O2    s       0.000738     -0.000637     -0.001589      0.000000
    213 O2    s       0.000101      0.000082     -0.000082      0.000000
    214 O3    s       0.000087     -0.000518      0.001441      0.000000
    215 O2    s      -0.000026     -0.000015     -0.000282      0.000000
    216 O2    s       0.000200      0.000161     -0.000117      0.000000
    217 O2    s       0.000669      0.000929      0.000460      0.000000
    218 O2    s       0.000208      0.000340     -0.000481      0.000000
    219 O3    s       0.000551      0.000351     -0.000248      0.000000
    220 O2    s       0.000663      0.000995     -0.001919      0.000000
    221 O2    s      -0.000669      0.000667      0.002177      0.000000
    222 O2    s       0.000029     -0.000065      0.000529      0.000000
    223 O2    s      -0.000553      0.001727      0.002301      0.000000
    224 O2    s       0.000476     -0.000570      0.001229      0.000000
    225 O3    s      -0.000302     -0.000419     -0.001160      0.000000
    226 O2    s       0.000046      0.000333     -0.000139      0.000000
    227 O2    s       0.001021      0.000182      0.000243      0.000000
    228 O2    s       0.000475     -0.000041     -0.000345      0.000000
    229 O2    s      -0.000229     -0.000512     -0.000071      0.000000
    230 O2    s      -0.000586     -0.000648     -0.000831      0.000000
    231 O2    s      -0.000182     -0.000063     -0.000134      0.000000
    232 O3    s       0.000029     -0.000020      0.000311      0.000000
    233 O2    s       0.000245     -0.000080     -0.000022      0.000000
    234 O2    s       0.000416     -0.000163     -0.000230      0.000000
    235 O2    s      -0.000453     -0.000380      0.000291      0.000000
    236 O2    s       0.000418      0.000525     -0.000739      0.000000
    237 O2    s       0.000143      0.000653     -0.000162      0.000000
    238 O2    s       0.000035      0.000339     -0.000937      0.000000
    239 O3    s       0.001555      0.002517     -0.002474      0.000000
    240 O2    s       0.000195      0.000235      0.000011      0.000000
    241 O2    s      -0.000437      0.000324     -0.001215      0.000000
    242 O2    s      -0.000199      0.000047     -0.000154      0.000000
    243 O2    s      -0.000127      0.000153     -0.000696      0.000000
    244 O2    s       0.000028      0.000193      0.000102      0.000000
    245 O2    s      -0.000028     -0.000071     -0.000179      0.000000
    246 O2    s       0.000439     -0.000244      0.001132      0.000000
    247 O2    s       0.000269     -0.000213     -0.000735      0.000000
    248 O2    s       0.000316      0.000541     -0.000600      0.000000
    249 O2    s      -0.000175      0.000127      0.000109      0.000000
    250 O2    s       0.000184      0.000076      0.000007      0.000000
    251 O2    s      -0.000015      0.000053      0.000016      0.000000
    252 O2    s       0.000043     -0.000014     -0.000080      0.000000
    253 O3    s      -0.000022      0.000783      0.000047      0.000000
    254 O2    s       0.000431      0.000073      0.000649      0.000000
    255 O3    s      -0.000037     -0.000179      0.000481      0.000000
    256 O2    s       0.000225      0.000113     -0.000186      0.000000
    257 O2    s       0.000093      0.000384     -0.001041      0.000000
    258 O2    s       0.000236     -0.000034      0.000253      0.000000
    259 O2    s      -0.000229     -0.000129     -0.000216      0.000000
    260 O2    s       0.000079     -0.000003      0.000149      0.000000
    261 O2    s       0.000131      0.000090      0.000548      0.000000
    262 O2    s      -0.000091      0.000043      0.000471      0.000000
    263 O2    s       0.000186     -0.000159     -0.000172      0.000000
    264 O2    s       0.000052     -0.000421      0.000949      0.000000
    265 O3    s      -0.000225     -0.000483      0.000353      0.000000
    266 O2    s       0.000270      0.000138      0.000084      0.000000
    267 O2    s      -0.000032     -0.000192     -0.000145      0.000000
    268 O2    s       0.000127     -0.000142     -0.001304      0.000000
    269 O2    s       0.000068      0.000003      0.000327      0.000000
    270 O2    s      -0.000139     -0.000269      0.000081      0.000000
    271 O2    s       0.000049      0.000134      0.000223      0.000000
    272 O2    s       0.000362     -0.000138      0.000197      0.000000
    273 O2    s       0.000073      0.000353     -0.000856      0.000000
    274 O2    s      -0.000413     -0.000185     -0.000087      0.000000
    275 O2    s       0.000452     -0.000084     -0.000169      0.000000
    276 O2    s      -0.000313      0.000217      0.001439      0.000000
    277 O2    s       0.000189     -0.000298      0.001073      0.000000
    278 O2    s      -0.000176      0.000199     -0.000080      0.000000
    279 O2    s       0.000148      0.000304     -0.000507      0.000000
    280 O2    s       0.000645      0.000093     -0.000171      0.000000
    281 O3    s       0.000297      0.000176     -0.000006      0.000000
    282 O2    s       0.000809     -0.000914      0.000027      0.000000
    283 O2    s       0.000243     -0.000111      0.000095      0.000000
    284 O2    s       0.000199      0.000820      0.000495      0.000000
    285 O2    s       0.000162     -0.000374      0.000109      0.000000
    286 O2    s       0.000344     -0.000295     -0.000192      0.000000
    287 O2    s      -0.000261     -0.000142     -0.000571      0.000000
    288 O2    s       0.000053     -0.000324      0.000296      0.000000
    289 O2    s       0.000131     -0.000123     -0.000358      0.000000
    290 O2    s       0.000154     -0.000154     -0.000378      0.000000
    291 O2    s      -0.000124     -0.000126     -0.001324      0.000000
    292 O2    s      -0.000152      0.000169      0.000256      0.000000
    293 O2    s      -0.000121      0.000046      0.000129      0.000000
    294 O2    s       0.000197      0.000421      0.001491      0.000000
    295 O2    s       0.000087      0.000465      0.000353      0.000000
    296 O2    s       0.000474     -0.000927     -0.000513      0.000000
    297 O3    s      -0.000271     -0.000217      0.001711      0.000000
    298 O2    s       0.000250     -0.000328      0.000226      0.000000
    299 O2    s      -0.000061      0.000060     -0.000806      0.000000
    300 O2    s       0.000526     -0.000011      0.000833      0.000000
    301 O2    s       0.000390      0.000039     -0.000658      0.000000
    302 O2    s      -0.000201     -0.000169      0.000351      0.000000
    303 O2    s       0.000185      0.000338     -0.001827      0.000000
    304 O2    s      -0.000372     -0.000465      0.000345      0.000000
    305 O2    s       0.001010      0.000491     -0.000102      0.000000
    306 O2    s       0.000183      0.000667     -0.000099      0.000000
    307 F     s       0.000044     -0.000010     -0.000042      0.000000
    308 F     s      -0.000321      0.000127     -0.000130      0.000000
    309 F     s       0.000603     -0.000073     -0.000148      0.000000
    310 F     s      -0.000103     -0.000129     -0.000382      0.000000
    311 F     s      -0.000579     -0.000366     -0.000578      0.000000
    312 F     s       0.000323     -0.000039     -0.000119      0.000000
--------------------------------------------------------------------------------
  Maximum abs         0.002743      0.002517      0.009960      0.000000
--------------------------------------------------------------------------------


  Time to end of optimisation =     176.2844 seconds


  Peak dynamic memory used =      19.13 MB 


  Timing analysis for GULP :

--------------------------------------------------------------------------------
  Task / Subroutine                                          Time (Seconds)
--------------------------------------------------------------------------------
  Calculation of reciprocal space energy and derivatives          4.1632
  Calculation of real space energy and derivatives              154.7636
  Calculation of three-body energy and derivatives               15.2565
  Calculation of matrix inversion                                 1.8640
  Global summation overhead                                       0.0003
--------------------------------------------------------------------------------
  Total CPU time                                                176.2845
--------------------------------------------------------------------------------


  Dump file written as out.res                                                 
  CIF file written as out.cif                                                 


  Job Finished at 19:52.47  6th November   2016                               

