********************************************************************************
*                       GENERAL UTILITY LATTICE PROGRAM                        *
*                                 Julian Gale                                  *
*                      Nanochemistry Research Institute                        *
*                           Department of Chemistry                            *
*                    Curtin University, Western Australia                      *
********************************************************************************
* Version = 4.2.0 * Last modified =  20th January 2014                         *
********************************************************************************
*  optimise     - perform optimisation run                                     *
*  conp         - constant pressure calculation                                *
*  qok          - running with non charge neutral cell is OK                   *
********************************************************************************

  Job Started  at 16:11.05  7th November   2016                               

  Number of CPUs =     1


  Total number of configurations input =   1

********************************************************************************
*  Input for Configuration =   1                                               *
********************************************************************************

  Formula = Ge3Si57O120F6                                               

  Number of irreducible atoms/shells =     312


  Total number atoms/shells =     312

  Dimensionality = 3               :  Bulk   


  Charge on solid   =  -6.000000 =>neutralising background added


  Cartesian lattice vectors (Angstroms) :

       11.964003    0.000000    0.000000
       -6.058579   10.385152    0.000000
       -0.118787    0.002182   29.408951

  Cell parameters (Angstroms/Degrees):

  a =      11.9640    alpha =  89.8797
  b =      12.0232    beta  =  90.2314
  c =      29.4092    gamma = 120.2588

  Initial cell volume =        3654.003108 Angs**3

  Temperature of configuration =  0.000     K 

  Pressure of configuration =         0.000 GPa 

  Fractional coordinates of asymmetric unit :

--------------------------------------------------------------------------------
   No.  Atomic       x           y          z         Charge      Occupancy
        Label      (Frac)      (Frac)     (Frac)        (e)         (Frac)  
--------------------------------------------------------------------------------
      1 Ge    c    0.699600    0.375700    0.033890     4.00000    1.000000    
      2 Si    c    0.610494 *  0.311058 *  0.365627 *   4.00000    1.000000    
      3 Si    c    0.678196 *  0.301524 *  0.696675 *   4.00000    1.000000    
      4 Si    c    0.298689 *  0.633881 *  0.529322 *   4.00000    1.000000    
      5 Si    c    0.372848 *  0.674547 *  0.860589 *   4.00000    1.000000    
      6 Si    c    0.310033 *  0.696014 *  0.195976 *   4.00000    1.000000    
      7 Si    c    0.364288 *  0.689572 *  0.296776 *   4.00000    1.000000    
      8 Si    c    0.318404 *  0.624779 *  0.961295 *   4.00000    1.000000    
      9 Si    c    0.299789 *  0.684682 *  0.630120 *   4.00000    1.000000    
     10 Si    c    0.621697 *  0.298552 *  0.797400 *   4.00000    1.000000    
     11 Si    c    0.676764 *  0.373955 *  0.467701 *   4.00000    1.000000    
     12 Si    c    0.680333 *  0.311302 *  0.132158 *   4.00000    1.000000    
     13 Si    c    0.533420 *  0.422539 *  0.965448 *   4.00000    1.000000    
     14 Si    c    0.571021 *  0.098890 *  0.301947 *   4.00000    1.000000    
     15 Si    c    0.889666 *  0.474118 *  0.631476 *   4.00000    1.000000    
     16 Si    c    0.460870 *  0.585833 *  0.465955 *   4.00000    1.000000    
     17 Si    c    0.416132 *  0.888241 *  0.796686 *   4.00000    1.000000    
     18 Si    c    0.101293 *  0.526660 *  0.127875 *   4.00000    1.000000    
     19 Si    c    0.401053 *  0.517949 *  0.363070 *   4.00000    1.000000    
     20 Si    c    0.101266 *  0.581397 *  0.024625 *   4.00000    1.000000    
     21 Si    c    0.472155 *  0.894148 *  0.695037 *   4.00000    1.000000    
     22 Si    c    0.580343 *  0.468807 *  0.862484 *   4.00000    1.000000    
     23 Si    c    0.896238 *  0.424425 *  0.530102 *   4.00000    1.000000    
     24 Si    c    0.519541 *  0.104620 *  0.200482 *   4.00000    1.000000    
     25 Si    c    0.297408 *  0.397400 *  0.847750 *   4.00000    1.000000    
     26 Si    c    0.590694 *  0.898266 *  0.183188 *   4.00000    1.000000    
     27 Si    c    0.095577 *  0.706696 *  0.515208 *   4.00000    1.000000    
     28 Si    c    0.687065 *  0.590193 *  0.348693 *   4.00000    1.000000    
     29 Si    c    0.398608 *  0.100915 *  0.680549 *   4.00000    1.000000    
     30 Si    c    0.886546 *  0.294139 *  0.008533 *   4.00000    1.000000    
     31 Ge    c    0.405564 *  0.314081 *  0.473155 *   4.00000    1.000000    
     32 Si    c    0.886446 *  0.596435 *  0.141844 *   4.00000    1.000000    
     33 Si    c    0.697811 *  0.097594 *  0.811767 *   4.00000    1.000000    
     34 Si    c    0.597120 *  0.702442 *  0.975652 *   4.00000    1.000000    
     35 Si    c    0.101706 *  0.405294 *  0.644498 *   4.00000    1.000000    
     36 Si    c    0.288538 *  0.889657 *  0.313826 *   4.00000    1.000000    
     37 Si    c    0.254278 *  0.348237 *  0.948692 *   4.00000    1.000000    
     38 Si    c    0.646836 *  0.898866 *  0.283970 *   4.00000    1.000000    
     39 Si    c    0.088632 *  0.754261 *  0.616224 *   4.00000    1.000000    
     40 Si    c    0.742785 *  0.657268 *  0.450315 *   4.00000    1.000000    
     41 Si    c    0.340146 *  0.089700 *  0.781534 *   4.00000    1.000000    
     42 Si    c    0.896462 *  0.244522 *  0.111605 *   4.00000    1.000000    
     43 Si    c    0.321570 *  0.235675 *  0.377452 *   4.00000    1.000000    
     44 Si    c    0.895942 *  0.659011 *  0.039251 *   4.00000    1.000000    
     45 Si    c    0.751604 *  0.094492 *  0.711034 *   4.00000    1.000000    
     46 Si    c    0.654180 *  0.747149 *  0.874552 *   4.00000    1.000000    
     47 Si    c    0.098444 *  0.348635 *  0.543496 *   4.00000    1.000000    
     48 Si    c    0.238605 *  0.903472 *  0.213063 *   4.00000    1.000000    
     49 Ge    c    0.973467 *  0.122578 *  0.961172 *   4.00000    1.000000    
     50 Si    c    0.863798 *  0.835477 *  0.296650 *   4.00000    1.000000    
     51 Si    c    0.150461 *  0.033421 *  0.628765 *   4.00000    1.000000    
     52 Si    c    0.022906 *  0.882138 *  0.464043 *   4.00000    1.000000    
     53 Si    c    0.121732 *  0.150003 *  0.795205 *   4.00000    1.000000    
     54 Si    c    0.838116 *  0.967121 *  0.130848 *   4.00000    1.000000    
     55 Si    c    0.109098 *  0.959317 *  0.361602 *   4.00000    1.000000    
     56 Si    c    0.843008 *  0.880228 *  0.029329 *   4.00000    1.000000    
     57 Si    c    0.031887 *  0.156086 *  0.694107 *   4.00000    1.000000    
     58 Si    c    0.875913 *  0.022651 *  0.859129 *   4.00000    1.000000    
     59 Si    c    0.156619 *  0.127686 *  0.527166 *   4.00000    1.000000    
     60 Si    c    0.959123 *  0.844088 *  0.195181 *   4.00000    1.000000    
     61 O3    c    0.931345 *  0.007853 *  0.002436 *   1.33043    1.000000    
     62 O2    c    0.987216 *  0.913226 *  0.328451 *   0.87073    1.000000    
     63 O2    c    0.069724 *  0.076462 *  0.660252 *   0.87073    1.000000    
     64 O2    c    0.062999 *  0.004962 *  0.495209 *   0.87073    1.000000    
     65 O2    c    0.995085 *  0.066025 *  0.825121 *   0.87073    1.000000    
     66 O2    c    0.922242 *  0.931247 *  0.164327 *   0.87073    1.000000    
     67 O2    c    0.326858 *  0.565813 *  0.328932 *   0.87073    1.000000    
     68 O2    c    0.424056 *  0.769484 *  0.662470 *   0.87073    1.000000    
     69 O2    c    0.229123 *  0.659446 *  0.993566 *   0.87073    1.000000    
     70 O2    c    0.657490 *  0.419946 *  0.830517 *   0.87073    1.000000    
     71 O2    c    0.572503 *  0.234250 *  0.170797 *   0.87073    1.000000    
     72 O2    c    0.773499 *  0.344557 *  0.496471 *   0.87073    1.000000    
     73 O3    c    0.567508 *  0.340646 *  0.998400 *   1.33043    1.000000    
     74 O2    c    0.764211 *  0.424584 *  0.663994 *   0.87073    1.000000    
     75 O2    c    0.648581 *  0.224117 *  0.334448 *   0.87073    1.000000    
     76 O2    c    0.420385 *  0.674986 *  0.495058 *   0.87073    1.000000    
     77 O2    c    0.225122 *  0.576393 *  0.161446 *   0.87073    1.000000    
     78 O2    c    0.336161 *  0.760497 *  0.827809 *   0.87073    1.000000    
     79 O3    c    0.135237 *  0.221998 *  0.970467 *   1.33043    1.000000    
     80 O2    c    0.773006 *  0.897677 *  0.303692 *   0.87073    1.000000    
     81 O2    c    0.088186 *  0.879753 *  0.636157 *   0.87073    1.000000    
     82 O2    c    0.868176 *  0.785465 *  0.469258 *   0.87073    1.000000    
     83 O2    c    0.213446 *  0.088403 *  0.801776 *   0.87073    1.000000    
     84 O2    c    0.900499 *  0.121798 *  0.132710 *   0.87073    1.000000    
     85 O2    c    0.202405 *  0.111482 *  0.352148 *   0.87073    1.000000    
     86 O2    c    0.910811 *  0.794535 *  0.023093 *   0.87073    1.000000    
     87 O2    c    0.877136 *  0.094491 *  0.690487 *   0.87073    1.000000    
     88 O2    c    0.779795 *  0.869770 *  0.852354 *   0.87073    1.000000    
     89 O2    c    0.099582 *  0.225356 *  0.522629 *   0.87073    1.000000    
     90 O2    c    0.114121 *  0.906668 *  0.192569 *   0.87073    1.000000    
     91 O2    c    0.911772 *  0.846883 *  0.245569 *   0.87073    1.000000    
     92 O2    c    0.136005 *  0.069226 *  0.577860 *   0.87073    1.000000    
     93 O3    c    0.934513 *  0.050156 *  0.909157 *   1.33043    1.000000    
     94 O2    c    0.076253 *  0.141336 *  0.743766 *   0.87073    1.000000    
     95 O2    c    0.843796 *  0.917143 *  0.081737 *   0.87073    1.000000    
     96 O2    c    0.055625 *  0.927867 *  0.412203 *   0.87073    1.000000    
     97 O3    c    0.896074 *  0.208437 *  0.969062 *   1.33043    1.000000    
     98 O2    c    0.781020 *  0.683713 *  0.309087 *   0.87073    1.000000    
     99 O2    c    0.302529 *  0.103599 *  0.641945 *   0.87073    1.000000    
    100 O2    c    0.095085 *  0.803406 *  0.476640 *   0.87073    1.000000    
    101 O2    c    0.200175 *  0.299897 *  0.809241 *   0.87073    1.000000    
    102 O2    c    0.687555 *  0.898930 *  0.144820 *   0.87073    1.000000    
    103 O2    c    0.189249 *  0.886214 *  0.352004 *   0.87073    1.000000    
    104 O2    c    0.693411 *  0.803484 *  0.013738 *   0.87073    1.000000    
    105 O2    c    0.102428 *  0.308000 *  0.682730 *   0.87073    1.000000    
    106 O2    c    0.795970 *  0.096591 *  0.850307 *   0.87073    1.000000    
    107 O3    c    0.303040 *  0.201012 *  0.515123 *   1.33043    1.000000    
    108 O2    c    0.890377 *  0.695026 *  0.180261 *   0.87073    1.000000    
    109 O2    c    0.308076 *  0.634818 *  0.245844 *   0.87073    1.000000    
    110 O2    c    0.357855 *  0.688641 *  0.579638 *   0.87073    1.000000    
    111 O2    c    0.314627 *  0.677914 *  0.910554 *   0.87073    1.000000    
    112 O2    c    0.679481 *  0.357924 *  0.747274 *   0.87073    1.000000    
    113 O3    c    0.610086 *  0.301108 *  0.085124 *   1.33043    1.000000    
    114 O2    c    0.667905 *  0.317671 *  0.415961 *   0.87073    1.000000    
    115 O2    c    0.376379 *  0.339024 *  0.965807 *   0.87073    1.000000    
    116 O2    c    0.657612 *  0.029430 *  0.304120 *   0.87073    1.000000    
    117 O2    c    0.957524 *  0.630074 *  0.634778 *   0.87073    1.000000    
    118 O2    c    0.618836 *  0.667032 *  0.465859 *   0.87073    1.000000    
    119 O2    c    0.329336 *  0.957306 *  0.799722 *   0.87073    1.000000    
    120 O2    c    0.027913 *  0.370912 *  0.129157 *   0.87073    1.000000    
    121 O2    c    0.315850 *  0.362265 *  0.360240 *   0.87073    1.000000    
    122 O2    c    0.030653 *  0.665973 *  0.024012 *   0.87073    1.000000    
    123 O2    c    0.628702 *  0.962780 *  0.692253 *   0.87073    1.000000    
    124 O2    c    0.663918 *  0.624494 *  0.857544 *   0.87073    1.000000    
    125 O2    c    0.964008 *  0.337448 *  0.526501 *   0.87073    1.000000    
    126 O2    c    0.363074 *  0.035959 *  0.195901 *   0.87073    1.000000    
    127 O3    c    0.750711 *  0.283736 *  0.001581 *   1.33043    1.000000    
    128 O2    c    0.683147 *  0.454708 *  0.343651 *   0.87073    1.000000    
    129 O2    c    0.534514 *  0.234539 *  0.674050 *   0.87073    1.000000    
    130 O2    c    0.230808 *  0.709554 *  0.507452 *   0.87073    1.000000    
    131 O2    c    0.298571 *  0.531139 *  0.838302 *   0.87073    1.000000    
    132 O2    c    0.454415 *  0.766185 *  0.174321 *   0.87073    1.000000    
    133 O2    c    0.288459 *  0.755552 *  0.319727 *   0.87073    1.000000    
    134 O2    c    0.462831 *  0.703342 *  0.983337 *   0.87073    1.000000    
    135 O2    c    0.233677 *  0.541486 *  0.652345 *   0.87073    1.000000    
    136 O2    c    0.697273 *  0.230723 *  0.819942 *   0.87073    1.000000    
    137 O3    c    0.539730 *  0.299597 *  0.491296 *   1.33043    1.000000    
    138 O2    c    0.756165 *  0.460413 *  0.150821 *   0.87073    1.000000    
    139 O3    c    0.770726 *  0.544632 *  0.017949 *   1.33043    1.000000    
    140 O2    c    0.455167 *  0.243332 *  0.360815 *   0.87073    1.000000    
    141 O2    c    0.753101 *  0.220996 *  0.691862 *   0.87073    1.000000    
    142 O2    c    0.219867 *  0.478415 *  0.523655 *   0.87073    1.000000    
    143 O2    c    0.529082 *  0.749008 *  0.855090 *   0.87073    1.000000    
    144 O2    c    0.235380 *  0.777135 *  0.192600 *   0.87073    1.000000    
    145 O2    c    0.520838 *  0.770262 *  0.302160 *   0.87073    1.000000    
    146 O2    c    0.245921 *  0.469971 *  0.968080 *   0.87073    1.000000    
    147 O2    c    0.216450 *  0.756728 *  0.635320 *   0.87073    1.000000    
    148 O2    c    0.465235 *  0.215859 *  0.801656 *   0.87073    1.000000    
    149 O2    c    0.739322 *  0.530591 *  0.469519 *   0.87073    1.000000    
    150 O2    c    0.772402 *  0.246437 *  0.131584 *   0.87073    1.000000    
    151 O2    c    0.224246 *  0.326181 *  0.894379 *   0.87073    1.000000    
    152 O2    c    0.664778 *  0.900227 *  0.229580 *   0.87073    1.000000    
    153 O2    c    0.088665 *  0.773972 *  0.561797 *   0.87073    1.000000    
    154 O2    c    0.754273 *  0.662061 *  0.395472 *   0.87073    1.000000    
    155 O2    c    0.323590 *  0.093706 *  0.727120 *   0.87073    1.000000    
    156 O2    c    0.895483 *  0.230205 *  0.057093 *   0.87073    1.000000    
    157 O3    c    0.295679 *  0.209706 *  0.429976 *   1.33043    1.000000    
    158 O2    c    0.887135 *  0.663806 *  0.094753 *   0.87073    1.000000    
    159 O2    c    0.769875 *  0.094922 *  0.765566 *   0.87073    1.000000    
    160 O2    c    0.672605 *  0.771327 *  0.928995 *   0.87073    1.000000    
    161 O2    c    0.101766 *  0.333601 *  0.598042 *   0.87073    1.000000    
    162 O2    c    0.219498 *  0.898207 *  0.267443 *   0.87073    1.000000    
    163 O2    c    0.584787 *  0.565873 *  0.986318 *   0.87073    1.000000    
    164 O2    c    0.428964 *  0.013231 *  0.324406 *   0.87073    1.000000    
    165 O2    c    0.975058 *  0.417061 *  0.653355 *   0.87073    1.000000    
    166 O3    c    0.402052 *  0.452019 *  0.491984 *   1.33043    1.000000    
    167 O2    c    0.557592 *  0.972139 *  0.820382 *   0.87073    1.000000    
    168 O2    c    0.010513 *  0.578468 *  0.147718 *   0.87073    1.000000    
    169 O2    c    0.544360 *  0.569033 *  0.342760 *   0.87073    1.000000    
    170 O2    c    0.009131 *  0.440126 *  0.003606 *   0.87073    1.000000    
    171 O2    c    0.414500 *  0.977276 *  0.671679 *   0.87073    1.000000    
    172 O2    c    0.436349 *  0.408401 *  0.840780 *   0.87073    1.000000    
    173 O2    c    0.972511 *  0.565398 *  0.506107 *   0.87073    1.000000    
    174 O2    c    0.578489 *  0.024675 *  0.175855 *   0.87073    1.000000    
    175 O2    c    0.571452 *  0.154341 *  0.251637 *   0.87073    1.000000    
    176 O2    c    0.837824 *  0.422124 *  0.580240 *   0.87073    1.000000    
    177 O2    c    0.586559 *  0.424962 *  0.914062 *   0.87073    1.000000    
    178 O2    c    0.417653 *  0.838527 *  0.745514 *   0.87073    1.000000    
    179 O2    c    0.147379 *  0.575770 *  0.076507 *   0.87073    1.000000    
    180 O2    c    0.405261 *  0.572698 *  0.413683 *   0.87073    1.000000    
    181 F     c    0.439689 *  0.893861 *  0.248559 *   0.56000    1.000000    
    182 F     c    0.098492 *  0.556576 *  0.579295 *   0.56000    1.000000    
    183 F     c    0.443979 *  0.552957 *  0.911874 *   0.56000    1.000000    
    184 F     c    0.550180 *  0.099646 *  0.746653 *   0.56000    1.000000    
    185 F     c    0.849446 *  0.432435 *  0.069805 *   0.56000    1.000000    
    186 F     c    0.510091 *  0.418526 *  0.424360 *   0.56000    1.000000    
    187 O3    s    0.925117 *  0.003556 *  0.001840 *  -3.33043    1.000000    
    188 O2    s    0.986600 *  0.909375 *  0.328493 *  -2.87073    1.000000    
    189 O2    s    0.074420 *  0.080641 *  0.660572 *  -2.87073    1.000000    
    190 O2    s    0.067983 *  0.003522 *  0.494930 *  -2.87073    1.000000    
    191 O2    s    0.996057 *  0.070653 *  0.825539 *  -2.87073    1.000000    
    192 O2    s    0.917224 *  0.925524 *  0.164117 *  -2.87073    1.000000    
    193 O2    s    0.338332 *  0.573593 *  0.329134 *  -2.87073    1.000000    
    194 O2    s    0.416083 *  0.773543 *  0.662458 *  -2.87073    1.000000    
    195 O2    s    0.224581 *  0.647863 *  0.993625 *  -2.87073    1.000000    
    196 O2    s    0.645908 *  0.412482 *  0.830383 *  -2.87073    1.000000    
    197 O2    s    0.578102 *  0.228450 *  0.169925 *  -2.87073    1.000000    
    198 O2    s    0.775701 *  0.355994 *  0.496813 *  -2.87073    1.000000    
    199 O3    s    0.573634 *  0.351989 *  0.997514 *  -3.33043    1.000000    
    200 O2    s    0.768358 *  0.417110 *  0.663991 *  -2.87073    1.000000    
    201 O2    s    0.636655 *  0.220213 *  0.334329 *  -2.87073    1.000000    
    202 O2    s    0.412445 *  0.661926 *  0.495507 *  -2.87073    1.000000    
    203 O2    s    0.220778 *  0.583241 *  0.161442 *  -2.87073    1.000000    
    204 O2    s    0.348127 *  0.764845 *  0.827965 *  -2.87073    1.000000    
    205 O3    s    0.133136 *  0.225953 *  0.967533 *  -3.33043    1.000000    
    206 O2    s    0.769555 *  0.891144 *  0.300916 *  -2.87073    1.000000    
    207 O2    s    0.094699 *  0.882717 *  0.633355 *  -2.87073    1.000000    
    208 O2    s    0.870801 *  0.781766 *  0.466715 *  -2.87073    1.000000    
    209 O2    s    0.216777 *  0.095076 *  0.799018 *  -2.87073    1.000000    
    210 O2    s    0.893543 *  0.118277 *  0.130357 *  -2.87073    1.000000    
    211 O2    s    0.204522 *  0.107916 *  0.355609 *  -2.87073    1.000000    
    212 O2    s    0.902048 *  0.789469 *  0.025428 *  -2.87073    1.000000    
    213 O2    s    0.880567 *  0.101068 *  0.692990 *  -2.87073    1.000000    
    214 O2    s    0.776929 *  0.873236 *  0.855341 *  -2.87073    1.000000    
    215 O2    s    0.105111 *  0.228767 *  0.525283 *  -2.87073    1.000000    
    216 O2    s    0.110500 *  0.899661 *  0.194947 *  -2.87073    1.000000    
    217 O2    s    0.911636 *  0.845257 *  0.245724 *  -2.87073    1.000000    
    218 O2    s    0.139837 *  0.071337 *  0.578307 *  -2.87073    1.000000    
    219 O3    s    0.931810 *  0.053638 *  0.908496 *  -3.33043    1.000000    
    220 O2    s    0.076370 *  0.144017 *  0.743981 *  -2.87073    1.000000    
    221 O2    s    0.843034 *  0.919015 *  0.081796 *  -2.87073    1.000000    
    222 O2    s    0.058113 *  0.926382 *  0.412128 *  -2.87073    1.000000    
    223 O3    s    0.901598 *  0.209862 *  0.972338 *  -3.33043    1.000000    
    224 O2    s    0.779765 *  0.689684 *  0.311945 *  -2.87073    1.000000    
    225 O2    s    0.296519 *  0.096010 *  0.644531 *  -2.87073    1.000000    
    226 O2    s    0.087437 *  0.801910 *  0.479237 *  -2.87073    1.000000    
    227 O2    s    0.201815 *  0.293908 *  0.811719 *  -2.87073    1.000000    
    228 O2    s    0.693409 *  0.906113 *  0.147368 *  -2.87073    1.000000    
    229 O2    s    0.191111 *  0.894131 *  0.349073 *  -2.87073    1.000000    
    230 O2    s    0.699589 *  0.801430 *  0.011517 *  -2.87073    1.000000    
    231 O2    s    0.094900 *  0.301926 *  0.680012 *  -2.87073    1.000000    
    232 O2    s    0.794519 *  0.089085 *  0.847422 *  -2.87073    1.000000    
    233 O3    s    0.293340 *  0.200321 *  0.513672 *  -3.33043    1.000000    
    234 O2    s    0.897329 *  0.700803 *  0.177890 *  -2.87073    1.000000    
    235 O2    s    0.313881 *  0.646453 *  0.245910 *  -2.87073    1.000000    
    236 O2    s    0.345845 *  0.682585 *  0.579580 *  -2.87073    1.000000    
    237 O2    s    0.320818 *  0.672141 *  0.910747 *  -2.87073    1.000000    
    238 O2    s    0.673502 *  0.346195 *  0.747229 *  -2.87073    1.000000    
    239 O3    s    0.623209 *  0.307052 *  0.086595 *  -3.33043    1.000000    
    240 O2    s    0.662592 *  0.322404 *  0.415564 *  -2.87073    1.000000    
    241 O2    s    0.378893 *  0.348768 *  0.963806 *  -2.87073    1.000000    
    242 O2    s    0.647570 *  0.022924 *  0.301786 *  -2.87073    1.000000    
    243 O2    s    0.964296 *  0.627112 *  0.632491 *  -2.87073    1.000000    
    244 O2    s    0.616186 *  0.657794 *  0.464184 *  -2.87073    1.000000    
    245 O2    s    0.339396 *  0.964116 *  0.797495 *  -2.87073    1.000000    
    246 O2    s    0.022054 *  0.374158 *  0.127218 *  -2.87073    1.000000    
    247 O2    s    0.325293 *  0.365906 *  0.362257 *  -2.87073    1.000000    
    248 O2    s    0.024695 *  0.656352 *  0.025605 *  -2.87073    1.000000    
    249 O2    s    0.625423 *  0.969534 *  0.694529 *  -2.87073    1.000000    
    250 O2    s    0.654229 *  0.621387 *  0.859866 *  -2.87073    1.000000    
    251 O2    s    0.970928 *  0.347820 *  0.528679 *  -2.87073    1.000000    
    252 O2    s    0.366027 *  0.029017 *  0.198193 *  -2.87073    1.000000    
    253 O3    s    0.761571 *  0.291127 *  0.004617 *  -3.33043    1.000000    
    254 O2    s    0.676147 *  0.454473 *  0.346439 *  -2.87073    1.000000    
    255 O2    s    0.535072 *  0.227459 *  0.677090 *  -2.87073    1.000000    
    256 O2    s    0.223498 *  0.701441 *  0.510567 *  -2.87073    1.000000    
    257 O2    s    0.306071 *  0.531982 *  0.841604 *  -2.87073    1.000000    
    258 O2    s    0.453624 *  0.772636 *  0.177516 *  -2.87073    1.000000    
    259 O2    s    0.296286 *  0.762805 *  0.316696 *  -2.87073    1.000000    
    260 O2    s    0.461705 *  0.695215 *  0.980261 *  -2.87073    1.000000    
    261 O2    s    0.226530 *  0.541823 *  0.649201 *  -2.87073    1.000000    
    262 O2    s    0.689672 *  0.223711 *  0.816772 *  -2.87073    1.000000    
    263 O3    s    0.544733 *  0.308481 *  0.487482 *  -3.33043    1.000000    
    264 O2    s    0.762678 *  0.460418 *  0.148018 *  -2.87073    1.000000    
    265 O3    s    0.780243 *  0.546691 *  0.021248 *  -3.33043    1.000000    
    266 O2    s    0.458153 *  0.249873 *  0.363011 *  -2.87073    1.000000    
    267 O2    s    0.745013 *  0.215616 *  0.694423 *  -2.87073    1.000000    
    268 O2    s    0.214894 *  0.480725 *  0.526346 *  -2.87073    1.000000    
    269 O2    s    0.526362 *  0.740916 *  0.857764 *  -2.87073    1.000000    
    270 O2    s    0.243567 *  0.782179 *  0.195117 *  -2.87073    1.000000    
    271 O2    s    0.518167 *  0.775818 *  0.299659 *  -2.87073    1.000000    
    272 O2    s    0.254412 *  0.473433 *  0.965369 *  -2.87073    1.000000    
    273 O2    s    0.211206 *  0.748849 *  0.632738 *  -2.87073    1.000000    
    274 O2    s    0.468072 *  0.210742 *  0.799049 *  -2.87073    1.000000    
    275 O2    s    0.733366 *  0.529086 *  0.467228 *  -2.87073    1.000000    
    276 O2    s    0.776839 *  0.252761 *  0.129453 *  -2.87073    1.000000    
    277 O2    s    0.234714 *  0.335749 *  0.895052 *  -2.87073    1.000000    
    278 O2    s    0.655030 *  0.899867 *  0.230504 *  -2.87073    1.000000    
    279 O2    s    0.089376 *  0.764757 *  0.562591 *  -2.87073    1.000000    
    280 O2    s    0.745821 *  0.653804 *  0.396132 *  -2.87073    1.000000    
    281 O2    s    0.333225 *  0.094039 *  0.728008 *  -2.87073    1.000000    
    282 O2    s    0.894761 *  0.237759 *  0.058284 *  -2.87073    1.000000    
    283 O3    s    0.305658 *  0.219376 *  0.427198 *  -3.33043    1.000000    
    284 O2    s    0.887866 *  0.655789 *  0.094529 *  -2.87073    1.000000    
    285 O2    s    0.760455 *  0.095147 *  0.764628 *  -2.87073    1.000000    
    286 O2    s    0.662947 *  0.761790 *  0.928164 *  -2.87073    1.000000    
    287 O2    s    0.101413 *  0.342750 *  0.597172 *  -2.87073    1.000000    
    288 O2    s    0.228708 *  0.897877 *  0.266447 *  -2.87073    1.000000    
    289 O2    s    0.580693 *  0.566430 *  0.983005 *  -2.87073    1.000000    
    290 O2    s    0.428883 *  0.008863 *  0.320922 *  -2.87073    1.000000    
    291 O2    s    0.979866 *  0.421960 *  0.650096 *  -2.87073    1.000000    
    292 O3    s    0.408582 *  0.455731 *  0.487925 *  -3.33043    1.000000    
    293 O2    s    0.557953 *  0.977073 *  0.817002 *  -2.87073    1.000000    
    294 O2    s    0.006889 *  0.574727 *  0.144963 *  -2.87073    1.000000    
    295 O2    s    0.545029 *  0.565881 *  0.345551 *  -2.87073    1.000000    
    296 O2    s    0.006493 *  0.440603 *  0.006394 *  -2.87073    1.000000    
    297 O2    s    0.418971 *  0.982103 *  0.675069 *  -2.87073    1.000000    
    298 O2    s    0.436432 *  0.413671 *  0.843801 *  -2.87073    1.000000    
    299 O2    s    0.978013 *  0.566072 *  0.509561 *  -2.87073    1.000000    
    300 O2    s    0.573507 *  0.019211 *  0.179205 *  -2.87073    1.000000    
    301 O2    s    0.565900 *  0.143194 *  0.251567 *  -2.87073    1.000000    
    302 O2    s    0.849164 *  0.427737 *  0.580354 *  -2.87073    1.000000    
    303 O2    s    0.580655 *  0.429383 *  0.913746 *  -2.87073    1.000000    
    304 O2    s    0.423179 *  0.849532 *  0.745604 *  -2.87073    1.000000    
    305 O2    s    0.137889 *  0.571125 *  0.076763 *  -2.87073    1.000000    
    306 O2    s    0.410153 *  0.568137 *  0.413378 *  -2.87073    1.000000    
    307 F     s    0.439530 *  0.893484 *  0.248556 *  -1.56000    1.000000    
    308 F     s    0.098785 *  0.556859 *  0.579184 *  -1.56000    1.000000    
    309 F     s    0.443204 *  0.553462 *  0.911863 *  -1.56000    1.000000    
    310 F     s    0.550523 *  0.100098 *  0.746688 *  -1.56000    1.000000    
    311 F     s    0.839114 *  0.428522 *  0.067533 *  -1.56000    1.000000    
    312 F     s    0.503398 *  0.411735 *  0.427326 *  -1.56000    1.000000    
--------------------------------------------------------------------------------



********************************************************************************
*  General input information                                                   *
********************************************************************************

  Species output for all configurations : 

--------------------------------------------------------------------------------
  Species    Type    Atomic    Atomic    Charge       Radii (Angs)     Library
                     Number     Mass       (e)     Cova   Ionic  VDW   Symbol
--------------------------------------------------------------------------------
    Si       Core       14      28.09   4.000000   1.200  0.000  2.100          
    O1       Core        8      16.00   1.733957   0.730  0.000  1.360          
    O1       Shell       8       0.00  -3.733957   0.730  0.000  1.360          
    O2       Core        8      16.00   0.870733   0.730  0.000  1.360          
    O2       Shell       8       0.00  -2.870733   0.730  0.000  1.360          
    O3       Core        8      16.00   1.330431   0.730  0.000  1.360          
    O3       Shell       8       0.00  -3.330431   0.730  0.000  1.360          
    F        Core        9      19.00   0.560000   0.710  0.000  1.300          
    F        Shell       9       0.00  -1.560000   0.710  0.000  1.300          
    Ge       Core       32      72.61   4.000000   1.170  0.000  1.750          
--------------------------------------------------------------------------------


  Lattice summation method               =    Ewald          (3-D)
                                         =    Parry          (2-D)
                                         =    Saunders et al (1-D)
  Accuracy factor for lattice sums       =   12.000


  Time limit = Infinity

  Maximum range for interatomic potentials =        16.000000 Angstroms

  Taper potentials to zero over   1.0000 Angstroms using polynomial

  General interatomic potentials :

--------------------------------------------------------------------------------
Atom  Types   Potential         A         B         C         D     Cutoffs(Ang)
  1     2                                                            Min    Max 
--------------------------------------------------------------------------------
Si   c O1   s Buckingham    0.132E+04 0.318      10.1      0.00     0.000 16.000
Si   c O2   s Buckingham    0.132E+04 0.318      10.1      0.00     0.000 16.000
Si   c O3   s Buckingham    0.132E+04 0.318      10.1      0.00     0.000 16.000
Ge   c O1   s Buckingham    0.150E+04 0.326      16.8      0.00     0.000 16.000
Ge   c O2   s Buckingham    0.150E+04 0.326      16.8      0.00     0.000 16.000
Ge   c O3   s Buckingham    0.150E+04 0.326      16.8      0.00     0.000 16.000
O1   s O1   s Buckingham    0.228E+05 0.149      10.9      0.00     0.000 16.000
O1   s O2   s Buckingham    0.228E+05 0.149      10.9      0.00     0.000 16.000
O1   s O3   s Buckingham    0.228E+05 0.149      10.9      0.00     0.000 16.000
O2   s O2   s Buckingham    0.228E+05 0.149      10.9      0.00     0.000 16.000
O2   s O3   s Buckingham    0.228E+05 0.149      10.9      0.00     0.000 16.000
O3   s O3   s Buckingham    0.228E+05 0.149      10.9      0.00     0.000 16.000
Si   c F    s Buckingham     977.     0.282      0.00      0.00     0.000 16.000
Ge   c F    s Buckingham     681.     0.320      0.00      0.00     0.000 16.000
F    s F    s Buckingham     540.     0.262      0.00      0.00     0.000 16.000
O1   s F    s Buckingham    0.168E+04 0.268      0.00      0.00     0.000 16.000
O2   s F    s Buckingham    0.168E+04 0.268      0.00      0.00     0.000 16.000
O3   s F    s Buckingham    0.168E+04 0.268      0.00      0.00     0.000 16.000
O2   c O2   s Spring (c-s)   76.0      0.00      0.00      0.00     0.000  0.800
O3   c O3   s Spring (c-s)   128.      0.00      0.00      0.00     0.000  0.800
O1   c O1   s Spring (c-s)   180.      0.00      0.00      0.00     0.000  0.800
F    c F    s Spring (c-s)   33.5      0.00      0.00      0.00     0.000  0.800
--------------------------------------------------------------------------------

  General Three-body potentials :

  Harmonic form:

--------------------------------------------------------------------------------
Atom    Atom    Atom           Force Constants            Theta     Cutoffs  
  1       2       3     (eVrad**-2/eVrad**-3/eVrad**-4)   (deg)  1-2  1-3  2-3
--------------------------------------------------------------------------------
Si    c O1    s O1    s  1.261        0.0000    0.0000   109.470 0.00 0.00 0.00
                                                                 1.90 1.90 3.50
Si    c O1    s O2    s  1.261        0.0000    0.0000   109.470 0.00 0.00 0.00
                                                                 1.90 1.90 3.50
Si    c O2    s O2    s  1.261        0.0000    0.0000   109.470 0.00 0.00 0.00
                                                                 1.90 1.90 3.50
--------------------------------------------------------------------------------

********************************************************************************
*  Output for configuration   1                                                *
********************************************************************************


  Components of energy : 

--------------------------------------------------------------------------------
  Interatomic potentials     =        2064.03504747 eV
  Three-body potentials      =           0.49816441 eV
  Monopole - monopole (real) =       -6612.42051857 eV
  Monopole - monopole (recip)=       -3172.15295395 eV
  Monopole - monopole (total)=       -9784.57347252 eV
  Neutralising energy        =          -6.46168289 eV
--------------------------------------------------------------------------------
  Total lattice energy       =       -7726.50194353 eV
--------------------------------------------------------------------------------
  Total lattice energy       =         -745489.3272 kJ/(mole unit cells)
--------------------------------------------------------------------------------


  Number of variables =      939

  Maximum number of calculations  =          5000
  Maximum Hessian update interval =            10
  Maximum step size               =   0.100000000
  Maximum parameter tolerance     =   0.000010000
  Maximum function  tolerance     =   0.000010000
  Maximum gradient  tolerance     =   0.001000000
  Maximum gradient  component     =   0.010000000

  Symmetry not applied to optimisation

  Cell parameters to be optimised using strains

  Newton-Raphson optimiser to be used

  BFGS hessian update to be used

  Dumpfile to be written after every cycle

  Start of bulk optimisation :

  Cycle:      0 Energy:     -7726.501944  Gnorm:      0.000547  CPU:    2.034
  ** Hessian calculated **
  Cycle:      1 Energy:     -7726.515358  Gnorm:      0.000473  CPU:    6.692
  Cycle:      2 Energy:     -7726.531013  Gnorm:      0.000530  CPU:   10.972
  Cycle:      3 Energy:     -7726.547317  Gnorm:      0.000994  CPU:   15.257
  Cycle:      4 Energy:     -7726.554574  Gnorm:      0.001091  CPU:   19.545
  Cycle:      5 Energy:     -7726.556377  Gnorm:      0.000742  CPU:   23.832
  Cycle:      6 Energy:     -7726.556833  Gnorm:      0.000433  CPU:   28.125
  Cycle:      7 Energy:     -7726.556949  Gnorm:      0.000234  CPU:   32.411
  Cycle:      8 Energy:     -7726.556969  Gnorm:      0.000167  CPU:   35.301
  Cycle:      9 Energy:     -7726.556979  Gnorm:      0.000118  CPU:   38.189
  Cycle:     10 Energy:     -7726.556984  Gnorm:      0.000083  CPU:   41.077
  ** Hessian calculated **
  Cycle:     11 Energy:     -7726.556984  Gnorm:      0.000045  CPU:   45.655
  Cycle:     12 Energy:     -7726.556984  Gnorm:      0.000034  CPU:   48.542


  **** Optimisation achieved ****


  Final energy =   -7726.55698414 eV
  Final Gnorm  =       0.00002607

  Components of energy : 

--------------------------------------------------------------------------------
  Interatomic potentials     =        2064.36519493 eV
  Three-body potentials      =           0.49488277 eV
  Monopole - monopole (real) =       -6613.53704811 eV
  Monopole - monopole (recip)=       -3171.41982319 eV
  Monopole - monopole (total)=       -9784.95687130 eV
  Neutralising energy        =          -6.46019053 eV
--------------------------------------------------------------------------------
  Total lattice energy       =       -7726.55698414 eV
--------------------------------------------------------------------------------
  Total lattice energy       =         -745494.6377 kJ/(mole unit cells)
--------------------------------------------------------------------------------

  Final fractional coordinates of atoms :

--------------------------------------------------------------------------------
   No.  Atomic        x           y          z          Radius
        Label       (Frac)      (Frac)     (Frac)       (Angs) 
--------------------------------------------------------------------------------
     1  Ge    c     0.699600    0.375700    0.033890    0.000000
     2  Si    c     0.589200    0.296046    0.366116    0.000000
     3  Si    c     0.660377    0.286921    0.696631    0.000000
     4  Si    c     0.279869    0.620016    0.530374    0.000000
     5  Si    c     0.359668    0.663424    0.861818    0.000000
     6  Si    c     0.292896    0.683511    0.197596    0.000000
     7  Si    c     0.345221    0.676639    0.298429    0.000000
     8  Si    c     0.309022    0.613279    0.962809    0.000000
     9  Si    c     0.281719    0.671171    0.631127    0.000000
    10  Si    c     0.606283    0.286493    0.797410    0.000000
    11  Si    c     0.656626    0.357835    0.468184    0.000000
    12  Si    c     0.665644    0.300545    0.131771    0.000000
    13  Si    c     0.525366    0.412290    0.965379    0.000000
    14  Si    c     0.550993    0.085629    0.301938    0.000000
    15  Si    c     0.871636    0.460000    0.631559    0.000000
    16  Si    c     0.440959    0.569905    0.467422    0.000000
    17  Si    c     0.400828    0.876604    0.797870    0.000000
    18  Si    c     0.086493    0.514159    0.129752    0.000000
    19  Si    c     0.380309    0.503178    0.364532    0.000000
    20  Si    c     0.094698    0.574905    0.026711    0.000000
    21  Si    c     0.454745    0.880220    0.696076    0.000000
    22  Si    c     0.567861    0.458681    0.862114    0.000000
    23  Si    c     0.877551    0.410031    0.530164    0.000000
    24  Si    c     0.501605    0.092305    0.200132    0.000000
    25  Si    c     0.284950    0.386955    0.848266    0.000000
    26  Si    c     0.572681    0.885250    0.183963    0.000000
    27  Si    c     0.077102    0.692586    0.515844    0.000000
    28  Si    c     0.665972    0.575616    0.349580    0.000000
    29  Si    c     0.380919    0.086760    0.681077    0.000000
    30  Si    c     0.881207    0.288452    0.008858    0.000000
    31  Ge    c     0.385663    0.298005    0.474017    0.000000
    32  Si    c     0.872456    0.584975    0.143069    0.000000
    33  Si    c     0.682445    0.085672    0.812494    0.000000
    34  Si    c     0.588240    0.691656    0.975943    0.000000
    35  Si    c     0.083554    0.391415    0.644999    0.000000
    36  Si    c     0.268888    0.876621    0.314536    0.000000
    37  Si    c     0.245978    0.337477    0.949406    0.000000
    38  Si    c     0.627255    0.885609    0.284907    0.000000
    39  Si    c     0.070352    0.740251    0.616826    0.000000
    40  Si    c     0.722689    0.641560    0.451176    0.000000
    41  Si    c     0.324765    0.077859    0.782240    0.000000
    42  Si    c     0.882073    0.233177    0.112118    0.000000
    43  Si    c     0.300513    0.220678    0.378379    0.000000
    44  Si    c     0.892691    0.656886    0.040712    0.000000
    45  Si    c     0.734200    0.080404    0.711618    0.000000
    46  Si    c     0.641387    0.736441    0.874575    0.000000
    47  Si    c     0.080072    0.334537    0.544023    0.000000
    48  Si    c     0.220876    0.890686    0.213550    0.000000
    49  Ge    c     0.964630    0.114182    0.961630    0.000000
    50  Si    c     0.843446    0.821207    0.297541    0.000000
    51  Si    c     0.132134    0.019102    0.629716    0.000000
    52  Si    c     0.002531    0.867080    0.464990    0.000000
    53  Si    c     0.107704    0.139968    0.796137    0.000000
    54  Si    c     0.820709    0.954587    0.131881    0.000000
    55  Si    c     0.088431    0.944908    0.362475    0.000000
    56  Si    c     0.832730    0.872600    0.030410    0.000000
    57  Si    c     0.014655    0.142618    0.695117    0.000000
    58  Si    c     0.861634    0.012365    0.860124    0.000000
    59  Si    c     0.136479    0.112234    0.527947    0.000000
    60  Si    c     0.941201    0.830759    0.196302    0.000000
    61  O3    c     0.918731    0.002329    0.004341    0.000000
    62  O2    c     0.966199    0.897938    0.329568    0.000000
    63  O2    c     0.052858    0.062432    0.661776    0.000000
    64  O2    c     0.041696    0.989224    0.496376    0.000000
    65  O2    c     0.982481    0.057856    0.826862    0.000000
    66  O2    c     0.903750    0.917784    0.165533    0.000000
    67  O2    c     0.306805    0.552704    0.330723    0.000000
    68  O2    c     0.405488    0.755242    0.663680    0.000000
    69  O2    c     0.223300    0.650456    0.995900    0.000000
    70  O2    c     0.643696    0.409225    0.829826    0.000000
    71  O2    c     0.555454    0.221240    0.169720    0.000000
    72  O2    c     0.754885    0.329709    0.496642    0.000000
    73  O3    c     0.565856    0.335568    0.998056    0.000000
    74  O2    c     0.745709    0.409890    0.663789    0.000000
    75  O2    c     0.627755    0.210574    0.334436    0.000000
    76  O2    c     0.401847    0.660179    0.496333    0.000000
    77  O2    c     0.208604    0.562351    0.163824    0.000000
    78  O2    c     0.321718    0.749475    0.829485    0.000000
    79  O3    c     0.126914    0.209274    0.970519    0.000000
    80  O2    c     0.753458    0.884299    0.304497    0.000000
    81  O2    c     0.069627    0.865326    0.636902    0.000000
    82  O2    c     0.848061    0.769332    0.470173    0.000000
    83  O2    c     0.198630    0.077448    0.802530    0.000000
    84  O2    c     0.883591    0.109232    0.133432    0.000000
    85  O2    c     0.181202    0.097174    0.353000    0.000000
    86  O2    c     0.907244    0.792654    0.024995    0.000000
    87  O2    c     0.859927    0.080261    0.691372    0.000000
    88  O2    c     0.766426    0.859916    0.852394    0.000000
    89  O2    c     0.081070    0.211272    0.523186    0.000000
    90  O2    c     0.096116    0.893815    0.193302    0.000000
    91  O2    c     0.893052    0.832920    0.246640    0.000000
    92  O2    c     0.116119    0.055102    0.578938    0.000000
    93  O3    c     0.918342    0.037769    0.910497    0.000000
    94  O2    c     0.059741    0.129987    0.744964    0.000000
    95  O2    c     0.826766    0.904685    0.082862    0.000000
    96  O2    c     0.035115    0.913453    0.413145    0.000000
    97  O3    c     0.893150    0.205809    0.969021    0.000000
    98  O2    c     0.759457    0.669359    0.309834    0.000000
    99  O2    c     0.284290    0.088615    0.642504    0.000000
   100  O2    c     0.075946    0.789362    0.477327    0.000000
   101  O2    c     0.187254    0.289954    0.809828    0.000000
   102  O2    c     0.670117    0.886511    0.145719    0.000000
   103  O2    c     0.169281    0.872727    0.352656    0.000000
   104  O2    c     0.684794    0.792291    0.013779    0.000000
   105  O2    c     0.084514    0.294189    0.683295    0.000000
   106  O2    c     0.781252    0.085780    0.851048    0.000000
   107  O3    c     0.282736    0.183982    0.515769    0.000000
   108  O2    c     0.873572    0.681744    0.181581    0.000000
   109  O2    c     0.290004    0.622042    0.247526    0.000000
   110  O2    c     0.339534    0.675287    0.580567    0.000000
   111  O2    c     0.302916    0.666025    0.912138    0.000000
   112  O2    c     0.662742    0.344402    0.747013    0.000000
   113  O3    c     0.602713    0.296730    0.084066    0.000000
   114  O2    c     0.646734    0.301575    0.416397    0.000000
   115  O2    c     0.368202    0.328149    0.966367    0.000000
   116  O2    c     0.637765    0.016409    0.304518    0.000000
   117  O2    c     0.939128    0.615752    0.635105    0.000000
   118  O2    c     0.598795    0.650800    0.466996    0.000000
   119  O2    c     0.313942    0.945580    0.800772    0.000000
   120  O2    c     0.012701    0.358470    0.130543    0.000000
   121  O2    c     0.294913    0.347652    0.361391    0.000000
   122  O2    c     0.027246    0.662732    0.026112    0.000000
   123  O2    c     0.611211    0.948584    0.693096    0.000000
   124  O2    c     0.651222    0.614399    0.857039    0.000000
   125  O2    c     0.945974    0.323662    0.526846    0.000000
   126  O2    c     0.345060    0.023053    0.195885    0.000000
   127  O3    c     0.747471    0.281498    0.001486    0.000000
   128  O2    c     0.661752    0.440117    0.344396    0.000000
   129  O2    c     0.516743    0.219993    0.674114    0.000000
   130  O2    c     0.212513    0.695874    0.508078    0.000000
   131  O2    c     0.285178    0.520496    0.839366    0.000000
   132  O2    c     0.436692    0.753098    0.175447    0.000000
   133  O2    c     0.269199    0.742823    0.320951    0.000000
   134  O2    c     0.453923    0.691806    0.984127    0.000000
   135  O2    c     0.215229    0.527451    0.653047    0.000000
   136  O2    c     0.681918    0.218873    0.820132    0.000000
   137  O3    c     0.519946    0.283179    0.491997    0.000000
   138  O2    c     0.741680    0.448993    0.151168    0.000000
   139  O3    c     0.769191    0.543482    0.018094    0.000000
   140  O2    c     0.433954    0.228390    0.361532    0.000000
   141  O2    c     0.735340    0.206403    0.691930    0.000000
   142  O2    c     0.201602    0.464651    0.524434    0.000000
   143  O2    c     0.515667    0.738095    0.855748    0.000000
   144  O2    c     0.217734    0.764192    0.193409    0.000000
   145  O2    c     0.501649    0.757523    0.303699    0.000000
   146  O2    c     0.236868    0.458214    0.969478    0.000000
   147  O2    c     0.198000    0.742785    0.636126    0.000000
   148  O2    c     0.450000    0.204003    0.802073    0.000000
   149  O2    c     0.719067    0.514355    0.470016    0.000000
   150  O2    c     0.757255    0.235035    0.131191    0.000000
   151  O2    c     0.213754    0.315315    0.895189    0.000000
   152  O2    c     0.645695    0.886685    0.230541    0.000000
   153  O2    c     0.070433    0.760113    0.562365    0.000000
   154  O2    c     0.733642    0.647112    0.396288    0.000000
   155  O2    c     0.307128    0.080900    0.727817    0.000000
   156  O2    c     0.885578    0.221919    0.057562    0.000000
   157  O3    c     0.275102    0.194088    0.430918    0.000000
   158  O2    c     0.877734    0.655877    0.096091    0.000000
   159  O2    c     0.753201    0.081799    0.766155    0.000000
   160  O2    c     0.661543    0.760272    0.928944    0.000000
   161  O2    c     0.083357    0.319633    0.598608    0.000000
   162  O2    c     0.200869    0.885264    0.267916    0.000000
   163  O2    c     0.576497    0.555403    0.986278    0.000000
   164  O2    c     0.409167    0.000421    0.324611    0.000000
   165  O2    c     0.956844    0.402983    0.653678    0.000000
   166  O3    c     0.382649    0.435778    0.493350    0.000000
   167  O2    c     0.542270    0.960652    0.821410    0.000000
   168  O2    c     0.995514    0.565793    0.149475    0.000000
   169  O2    c     0.523303    0.554438    0.343966    0.000000
   170  O2    c     0.002922    0.435118    0.005022    0.000000
   171  O2    c     0.396713    0.962974    0.672599    0.000000
   172  O2    c     0.423835    0.398660    0.840622    0.000000
   173  O2    c     0.954281    0.551473    0.506454    0.000000
   174  O2    c     0.560317    0.011481    0.176229    0.000000
   175  O2    c     0.552178    0.141299    0.251451    0.000000
   176  O2    c     0.819889    0.408149    0.580370    0.000000
   177  O2    c     0.575591    0.414640    0.913509    0.000000
   178  O2    c     0.401398    0.825694    0.746828    0.000000
   179  O2    c     0.136692    0.566059    0.078845    0.000000
   180  O2    c     0.384558    0.556655    0.415268    0.000000
   181  F     c     0.420553    0.880130    0.249242    0.000000
   182  F     c     0.080981    0.543486    0.579738    0.000000
   183  F     c     0.432368    0.541094    0.912324    0.000000
   184  F     c     0.533393    0.086445    0.747145    0.000000
   185  F     c     0.843872    0.427704    0.070777    0.000000
   186  F     c     0.489353    0.402511    0.425266    0.000000
   187  O3    s     0.913015    0.997411    0.003559    0.000000
   188  O2    s     0.965740    0.894320    0.329563    0.000000
   189  O2    s     0.057355    0.066640    0.661974    0.000000
   190  O2    s     0.046885    0.987917    0.496038    0.000000
   191  O2    s     0.983077    0.062051    0.827115    0.000000
   192  O2    s     0.898896    0.912185    0.165290    0.000000
   193  O2    s     0.318338    0.560355    0.330877    0.000000
   194  O2    s     0.397706    0.759394    0.663628    0.000000
   195  O2    s     0.218243    0.638843    0.995869    0.000000
   196  O2    s     0.632066    0.401660    0.829791    0.000000
   197  O2    s     0.561105    0.215742    0.169022    0.000000
   198  O2    s     0.756932    0.341029    0.497012    0.000000
   199  O3    s     0.570987    0.346888    0.997047    0.000000
   200  O2    s     0.750004    0.402456    0.663828    0.000000
   201  O2    s     0.615860    0.206551    0.334368    0.000000
   202  O2    s     0.393750    0.647085    0.496774    0.000000
   203  O2    s     0.204313    0.569524    0.163676    0.000000
   204  O2    s     0.333716    0.753749    0.829546    0.000000
   205  O3    s     0.124613    0.213620    0.967707    0.000000
   206  O2    s     0.749932    0.877704    0.301747    0.000000
   207  O2    s     0.076194    0.868356    0.634108    0.000000
   208  O2    s     0.850666    0.765804    0.467632    0.000000
   209  O2    s     0.201979    0.084129    0.799786    0.000000
   210  O2    s     0.876836    0.105821    0.131087    0.000000
   211  O2    s     0.183379    0.093522    0.356464    0.000000
   212  O2    s     0.897933    0.786809    0.027194    0.000000
   213  O2    s     0.863327    0.086917    0.693852    0.000000
   214  O2    s     0.763551    0.863278    0.855477    0.000000
   215  O2    s     0.086446    0.214544    0.525854    0.000000
   216  O2    s     0.092545    0.886784    0.195691    0.000000
   217  O2    s     0.892827    0.831342    0.246781    0.000000
   218  O2    s     0.120100    0.057044    0.579341    0.000000
   219  O3    s     0.916546    0.041851    0.909771    0.000000
   220  O2    s     0.060073    0.132571    0.745136    0.000000
   221  O2    s     0.826724    0.907086    0.082888    0.000000
   222  O2    s     0.037602    0.911900    0.413070    0.000000
   223  O3    s     0.897920    0.206566    0.972419    0.000000
   224  O2    s     0.758381    0.675320    0.312722    0.000000
   225  O2    s     0.278337    0.081188    0.645125    0.000000
   226  O2    s     0.068239    0.787754    0.479949    0.000000
   227  O2    s     0.188808    0.283902    0.812323    0.000000
   228  O2    s     0.675919    0.893622    0.148265    0.000000
   229  O2    s     0.171111    0.880613    0.349755    0.000000
   230  O2    s     0.690872    0.790653    0.011671    0.000000
   231  O2    s     0.077004    0.288117    0.680608    0.000000
   232  O2    s     0.779810    0.078218    0.848201    0.000000
   233  O3    s     0.273111    0.183548    0.514344    0.000000
   234  O2    s     0.880695    0.687693    0.179178    0.000000
   235  O2    s     0.295865    0.633786    0.247593    0.000000
   236  O2    s     0.327514    0.669181    0.580540    0.000000
   237  O2    s     0.309197    0.660366    0.912272    0.000000
   238  O2    s     0.656745    0.332634    0.747024    0.000000
   239  O3    s     0.615491    0.302121    0.085960    0.000000
   240  O2    s     0.641533    0.306410    0.416019    0.000000
   241  O2    s     0.370607    0.337860    0.964334    0.000000
   242  O2    s     0.627752    0.009854    0.302197    0.000000
   243  O2    s     0.945968    0.612846    0.632817    0.000000
   244  O2    s     0.596205    0.641657    0.465322    0.000000
   245  O2    s     0.323998    0.952371    0.798525    0.000000
   246  O2    s     0.006994    0.361859    0.128565    0.000000
   247  O2    s     0.304367    0.351253    0.363415    0.000000
   248  O2    s     0.020898    0.653014    0.027642    0.000000
   249  O2    s     0.607954    0.955343    0.695355    0.000000
   250  O2    s     0.641575    0.611267    0.859425    0.000000
   251  O2    s     0.952769    0.333940    0.529008    0.000000
   252  O2    s     0.348099    0.016278    0.198177    0.000000
   253  O3    s     0.758523    0.288689    0.004579    0.000000
   254  O2    s     0.654793    0.439857    0.347178    0.000000
   255  O2    s     0.517275    0.212922    0.677189    0.000000
   256  O2    s     0.205145    0.687718    0.511232    0.000000
   257  O2    s     0.292794    0.521299    0.842628    0.000000
   258  O2    s     0.436021    0.759693    0.178654    0.000000
   259  O2    s     0.277023    0.750029    0.317910    0.000000
   260  O2    s     0.452722    0.683714    0.981060    0.000000
   261  O2    s     0.208169    0.527881    0.649912    0.000000
   262  O2    s     0.674305    0.211802    0.816999    0.000000
   263  O3    s     0.524982    0.292109    0.488184    0.000000
   264  O2    s     0.748346    0.449249    0.148414    0.000000
   265  O3    s     0.778369    0.545033    0.021552    0.000000
   266  O2    s     0.436972    0.234925    0.363723    0.000000
   267  O2    s     0.727300    0.201056    0.694531    0.000000
   268  O2    s     0.196519    0.466832    0.527123    0.000000
   269  O2    s     0.513071    0.730019    0.858409    0.000000
   270  O2    s     0.225929    0.769349    0.195967    0.000000
   271  O2    s     0.498946    0.762995    0.301150    0.000000
   272  O2    s     0.245342    0.461774    0.966726    0.000000
   273  O2    s     0.192845    0.734934    0.633545    0.000000
   274  O2    s     0.452796    0.198866    0.799460    0.000000
   275  O2    s     0.713148    0.512916    0.467764    0.000000
   276  O2    s     0.761894    0.241387    0.129161    0.000000
   277  O2    s     0.224215    0.324928    0.895797    0.000000
   278  O2    s     0.635991    0.886416    0.231432    0.000000
   279  O2    s     0.071115    0.750873    0.563183    0.000000
   280  O2    s     0.725212    0.638832    0.396962    0.000000
   281  O2    s     0.316748    0.081194    0.728683    0.000000
   282  O2    s     0.884829    0.229377    0.058748    0.000000
   283  O3    s     0.285031    0.203755    0.428101    0.000000
   284  O2    s     0.878585    0.648115    0.095789    0.000000
   285  O2    s     0.743821    0.082045    0.765245    0.000000
   286  O2    s     0.651869    0.750739    0.928162    0.000000
   287  O2    s     0.083035    0.328776    0.597723    0.000000
   288  O2    s     0.210103    0.884946    0.266967    0.000000
   289  O2    s     0.572395    0.556156    0.982994    0.000000
   290  O2    s     0.409049    0.995960    0.321157    0.000000
   291  O2    s     0.961699    0.407895    0.650412    0.000000
   292  O3    s     0.389089    0.439578    0.489275    0.000000
   293  O2    s     0.542665    0.965549    0.818017    0.000000
   294  O2    s     0.991972    0.562214    0.146674    0.000000
   295  O2    s     0.524018    0.551278    0.346749    0.000000
   296  O2    s     0.000415    0.435499    0.007797    0.000000
   297  O2    s     0.401234    0.967845    0.675961    0.000000
   298  O2    s     0.423892    0.403810    0.843693    0.000000
   299  O2    s     0.959648    0.551993    0.509912    0.000000
   300  O2    s     0.555362    0.006179    0.179561    0.000000
   301  O2    s     0.546721    0.130279    0.251368    0.000000
   302  O2    s     0.831171    0.413711    0.580457    0.000000
   303  O2    s     0.569797    0.419122    0.913215    0.000000
   304  O2    s     0.406904    0.836691    0.746859    0.000000
   305  O2    s     0.127148    0.561465    0.078972    0.000000
   306  O2    s     0.389526    0.552214    0.414915    0.000000
   307  F     s     0.420352    0.879653    0.249231    0.000000
   308  F     s     0.081384    0.543864    0.579611    0.000000
   309  F     s     0.431507    0.541479    0.912310    0.000000
   310  F     s     0.533706    0.086887    0.747166    0.000000
   311  F     s     0.833220    0.423966    0.068212    0.000000
   312  F     s     0.482588    0.395576    0.428285    0.000000
--------------------------------------------------------------------------------

  Final Cartesian lattice vectors (Angstroms) :

       11.971149    0.005121   -0.001302
       -6.057753   10.387153    0.018080
       -0.122057    0.051465   29.398869


  Final cell parameters and derivatives :

--------------------------------------------------------------------------------
       a           11.971151 Angstrom     dE/de1(xx)     0.001291 eV/strain
       b           12.024544 Angstrom     dE/de2(yy)     0.001001 eV/strain
       c           29.399167 Angstrom     dE/de3(zz)     0.002043 eV/strain
       alpha       89.707369 Degrees      dE/de4(yz)    -0.000315 eV/strain
       beta        90.244066 Degrees      dE/de5(xz)    -0.000040 eV/strain
       gamma      120.226061 Degrees      dE/de6(xy)     0.000320 eV/strain
--------------------------------------------------------------------------------

  Primitive cell volume =          3656.536002 Angs**3

  Density of cell =      1.749769 g/cm**3

  Non-primitive cell volume =          3656.536002 Angs**3


  Final internal derivatives :

--------------------------------------------------------------------------------
   No.  Atomic          a             b             c           Radius
        Label          (eV)          (eV)          (eV)        (eV/Angs)
--------------------------------------------------------------------------------
      1 Ge    c       0.000000      0.000000      0.000000      0.000000
      2 Si    c       0.000074      0.000288      0.000306      0.000000
      3 Si    c       0.000160     -0.000060     -0.000413      0.000000
      4 Si    c       0.000061      0.000059      0.000247      0.000000
      5 Si    c      -0.000113      0.000329     -0.000418      0.000000
      6 Si    c       0.000283      0.000217      0.000384      0.000000
      7 Si    c       0.000354      0.000207     -0.000194      0.000000
      8 Si    c       0.000193      0.000148     -0.000374      0.000000
      9 Si    c      -0.000114      0.000061     -0.000230      0.000000
     10 Si    c      -0.000037     -0.000388     -0.000293      0.000000
     11 Si    c      -0.000035      0.000114     -0.000017      0.000000
     12 Si    c       0.001307     -0.000376      0.007334      0.000000
     13 Si    c      -0.000720      0.000886     -0.003179      0.000000
     14 Si    c       0.000068      0.000070     -0.000335      0.000000
     15 Si    c       0.000058     -0.000233     -0.000006      0.000000
     16 Si    c       0.000299      0.000006     -0.000262      0.000000
     17 Si    c       0.000005      0.000053      0.000235      0.000000
     18 Si    c      -0.000032      0.000601      0.001060      0.000000
     19 Si    c       0.000345      0.000202      0.000033      0.000000
     20 Si    c      -0.000614     -0.000007     -0.000046      0.000000
     21 Si    c      -0.000023      0.000102      0.000269      0.000000
     22 Si    c       0.000323     -0.000232     -0.001336      0.000000
     23 Si    c       0.000036      0.000021      0.000269      0.000000
     24 Si    c       0.000048     -0.000260      0.000736      0.000000
     25 Si    c      -0.000210     -0.000057     -0.000540      0.000000
     26 Si    c       0.000156      0.000129     -0.000141      0.000000
     27 Si    c       0.000158      0.000001      0.000303      0.000000
     28 Si    c       0.000225      0.000381     -0.000058      0.000000
     29 Si    c       0.000137     -0.000156      0.000176      0.000000
     30 Si    c      -0.000270      0.000928      0.000470      0.000000
     31 Ge    c       0.000128     -0.000051     -0.000022      0.000000
     32 Si    c       0.000898      0.000075      0.000676      0.000000
     33 Si    c      -0.000295      0.000006     -0.000210      0.000000
     34 Si    c      -0.000116      0.000395     -0.000376      0.000000
     35 Si    c      -0.000151     -0.000012     -0.000136      0.000000
     36 Si    c       0.000245      0.000249     -0.000235      0.000000
     37 Si    c      -0.000474     -0.000016      0.000213      0.000000
     38 Si    c       0.000176      0.000110     -0.000389      0.000000
     39 Si    c       0.000134     -0.000294     -0.000407      0.000000
     40 Si    c       0.000203      0.000170     -0.000301      0.000000
     41 Si    c       0.000224     -0.000205      0.000106      0.000000
     42 Si    c       0.000308      0.000289      0.000960      0.000000
     43 Si    c       0.000253      0.000111      0.000300      0.000000
     44 Si    c       0.000599     -0.001047     -0.003572      0.000000
     45 Si    c      -0.000107      0.000002      0.000016      0.000000
     46 Si    c       0.000128      0.000402      0.000002      0.000000
     47 Si    c      -0.000041      0.000221      0.000410      0.000000
     48 Si    c       0.000215      0.000067     -0.000075      0.000000
     49 Ge    c       0.000140      0.001257     -0.000232      0.000000
     50 Si    c       0.000251      0.000161     -0.000160      0.000000
     51 Si    c       0.000181     -0.000069     -0.000203      0.000000
     52 Si    c       0.000212      0.000068     -0.000529      0.000000
     53 Si    c       0.000101      0.000134      0.000480      0.000000
     54 Si    c       0.000072      0.000161      0.001878      0.000000
     55 Si    c       0.000205      0.000136      0.000397      0.000000
     56 Si    c      -0.000410     -0.000564      0.001040      0.000000
     57 Si    c      -0.000141      0.000146     -0.000108      0.000000
     58 Si    c      -0.000229      0.000450     -0.001646      0.000000
     59 Si    c       0.000290      0.000046      0.000151      0.000000
     60 Si    c       0.000234      0.000228     -0.000212      0.000000
     61 O3    c       0.001860     -0.000966      0.003688      0.000000
     62 O2    c       0.000292      0.000129      0.000003      0.000000
     63 O2    c      -0.000082     -0.000052     -0.000069      0.000000
     64 O2    c       0.000229     -0.000032     -0.000020      0.000000
     65 O2    c      -0.000129     -0.000142     -0.000577      0.000000
     66 O2    c       0.000301     -0.000010     -0.000082      0.000000
     67 O2    c       0.000352      0.000298     -0.000314      0.000000
     68 O2    c      -0.000250      0.000031     -0.000125      0.000000
     69 O2    c      -0.000082      0.000624     -0.000284      0.000000
     70 O2    c       0.000058      0.000042      0.000495      0.000000
     71 O2    c      -0.000244     -0.000530      0.001814      0.000000
     72 O2    c       0.000232      0.000155      0.000205      0.000000
     73 O3    c      -0.000884     -0.002019      0.002179      0.000000
     74 O2    c       0.000241     -0.000279      0.000060      0.000000
     75 O2    c       0.000179      0.000044     -0.000343      0.000000
     76 O2    c       0.000045     -0.000067      0.000083      0.000000
     77 O2    c       0.000324      0.000107     -0.000093      0.000000
     78 O2    c       0.000004      0.000176     -0.000367      0.000000
     79 O3    c       0.002167     -0.000119      0.001569      0.000000
     80 O2    c       0.000253      0.000127     -0.000309      0.000000
     81 O2    c       0.000136     -0.000180     -0.000286      0.000000
     82 O2    c       0.000295      0.000005     -0.000194      0.000000
     83 O2    c       0.000235     -0.000115     -0.000150      0.000000
     84 O2    c       0.000218     -0.000327      0.000710      0.000000
     85 O2    c       0.000272      0.000053      0.000352      0.000000
     86 O2    c       0.003110     -0.002170     -0.002147      0.000000
     87 O2    c      -0.000086      0.000038      0.000133      0.000000
     88 O2    c      -0.000148     -0.000187      0.000055      0.000000
     89 O2    c       0.000077      0.000178      0.000241      0.000000
     90 O2    c       0.000170      0.000016      0.000141      0.000000
     91 O2    c       0.000180      0.000157     -0.000411      0.000000
     92 O2    c       0.000122     -0.000017     -0.000022      0.000000
     93 O3    c       0.000142     -0.001654     -0.009769      0.000000
     94 O2    c      -0.000046      0.000002     -0.000279      0.000000
     95 O2    c       0.000063      0.000972      0.006432      0.000000
     96 O2    c       0.000304     -0.000020     -0.000134      0.000000
     97 O3    c      -0.003716      0.002709     -0.001969      0.000000
     98 O2    c       0.000059      0.000175      0.000620      0.000000
     99 O2    c       0.000014     -0.000200      0.000134      0.000000
    100 O2    c       0.000095     -0.000070      0.000407      0.000000
    101 O2    c       0.000004      0.000120      0.000159      0.000000
    102 O2    c       0.000235      0.000292      0.000234      0.000000
    103 O2    c       0.000348      0.000277     -0.000397      0.000000
    104 O2    c      -0.003015      0.000622     -0.000585      0.000000
    105 O2    c      -0.000180      0.000022     -0.000399      0.000000
    106 O2    c      -0.000098      0.000051     -0.000054      0.000000
    107 O3    c       0.000250      0.000176     -0.000510      0.000000
    108 O2    c       0.000156      0.000480      0.001071      0.000000
    109 O2    c       0.000226      0.000325      0.000092      0.000000
    110 O2    c      -0.000264      0.000009      0.000148      0.000000
    111 O2    c      -0.000061      0.000125     -0.000578      0.000000
    112 O2    c       0.000111     -0.000260     -0.000122      0.000000
    113 O3    c      -0.002698     -0.000853     -0.001389      0.000000
    114 O2    c       0.000039      0.000250     -0.000078      0.000000
    115 O2    c      -0.000543     -0.000213      0.000354      0.000000
    116 O2    c       0.000129      0.000279     -0.000164      0.000000
    117 O2    c       0.000228     -0.000146     -0.000236      0.000000
    118 O2    c       0.000233     -0.000043     -0.000184      0.000000
    119 O2    c       0.000202     -0.000007     -0.000278      0.000000
    120 O2    c       0.000203      0.000647      0.000667      0.000000
    121 O2    c       0.000349      0.000121      0.000137      0.000000
    122 O2    c       0.000556      0.000607     -0.000550      0.000000
    123 O2    c      -0.000218      0.000118      0.000184      0.000000
    124 O2    c       0.000183     -0.000363     -0.000205      0.000000
    125 O2    c       0.000195      0.000143      0.000333      0.000000
    126 O2    c       0.000283     -0.000112      0.000128      0.000000
    127 O3    c      -0.000062     -0.000459     -0.000511      0.000000
    128 O2    c       0.000073      0.000268      0.000177      0.000000
    129 O2    c       0.000124     -0.000282      0.000360      0.000000
    130 O2    c      -0.000047     -0.000134      0.000633      0.000000
    131 O2    c      -0.000062      0.000217     -0.000127      0.000000
    132 O2    c       0.000146      0.000340      0.000303      0.000000
    133 O2    c       0.000321      0.000321     -0.000357      0.000000
    134 O2    c       0.000146      0.000155      0.000336      0.000000
    135 O2    c      -0.000191      0.000012     -0.000296      0.000000
    136 O2    c      -0.000042     -0.000025     -0.000229      0.000000
    137 O3    c       0.000340      0.000296     -0.000748      0.000000
    138 O2    c       0.000385      0.000058      0.001291      0.000000
    139 O3    c      -0.001348     -0.001579     -0.002267      0.000000
    140 O2    c       0.000273      0.000258      0.000182      0.000000
    141 O2    c      -0.000145     -0.000091      0.000304      0.000000
    142 O2    c      -0.000100      0.000027      0.000342      0.000000
    143 O2    c      -0.000188      0.000075     -0.000116      0.000000
    144 O2    c       0.000253      0.000331      0.000132      0.000000
    145 O2    c       0.000212      0.000250     -0.000239      0.000000
    146 O2    c      -0.000169      0.000379      0.000156      0.000000
    147 O2    c      -0.000049     -0.000182     -0.000269      0.000000
    148 O2    c       0.000251     -0.000240     -0.000148      0.000000
    149 O2    c       0.000116      0.000084     -0.000158      0.000000
    150 O2    c      -0.000092      0.000070      0.000891      0.000000
    151 O2    c      -0.000014      0.000195     -0.000249      0.000000
    152 O2    c       0.000086      0.000218      0.000180      0.000000
    153 O2    c       0.000166     -0.000256      0.000324      0.000000
    154 O2    c       0.000059      0.000017      0.000175      0.000000
    155 O2    c       0.000206     -0.000177      0.000257      0.000000
    156 O2    c      -0.000055     -0.000038     -0.000875      0.000000
    157 O3    c       0.000350      0.000302     -0.000580      0.000000
    158 O2    c       0.000413      0.000539      0.002507      0.000000
    159 O2    c      -0.000147      0.000047     -0.000183      0.000000
    160 O2    c      -0.000023     -0.000013      0.000228      0.000000
    161 O2    c      -0.000093      0.000180     -0.000366      0.000000
    162 O2    c       0.000404      0.000060     -0.000296      0.000000
    163 O2    c       0.000175      0.000228      0.000232      0.000000
    164 O2    c       0.000349      0.000137     -0.000354      0.000000
    165 O2    c       0.000114     -0.000036     -0.000447      0.000000
    166 O3    c       0.000258      0.000299     -0.000532      0.000000
    167 O2    c      -0.000009      0.000122     -0.000288      0.000000
    168 O2    c       0.000533     -0.000090      0.000041      0.000000
    169 O2    c       0.000242      0.000051      0.000358      0.000000
    170 O2    c       0.000282      0.000127     -0.000475      0.000000
    171 O2    c       0.000065     -0.000114      0.000312      0.000000
    172 O2    c       0.000334     -0.000167     -0.000152      0.000000
    173 O2    c       0.000173     -0.000046      0.000430      0.000000
    174 O2    c       0.000264      0.000024      0.000062      0.000000
    175 O2    c       0.000248      0.000011      0.000055      0.000000
    176 O2    c       0.000296     -0.000039     -0.000053      0.000000
    177 O2    c       0.000565     -0.000206     -0.002540      0.000000
    178 O2    c      -0.000014      0.000128     -0.000208      0.000000
    179 O2    c       0.000252      0.000393      0.000214      0.000000
    180 O2    c       0.000333      0.000036      0.000035      0.000000
    181 F     c       0.000252      0.000190     -0.000062      0.000000
    182 F     c      -0.000006     -0.000066      0.000010      0.000000
    183 F     c       0.000011      0.000050      0.000089      0.000000
    184 F     c      -0.000006     -0.000063      0.000009      0.000000
    185 F     c       0.000397     -0.000045     -0.001095      0.000000
    186 F     c       0.000123      0.000042      0.000428      0.000000
    187 O3    s       0.001920     -0.000390      0.001419      0.000000
    188 O2    s       0.000379      0.000150      0.000054      0.000000
    189 O2    s      -0.000039     -0.000008     -0.000159      0.000000
    190 O2    s       0.000342     -0.000008     -0.000241      0.000000
    191 O2    s       0.000072     -0.000248     -0.001115      0.000000
    192 O2    s       0.000080      0.000294      0.000782      0.000000
    193 O2    s       0.000544      0.000332     -0.000147      0.000000
    194 O2    s      -0.000151     -0.000017     -0.000126      0.000000
    195 O2    s       0.000326     -0.000053     -0.000971      0.000000
    196 O2    s      -0.000146      0.000135     -0.000128      0.000000
    197 O2    s      -0.000105      0.000094      0.003176      0.000000
    198 O2    s       0.000055      0.000258      0.000081      0.000000
    199 O3    s       0.000228      0.001542      0.000478      0.000000
    200 O2    s       0.000151     -0.000355     -0.000141      0.000000
    201 O2    s       0.000082      0.000174     -0.000156      0.000000
    202 O2    s       0.000203     -0.000181      0.000056      0.000000
    203 O2    s       0.000635     -0.000003      0.000415      0.000000
    204 O2    s       0.000143      0.000084     -0.000422      0.000000
    205 O3    s       0.002690      0.000529     -0.000290      0.000000
    206 O2    s       0.000185      0.000201     -0.000580      0.000000
    207 O2    s       0.000158     -0.000113     -0.000715      0.000000
    208 O2    s       0.000222      0.000079     -0.000643      0.000000
    209 O2    s       0.000218      0.000060     -0.000430      0.000000
    210 O2    s       0.000345     -0.000135      0.001300      0.000000
    211 O2    s       0.000350      0.000054      0.000781      0.000000
    212 O2    s       0.001710     -0.001577     -0.003141      0.000000
    213 O2    s      -0.000065     -0.000069      0.000199      0.000000
    214 O2    s       0.000107     -0.000357     -0.000311      0.000000
    215 O2    s       0.000132      0.000150      0.000657      0.000000
    216 O2    s       0.000226      0.000214      0.001226      0.000000
    217 O2    s       0.000460      0.000203      0.000059      0.000000
    218 O2    s       0.000212      0.000011      0.000012      0.000000
    219 O3    s       0.000890     -0.001578     -0.003743      0.000000
    220 O2    s       0.000127     -0.000085     -0.000412      0.000000
    221 O2    s      -0.000334      0.001158      0.004421      0.000000
    222 O2    s       0.000400      0.000089     -0.000091      0.000000
    223 O3    s      -0.002891      0.002637     -0.000905      0.000000
    224 O2    s       0.000227      0.000216      0.000779      0.000000
    225 O2    s       0.000057     -0.000226      0.000352      0.000000
    226 O2    s       0.000200     -0.000037      0.000437      0.000000
    227 O2    s       0.000423     -0.000089      0.000424      0.000000
    228 O2    s       0.000246      0.000233      0.001203      0.000000
    229 O2    s       0.000309      0.000337     -0.000447      0.000000
    230 O2    s      -0.002957     -0.000030     -0.001064      0.000000
    231 O2    s      -0.000175     -0.000028     -0.000825      0.000000
    232 O2    s      -0.000115      0.000119     -0.001078      0.000000
    233 O3    s       0.000086      0.000213     -0.000344      0.000000
    234 O2    s       0.000413      0.000388      0.001534      0.000000
    235 O2    s       0.000450      0.000441     -0.000168      0.000000
    236 O2    s      -0.000122     -0.000158      0.000060      0.000000
    237 O2    s       0.000642     -0.000415     -0.000793      0.000000
    238 O2    s      -0.000042     -0.000146     -0.000405      0.000000
    239 O3    s       0.000902      0.000912     -0.000632      0.000000
    240 O2    s      -0.000034      0.000388     -0.000008      0.000000
    241 O2    s      -0.000946      0.001133     -0.001688      0.000000
    242 O2    s       0.000173      0.000215     -0.000254      0.000000
    243 O2    s       0.000102     -0.000190     -0.000554      0.000000
    244 O2    s       0.000215      0.000048     -0.000292      0.000000
    245 O2    s       0.000118      0.000063     -0.000444      0.000000
    246 O2    s       0.001127     -0.000461      0.001241      0.000000
    247 O2    s       0.000534      0.000065      0.000418      0.000000
    248 O2    s       0.000201      0.000270     -0.001961      0.000000
    249 O2    s      -0.000036     -0.000024      0.000335      0.000000
    250 O2    s      -0.000145     -0.000053      0.000706      0.000000
    251 O2    s       0.000116      0.000153      0.000499      0.000000
    252 O2    s       0.000404      0.000192      0.001295      0.000000
    253 O3    s       0.000325      0.000064     -0.000470      0.000000
    254 O2    s       0.000131      0.000301      0.000462      0.000000
    255 O2    s       0.000089     -0.000138      0.000336      0.000000
    256 O2    s       0.000027     -0.000127      0.000764      0.000000
    257 O2    s       0.000291     -0.000135      0.000192      0.000000
    258 O2    s       0.000412      0.000186      0.001086      0.000000
    259 O2    s       0.000463      0.000232     -0.000418      0.000000
    260 O2    s       0.000698     -0.000608     -0.000647      0.000000
    261 O2    s      -0.000076     -0.000080     -0.000610      0.000000
    262 O2    s      -0.000026     -0.000195     -0.000654      0.000000
    263 O3    s       0.000064      0.000272     -0.000779      0.000000
    264 O2    s      -0.000510      0.000262      0.000713      0.000000
    265 O3    s      -0.000477     -0.000286      0.000316      0.000000
    266 O2    s       0.000174      0.000391      0.000618      0.000000
    267 O2    s      -0.000098     -0.000099      0.000205      0.000000
    268 O2    s      -0.000004      0.000184      0.000805      0.000000
    269 O2    s       0.000243     -0.000286      0.000325      0.000000
    270 O2    s       0.000446      0.000288      0.001078      0.000000
    271 O2    s       0.000170      0.000257     -0.000410      0.000000
    272 O2    s       0.000657     -0.000074     -0.001172      0.000000
    273 O2    s      -0.000027     -0.000143     -0.000637      0.000000
    274 O2    s      -0.000057     -0.000103     -0.000589      0.000000
    275 O2    s       0.000094      0.000094     -0.000366      0.000000
    276 O2    s      -0.000038     -0.000433      0.002079      0.000000
    277 O2    s       0.000562     -0.000152      0.000413      0.000000
    278 O2    s       0.000134      0.000265     -0.000096      0.000000
    279 O2    s       0.000225     -0.000314      0.000060      0.000000
    280 O2    s       0.000173      0.000151      0.000099      0.000000
    281 O2    s       0.000146     -0.000090      0.000164      0.000000
    282 O2    s       0.000693     -0.000639      0.000335      0.000000
    283 O3    s       0.000598      0.000275     -0.000422      0.000000
    284 O2    s      -0.000431      0.000673      0.002334      0.000000
    285 O2    s      -0.000191     -0.000090     -0.000064      0.000000
    286 O2    s       0.000001     -0.000534      0.000215      0.000000
    287 O2    s      -0.000005      0.000096     -0.000169      0.000000
    288 O2    s       0.000601      0.000301     -0.000115      0.000000
    289 O2    s      -0.000472      0.000267     -0.001667      0.000000
    290 O2    s       0.000306      0.000268     -0.000625      0.000000
    291 O2    s       0.000030     -0.000133     -0.000687      0.000000
    292 O3    s       0.000366      0.000205     -0.000891      0.000000
    293 O2    s       0.000089     -0.000001     -0.000613      0.000000
    294 O2    s       0.000477      0.000050      0.001277      0.000000
    295 O2    s       0.000316      0.000210      0.000521      0.000000
    296 O2    s       0.000598     -0.000302     -0.000564      0.000000
    297 O2    s       0.000067     -0.000082      0.000342      0.000000
    298 O2    s       0.000027      0.000066      0.000635      0.000000
    299 O2    s       0.000283     -0.000111      0.000772      0.000000
    300 O2    s       0.000378      0.000023      0.001090      0.000000
    301 O2    s       0.000243      0.000036      0.000139      0.000000
    302 O2    s       0.000257     -0.000078     -0.000126      0.000000
    303 O2    s      -0.000597      0.001187     -0.001572      0.000000
    304 O2    s       0.000127      0.000018     -0.000045      0.000000
    305 O2    s       0.000881     -0.000455      0.000585      0.000000
    306 O2    s       0.000521      0.000135     -0.000025      0.000000
    307 F     s       0.000346      0.000196      0.000106      0.000000
    308 F     s      -0.000030     -0.000085      0.000146      0.000000
    309 F     s       0.000349     -0.000218      0.000121      0.000000
    310 F     s       0.000001     -0.000053     -0.000007      0.000000
    311 F     s      -0.000851      0.000282     -0.001436      0.000000
    312 F     s       0.000162      0.000039      0.000390      0.000000
--------------------------------------------------------------------------------
  Maximum abs         0.003716      0.002709      0.009769      0.000000
--------------------------------------------------------------------------------


  Time to end of optimisation =      51.4312 seconds


  Peak dynamic memory used =      19.13 MB 


  Timing analysis for GULP :

--------------------------------------------------------------------------------
  Task / Subroutine                                          Time (Seconds)
--------------------------------------------------------------------------------
  Calculation of reciprocal space energy and derivatives          1.3617
  Calculation of real space energy and derivatives               44.8041
  Calculation of three-body energy and derivatives                4.4276
  Calculation of matrix inversion                                 0.7446
  Global summation overhead                                       0.0001
--------------------------------------------------------------------------------
  Total CPU time                                                 51.4312
--------------------------------------------------------------------------------


  Dump file written as out.res                                                 
  CIF file written as out.cif                                                 


  Job Finished at 16:11.56  7th November   2016                               

