********************************************************************************
*                       GENERAL UTILITY LATTICE PROGRAM                        *
*                                 Julian Gale                                  *
*                      Nanochemistry Research Institute                        *
*                           Department of Chemistry                            *
*                    Curtin University, Western Australia                      *
********************************************************************************
* Version = 4.2.0 * Last modified =  20th January 2014                         *
********************************************************************************
*  optimise     - perform optimisation run                                     *
*  conp         - constant pressure calculation                                *
*  qok          - running with non charge neutral cell is OK                   *
********************************************************************************

  Job Started  at 22:17.06  7th November   2016                               

  Number of CPUs =     1


  Total number of configurations input =   1

********************************************************************************
*  Input for Configuration =   1                                               *
********************************************************************************

  Formula = Ge3Si57O120F6                                               

  Number of irreducible atoms/shells =     312


  Total number atoms/shells =     312

  Dimensionality = 3               :  Bulk   


  Charge on solid   =  -6.000000 =>neutralising background added


  Cartesian lattice vectors (Angstroms) :

       11.938113    0.000000    0.000000
       -6.011392   10.385726    0.000000
        0.267952   -0.171808   29.477407

  Cell parameters (Angstroms/Degrees):

  a =      11.9381    alpha =  90.5499
  b =      12.0000    beta  =  89.4792
  c =      29.4791    gamma = 120.0628

  Initial cell volume =        3654.784941 Angs**3

  Temperature of configuration =  0.000     K 

  Pressure of configuration =         0.000 GPa 

  Fractional coordinates of asymmetric unit :

--------------------------------------------------------------------------------
   No.  Atomic       x           y          z         Charge      Occupancy
        Label      (Frac)      (Frac)     (Frac)        (e)         (Frac)  
--------------------------------------------------------------------------------
      1 Ge    c    0.699600    0.375700    0.033890     4.00000    1.000000    
      2 Si    c    0.622525 *  0.323588 *  0.365555 *   4.00000    1.000000    
      3 Si    c    0.675368 *  0.300527 *  0.697968 *   4.00000    1.000000    
      4 Si    c    0.296598 *  0.621790 *  0.531151 *   4.00000    1.000000    
      5 Si    c    0.380773 *  0.671010 *  0.865523 *   4.00000    1.000000    
      6 Si    c    0.328468 *  0.698206 *  0.199714 *   4.00000    1.000000    
      7 Si    c    0.380420 *  0.699485 *  0.300322 *   4.00000    1.000000    
      8 Si    c    0.323910 *  0.617626 *  0.965639 *   4.00000    1.000000    
      9 Si    c    0.294898 *  0.676118 *  0.631737 *   4.00000    1.000000    
     10 Si    c    0.625620 *  0.304173 *  0.800860 *   4.00000    1.000000    
     11 Si    c    0.675947 *  0.379900 *  0.466066 *   4.00000    1.000000    
     12 Si    c    0.692664 *  0.316063 *  0.136621 *   4.00000    1.000000    
     13 Si    c    0.531162 *  0.416501 *  0.966109 *   4.00000    1.000000    
     14 Si    c    0.583685 *  0.109870 *  0.301761 *   4.00000    1.000000    
     15 Si    c    0.887674 *  0.471324 *  0.632658 *   4.00000    1.000000    
     16 Si    c    0.469226 *  0.582337 *  0.466249 *   4.00000    1.000000    
     17 Si    c    0.410868 *  0.878977 *  0.801016 *   4.00000    1.000000    
     18 Si    c    0.120177 *  0.530198 *  0.135011 *   4.00000    1.000000    
     19 Si    c    0.417744 *  0.528131 *  0.364797 *   4.00000    1.000000    
     20 Si    c    0.115892 *  0.586000 *  0.032300 *   4.00000    1.000000    
     21 Si    c    0.465729 *  0.885488 *  0.697153 *   4.00000    1.000000    
     22 Si    c    0.590116 *  0.474157 *  0.865062 *   4.00000    1.000000    
     23 Si    c    0.885570 *  0.418150 *  0.531029 *   4.00000    1.000000    
     24 Si    c    0.527293 *  0.102766 *  0.200932 *   4.00000    1.000000    
     25 Si    c    0.306092 *  0.394393 *  0.848940 *   4.00000    1.000000    
     26 Si    c    0.606894 *  0.901091 *  0.185305 *   4.00000    1.000000    
     27 Si    c    0.095282 *  0.699208 *  0.516573 *   4.00000    1.000000    
     28 Si    c    0.700464 *  0.601315 *  0.350122 *   4.00000    1.000000    
     29 Si    c    0.393385 *  0.097745 *  0.680537 *   4.00000    1.000000    
     30 Si    c    0.904950 *  0.298090 *  0.017235 *   4.00000    1.000000    
     31 Si    c    0.396997 *  0.302977 *  0.480663 *   4.00000    1.000000    
     32 Ge    c    0.901344 *  0.589585 *  0.141996 *   4.00000    1.000000    
     33 Si    c    0.696710 *  0.094706 *  0.814792 *   4.00000    1.000000    
     34 Si    c    0.602746 *  0.696591 *  0.981204 *   4.00000    1.000000    
     35 Si    c    0.095154 *  0.398065 *  0.646725 *   4.00000    1.000000    
     36 Si    c    0.302124 *  0.899595 *  0.314864 *   4.00000    1.000000    
     37 Si    c    0.252588 *  0.338593 *  0.949559 *   4.00000    1.000000    
     38 Si    c    0.662372 *  0.909689 *  0.285999 *   4.00000    1.000000    
     39 Si    c    0.087477 *  0.749740 *  0.617520 *   4.00000    1.000000    
     40 Si    c    0.748444 *  0.659456 *  0.450973 *   4.00000    1.000000    
     41 Ge    c    0.357876 *  0.089747 *  0.780637 *   4.00000    1.000000    
     42 Si    c    0.912021 *  0.248862 *  0.119374 *   4.00000    1.000000    
     43 Si    c    0.339537 *  0.249976 *  0.380086 *   4.00000    1.000000    
     44 Si    c    0.912432 *  0.667444 *  0.045198 *   4.00000    1.000000    
     45 Si    c    0.748038 *  0.087552 *  0.712509 *   4.00000    1.000000    
     46 Si    c    0.664169 *  0.751011 *  0.880801 *   4.00000    1.000000    
     47 Si    c    0.087158 *  0.340573 *  0.545810 *   4.00000    1.000000    
     48 Si    c    0.247600 *  0.901493 *  0.214408 *   4.00000    1.000000    
     49 Si    c    0.974384 *  0.121039 *  0.964628 *   4.00000    1.000000    
     50 Si    c    0.880258 *  0.847923 *  0.298705 *   4.00000    1.000000    
     51 Si    c    0.148716 *  0.029082 *  0.630447 *   4.00000    1.000000    
     52 Si    c    0.027884 *  0.878016 *  0.465531 *   4.00000    1.000000    
     53 Si    c    0.127744 *  0.145802 *  0.797540 *   4.00000    1.000000    
     54 Si    c    0.854102 *  0.969799 *  0.132954 *   4.00000    1.000000    
     55 Si    c    0.121814 *  0.969491 *  0.364619 *   4.00000    1.000000    
     56 Si    c    0.850852 *  0.880627 *  0.030627 *   4.00000    1.000000    
     57 Si    c    0.030949 *  0.152504 *  0.697691 *   4.00000    1.000000    
     58 Si    c    0.881749 *  0.029926 *  0.863411 *   4.00000    1.000000    
     59 Si    c    0.147503 *  0.122058 *  0.530423 *   4.00000    1.000000    
     60 Si    c    0.967121 *  0.840167 *  0.196837 *   4.00000    1.000000    
     61 O2    c    0.926941 *  0.001575 *  0.997781 *   0.87073    1.000000    
     62 O2    c    0.002603 *  0.928121 *  0.331149 *   0.87073    1.000000    
     63 O2    c    0.072402 *  0.073647 *  0.664158 *   0.87073    1.000000    
     64 O2    c    0.069591 *  0.001394 *  0.497290 *   0.87073    1.000000    
     65 O2    c    0.001258 *  0.072173 *  0.830019 *   0.87073    1.000000    
     66 O2    c    0.936246 *  0.930345 *  0.164551 *   0.87073    1.000000    
     67 O2    c    0.341175 *  0.576503 *  0.332647 *   0.87073    1.000000    
     68 O2    c    0.418387 *  0.761059 *  0.664461 *   0.87073    1.000000    
     69 O2    c    0.239739 *  0.656969 *  0.998932 *   0.87073    1.000000    
     70 O2    c    0.673860 *  0.430871 *  0.833134 *   0.87073    1.000000    
     71 O2    c    0.571035 *  0.225419 *  0.168562 *   0.87073    1.000000    
     72 O2    c    0.759932 *  0.341555 *  0.498858 *   0.87073    1.000000    
     73 O3    c    0.571232 *  0.335251 *  0.997657 *   1.33043    1.000000    
     74 O2    c    0.762072 *  0.422219 *  0.665718 *   0.87073    1.000000    
     75 O2    c    0.660789 *  0.236769 *  0.333647 *   0.87073    1.000000    
     76 O2    c    0.420424 *  0.660160 *  0.498567 *   0.87073    1.000000    
     77 O2    c    0.248453 *  0.575769 *  0.165797 *   0.87073    1.000000    
     78 O2    c    0.341359 *  0.751215 *  0.831848 *   0.87073    1.000000    
     79 O2    c    0.128670 *  0.210171 *  0.969822 *   0.87073    1.000000    
     80 O2    c    0.788345 *  0.909984 *  0.306162 *   0.87073    1.000000    
     81 O2    c    0.085378 *  0.875392 *  0.637229 *   0.87073    1.000000    
     82 O2    c    0.873670 *  0.786107 *  0.471523 *   0.87073    1.000000    
     83 O3    c    0.212315 *  0.081561 *  0.802169 *   1.33043    1.000000    
     84 O2    c    0.913274 *  0.124024 *  0.138658 *   0.87073    1.000000    
     85 O2    c    0.213364 *  0.123698 *  0.359971 *   0.87073    1.000000    
     86 O2    c    0.917316 *  0.793668 *  0.022567 *   0.87073    1.000000    
     87 O2    c    0.875161 *  0.089982 *  0.692327 *   0.87073    1.000000    
     88 O2    c    0.789292 *  0.875794 *  0.859584 *   0.87073    1.000000    
     89 O2    c    0.085294 *  0.213832 *  0.525225 *   0.87073    1.000000    
     90 O2    c    0.123342 *  0.900368 *  0.193062 *   0.87073    1.000000    
     91 O2    c    0.930159 *  0.861546 *  0.247803 *   0.87073    1.000000    
     92 O2    c    0.128801 *  0.065618 *  0.580473 *   0.87073    1.000000    
     93 O2    c    0.933588 *  0.070279 *  0.914042 *   0.87073    1.000000    
     94 O2    c    0.068608 *  0.139163 *  0.747933 *   0.87073    1.000000    
     95 O2    c    0.865172 *  0.934452 *  0.081277 *   0.87073    1.000000    
     96 O2    c    0.066226 *  0.928854 *  0.414910 *   0.87073    1.000000    
     97 O2    c    0.910020 *  0.207436 *  0.977621 *   0.87073    1.000000    
     98 O2    c    0.798663 *  0.696642 *  0.311589 *   0.87073    1.000000    
     99 O2    c    0.302833 *  0.096525 *  0.639058 *   0.87073    1.000000    
    100 O2    c    0.098045 *  0.797127 *  0.478362 *   0.87073    1.000000    
    101 O2    c    0.212345 *  0.298886 *  0.809935 *   0.87073    1.000000    
    102 O2    c    0.702497 *  0.899157 *  0.146219 *   0.87073    1.000000    
    103 O2    c    0.204403 *  0.899714 *  0.353542 *   0.87073    1.000000    
    104 O2    c    0.697774 *  0.795226 *  0.019935 *   0.87073    1.000000    
    105 O2    c    0.098036 *  0.303278 *  0.685078 *   0.87073    1.000000    
    106 O2    c    0.796307 *  0.096867 *  0.852035 *   0.87073    1.000000    
    107 O2    c    0.300202 *  0.205246 *  0.519234 *   0.87073    1.000000    
    108 O3    c    0.895065 *  0.694372 *  0.184498 *   1.33043    1.000000    
    109 O2    c    0.325504 *  0.641265 *  0.249961 *   0.87073    1.000000    
    110 O2    c    0.353789 *  0.677774 *  0.581543 *   0.87073    1.000000    
    111 O2    c    0.322842 *  0.674528 *  0.915673 *   0.87073    1.000000    
    112 O2    c    0.676181 *  0.353176 *  0.749011 *   0.87073    1.000000    
    113 O3    c    0.635437 *  0.314247 *  0.086628 *   1.33043    1.000000    
    114 O2    c    0.678284 *  0.323306 *  0.415856 *   0.87073    1.000000    
    115 O2    c    0.374326 *  0.330526 *  0.968513 *   0.87073    1.000000    
    116 O2    c    0.671573 *  0.041504 *  0.304830 *   0.87073    1.000000    
    117 O2    c    0.955566 *  0.627022 *  0.636471 *   0.87073    1.000000    
    118 O2    c    0.625777 *  0.670023 *  0.469427 *   0.87073    1.000000    
    119 O3    c    0.321579 *  0.941597 *  0.805912 *   1.33043    1.000000    
    120 O2    c    0.044613 *  0.373431 *  0.136155 *   0.87073    1.000000    
    121 O2    c    0.329997 *  0.372082 *  0.361885 *   0.87073    1.000000    
    122 O2    c    0.047874 *  0.673366 *  0.030439 *   0.87073    1.000000    
    123 O2    c    0.622793 *  0.956919 *  0.695074 *   0.87073    1.000000    
    124 O2    c    0.676169 *  0.629824 *  0.862747 *   0.87073    1.000000    
    125 O2    c    0.954346 *  0.330772 *  0.528154 *   0.87073    1.000000    
    126 O2    c    0.371402 *  0.034179 *  0.197207 *   0.87073    1.000000    
    127 O3    c    0.770180 *  0.292025 *  0.011326 *   1.33043    1.000000    
    128 O2    c    0.698623 *  0.466175 *  0.343142 *   0.87073    1.000000    
    129 O2    c    0.531783 *  0.231164 *  0.676119 *   0.87073    1.000000    
    130 O2    c    0.228873 *  0.697255 *  0.509377 *   0.87073    1.000000    
    131 O2    c    0.306171 *  0.528489 *  0.842876 *   0.87073    1.000000    
    132 O2    c    0.472783 *  0.767217 *  0.177824 *   0.87073    1.000000    
    133 O2    c    0.303931 *  0.767015 *  0.322610 *   0.87073    1.000000    
    134 O2    c    0.466247 *  0.692830 *  0.988935 *   0.87073    1.000000    
    135 O2    c    0.227782 *  0.533801 *  0.654359 *   0.87073    1.000000    
    136 O2    c    0.696304 *  0.228503 *  0.820645 *   0.87073    1.000000    
    137 O2    c    0.531917 *  0.304600 *  0.488481 *   0.87073    1.000000    
    138 O3    c    0.754842 *  0.455202 *  0.159553 *   1.33043    1.000000    
    139 O3    c    0.789196 *  0.541364 *  0.025243 *   1.33043    1.000000    
    140 O2    c    0.466120 *  0.249770 *  0.360704 *   0.87073    1.000000    
    141 O2    c    0.739370 *  0.209601 *  0.695349 *   0.87073    1.000000    
    142 O2    c    0.213355 *  0.466064 *  0.526260 *   0.87073    1.000000    
    143 O2    c    0.537616 *  0.749456 *  0.861311 *   0.87073    1.000000    
    144 O2    c    0.251979 *  0.777295 *  0.195084 *   0.87073    1.000000    
    145 O2    c    0.536662 *  0.782715 *  0.305215 *   0.87073    1.000000    
    146 O2    c    0.245725 *  0.461285 *  0.969538 *   0.87073    1.000000    
    147 O2    c    0.214604 *  0.752164 *  0.637159 *   0.87073    1.000000    
    148 O3    c    0.472482 *  0.232603 *  0.808374 *   1.33043    1.000000    
    149 O2    c    0.750565 *  0.535734 *  0.470944 *   0.87073    1.000000    
    150 O2    c    0.787066 *  0.253201 *  0.137442 *   0.87073    1.000000    
    151 O2    c    0.234656 *  0.320235 *  0.895324 *   0.87073    1.000000    
    152 O2    c    0.681474 *  0.907717 *  0.231675 *   0.87073    1.000000    
    153 O2    c    0.089994 *  0.768376 *  0.563281 *   0.87073    1.000000    
    154 O2    c    0.769542 *  0.675865 *  0.396728 *   0.87073    1.000000    
    155 O3    c    0.311407 *  0.094404 *  0.723815 *   1.33043    1.000000    
    156 O2    c    0.911618 *  0.236547 *  0.064822 *   0.87073    1.000000    
    157 O2    c    0.321886 *  0.231834 *  0.434455 *   0.87073    1.000000    
    158 O3    c    0.906169 *  0.691702 *  0.098266 *   1.33043    1.000000    
    159 O2    c    0.758912 *  0.088423 *  0.766725 *   0.87073    1.000000    
    160 O2    c    0.679150 *  0.769263 *  0.935208 *   0.87073    1.000000    
    161 O2    c    0.090901 *  0.323944 *  0.600062 *   0.87073    1.000000    
    162 O2    c    0.229538 *  0.900714 *  0.268905 *   0.87073    1.000000    
    163 O2    c    0.590016 *  0.557923 *  0.989982 *   0.87073    1.000000    
    164 O2    c    0.441119 *  0.025688 *  0.324353 *   0.87073    1.000000    
    165 O2    c    0.967935 *  0.410313 *  0.655730 *   0.87073    1.000000    
    166 O2    c    0.410377 *  0.441968 *  0.489742 *   0.87073    1.000000    
    167 O2    c    0.555243 *  0.971751 *  0.822202 *   0.87073    1.000000    
    168 O3    c    0.041345 *  0.589200 *  0.158835 *   1.33043    1.000000    
    169 O2    c    0.559842 *  0.585465 *  0.341796 *   0.87073    1.000000    
    170 O2    c    0.020898 *  0.444149 *  0.011838 *   0.87073    1.000000    
    171 O2    c    0.413832 *  0.974219 *  0.675185 *   0.87073    1.000000    
    172 O2    c    0.449620 *  0.416266 *  0.841541 *   0.87073    1.000000    
    173 O2    c    0.970387 *  0.559067 *  0.508223 *   0.87073    1.000000    
    174 O2    c    0.591149 *  0.025092 *  0.176863 *   0.87073    1.000000    
    175 O2    c    0.583329 *  0.161086 *  0.251010 *   0.87073    1.000000    
    176 O2    c    0.832394 *  0.418298 *  0.582107 *   0.87073    1.000000    
    177 O2    c    0.587731 *  0.419540 *  0.915448 *   0.87073    1.000000    
    178 O2    c    0.415310 *  0.835962 *  0.748253 *   0.87073    1.000000    
    179 O2    c    0.164637 *  0.581217 *  0.083065 *   0.87073    1.000000    
    180 O2    c    0.416502 *  0.581818 *  0.415586 *   0.87073    1.000000    
    181 F     c    0.454876 *  0.901901 *  0.250415 *   0.56000    1.000000    
    182 F     c    0.094007 *  0.548628 *  0.583125 *   0.56000    1.000000    
    183 F     c    0.453236 *  0.548549 *  0.916848 *   0.56000    1.000000    
    184 F     c    0.509094 *  0.093306 *  0.753869 *   0.56000    1.000000    
    185 F     c    0.893273 *  0.474372 *  0.090518 *   0.56000    1.000000    
    186 F     c    0.547839 *  0.452053 *  0.416438 *   0.56000    1.000000    
    187 O2    s    0.923849 *  0.001767 *  0.997649 *  -2.87073    1.000000    
    188 O2    s    0.002523 *  0.923907 *  0.331335 *  -2.87073    1.000000    
    189 O2    s    0.076259 *  0.077531 *  0.664150 *  -2.87073    1.000000    
    190 O2    s    0.073691 *  0.001143 *  0.497472 *  -2.87073    1.000000    
    191 O2    s    0.000537 *  0.074960 *  0.830510 *  -2.87073    1.000000    
    192 O2    s    0.930154 *  0.925546 *  0.164295 *  -2.87073    1.000000    
    193 O2    s    0.353125 *  0.584165 *  0.332631 *  -2.87073    1.000000    
    194 O2    s    0.410790 *  0.765467 *  0.664550 *  -2.87073    1.000000    
    195 O2    s    0.235200 *  0.645449 *  0.999062 *  -2.87073    1.000000    
    196 O2    s    0.660681 *  0.422508 *  0.833088 *  -2.87073    1.000000    
    197 O2    s    0.579373 *  0.222016 *  0.168559 *  -2.87073    1.000000    
    198 O2    s    0.764433 *  0.353452 *  0.498846 *  -2.87073    1.000000    
    199 O3    s    0.577359 *  0.346590 *  0.997350 *  -3.33043    1.000000    
    200 O2    s    0.765624 *  0.414278 *  0.665794 *  -2.87073    1.000000    
    201 O2    s    0.648909 *  0.232681 *  0.333675 *  -2.87073    1.000000    
    202 O2    s    0.412512 *  0.648180 *  0.498656 *  -2.87073    1.000000    
    203 O2    s    0.243465 *  0.583373 *  0.166071 *  -2.87073    1.000000    
    204 O2    s    0.352883 *  0.756335 *  0.832119 *  -2.87073    1.000000    
    205 O2    s    0.124717 *  0.213738 *  0.967201 *  -2.87073    1.000000    
    206 O2    s    0.784859 *  0.903431 *  0.303307 *  -2.87073    1.000000    
    207 O2    s    0.092222 *  0.878480 *  0.634507 *  -2.87073    1.000000    
    208 O2    s    0.877210 *  0.782831 *  0.468795 *  -2.87073    1.000000    
    209 O3    s    0.212241 *  0.089416 *  0.800257 *  -3.33043    1.000000    
    210 O2    s    0.907049 *  0.121428 *  0.136036 *  -2.87073    1.000000    
    211 O2    s    0.216820 *  0.120545 *  0.362529 *  -2.87073    1.000000    
    212 O2    s    0.909749 *  0.790406 *  0.025614 *  -2.87073    1.000000    
    213 O2    s    0.877339 *  0.096073 *  0.695010 *  -2.87073    1.000000    
    214 O2    s    0.786073 *  0.879199 *  0.862182 *  -2.87073    1.000000    
    215 O2    s    0.092056 *  0.217288 *  0.527888 *  -2.87073    1.000000    
    216 O2    s    0.120961 *  0.894422 *  0.195707 *  -2.87073    1.000000    
    217 O2    s    0.928317 *  0.857725 *  0.248294 *  -2.87073    1.000000    
    218 O2    s    0.133165 *  0.067845 *  0.580488 *  -2.87073    1.000000    
    219 O2    s    0.932428 *  0.071563 *  0.914139 *  -2.87073    1.000000    
    220 O2    s    0.070497 *  0.141429 *  0.747339 *  -2.87073    1.000000    
    221 O2    s    0.862383 *  0.932424 *  0.081348 *  -2.87073    1.000000    
    222 O2    s    0.068107 *  0.927624 *  0.415025 *  -2.87073    1.000000    
    223 O2    s    0.916371 *  0.207951 *  0.980486 *  -2.87073    1.000000    
    224 O2    s    0.797020 *  0.702524 *  0.314237 *  -2.87073    1.000000    
    225 O2    s    0.295794 *  0.089616 *  0.642237 *  -2.87073    1.000000    
    226 O2    s    0.090387 *  0.795567 *  0.480954 *  -2.87073    1.000000    
    227 O2    s    0.213854 *  0.293779 *  0.812828 *  -2.87073    1.000000    
    228 O2    s    0.708759 *  0.906852 *  0.148835 *  -2.87073    1.000000    
    229 O2    s    0.205590 *  0.907144 *  0.350752 *  -2.87073    1.000000    
    230 O2    s    0.704120 *  0.794131 *  0.017110 *  -2.87073    1.000000    
    231 O2    s    0.090635 *  0.297076 *  0.682465 *  -2.87073    1.000000    
    232 O2    s    0.794617 *  0.089709 *  0.849296 *  -2.87073    1.000000    
    233 O2    s    0.293767 *  0.206314 *  0.516515 *  -2.87073    1.000000    
    234 O3    s    0.903620 *  0.703906 *  0.183090 *  -3.33043    1.000000    
    235 O2    s    0.331400 *  0.653012 *  0.249947 *  -2.87073    1.000000    
    236 O2    s    0.341888 *  0.671892 *  0.581588 *  -2.87073    1.000000    
    237 O2    s    0.328792 *  0.668398 *  0.915710 *  -2.87073    1.000000    
    238 O2    s    0.671039 *  0.342824 *  0.748835 *  -2.87073    1.000000    
    239 O3    s    0.645953 *  0.319480 *  0.086980 *  -3.33043    1.000000    
    240 O2    s    0.672371 *  0.329175 *  0.415901 *  -2.87073    1.000000    
    241 O2    s    0.377304 *  0.340358 *  0.966186 *  -2.87073    1.000000    
    242 O2    s    0.661586 *  0.034754 *  0.302543 *  -2.87073    1.000000    
    243 O2    s    0.962266 *  0.623682 *  0.634099 *  -2.87073    1.000000    
    244 O2    s    0.622453 *  0.659825 *  0.467147 *  -2.87073    1.000000    
    245 O3    s    0.333435 *  0.945710 *  0.803579 *  -3.33043    1.000000    
    246 O2    s    0.038282 *  0.376177 *  0.134258 *  -2.87073    1.000000    
    247 O2    s    0.340017 *  0.375370 *  0.364103 *  -2.87073    1.000000    
    248 O2    s    0.041630 *  0.663597 *  0.032120 *  -2.87073    1.000000    
    249 O2    s    0.620040 *  0.963483 *  0.697138 *  -2.87073    1.000000    
    250 O2    s    0.665914 *  0.626490 *  0.864927 *  -2.87073    1.000000    
    251 O2    s    0.961187 *  0.340833 *  0.530321 *  -2.87073    1.000000    
    252 O2    s    0.374731 *  0.027328 *  0.199437 *  -2.87073    1.000000    
    253 O3    s    0.778489 *  0.299348 *  0.013762 *  -3.33043    1.000000    
    254 O2    s    0.690988 *  0.465613 *  0.346218 *  -2.87073    1.000000    
    255 O2    s    0.532707 *  0.224863 *  0.678881 *  -2.87073    1.000000    
    256 O2    s    0.221752 *  0.689671 *  0.512421 *  -2.87073    1.000000    
    257 O2    s    0.313964 *  0.529296 *  0.845920 *  -2.87073    1.000000    
    258 O2    s    0.471997 *  0.774229 *  0.180931 *  -2.87073    1.000000    
    259 O2    s    0.311622 *  0.773980 *  0.319465 *  -2.87073    1.000000    
    260 O2    s    0.465926 *  0.685472 *  0.985690 *  -2.87073    1.000000    
    261 O2    s    0.220728 *  0.534179 *  0.651198 *  -2.87073    1.000000    
    262 O2    s    0.689197 *  0.221880 *  0.818005 *  -2.87073    1.000000    
    263 O2    s    0.532530 *  0.312188 *  0.485311 *  -2.87073    1.000000    
    264 O3    s    0.759419 *  0.451091 *  0.155862 *  -3.33043    1.000000    
    265 O3    s    0.794602 *  0.540948 *  0.027923 *  -3.33043    1.000000    
    266 O2    s    0.468724 *  0.257602 *  0.363291 *  -2.87073    1.000000    
    267 O2    s    0.733442 *  0.205758 *  0.697492 *  -2.87073    1.000000    
    268 O2    s    0.208219 *  0.468688 *  0.528868 *  -2.87073    1.000000    
    269 O2    s    0.535008 *  0.741402 *  0.863847 *  -2.87073    1.000000    
    270 O2    s    0.259711 *  0.782353 *  0.197621 *  -2.87073    1.000000    
    271 O2    s    0.533826 *  0.787772 *  0.302655 *  -2.87073    1.000000    
    272 O2    s    0.254504 *  0.464375 *  0.967053 *  -2.87073    1.000000    
    273 O2    s    0.209172 *  0.743958 *  0.634535 *  -2.87073    1.000000    
    274 O3    s    0.479463 *  0.229115 *  0.805599 *  -3.33043    1.000000    
    275 O2    s    0.742459 *  0.532811 *  0.468313 *  -2.87073    1.000000    
    276 O2    s    0.791686 *  0.259087 *  0.135366 *  -2.87073    1.000000    
    277 O2    s    0.243984 *  0.329898 *  0.896304 *  -2.87073    1.000000    
    278 O2    s    0.671603 *  0.907229 *  0.232520 *  -2.87073    1.000000    
    279 O2    s    0.090267 *  0.759099 *  0.564124 *  -2.87073    1.000000    
    280 O2    s    0.760085 *  0.666321 *  0.397627 *  -2.87073    1.000000    
    281 O3    s    0.323096 *  0.094440 *  0.723356 *  -3.33043    1.000000    
    282 O2    s    0.911001 *  0.244399 *  0.065539 *  -2.87073    1.000000    
    283 O2    s    0.331615 *  0.241209 *  0.433566 *  -2.87073    1.000000    
    284 O3    s    0.906381 *  0.681798 *  0.096080 *  -3.33043    1.000000    
    285 O2    s    0.751078 *  0.088967 *  0.765919 *  -2.87073    1.000000    
    286 O2    s    0.669672 *  0.759832 *  0.934203 *  -2.87073    1.000000    
    287 O2    s    0.090964 *  0.333501 *  0.599253 *  -2.87073    1.000000    
    288 O2    s    0.239033 *  0.900649 *  0.268011 *  -2.87073    1.000000    
    289 O2    s    0.585260 *  0.558299 *  0.986643 *  -2.87073    1.000000    
    290 O2    s    0.441162 *  0.020817 *  0.320961 *  -2.87073    1.000000    
    291 O2    s    0.973264 *  0.415447 *  0.652387 *  -2.87073    1.000000    
    292 O2    s    0.415223 *  0.441625 *  0.486320 *  -2.87073    1.000000    
    293 O2    s    0.556403 *  0.976178 *  0.819287 *  -2.87073    1.000000    
    294 O3    s    0.038539 *  0.582940 *  0.155063 *  -3.33043    1.000000    
    295 O2    s    0.560086 *  0.580979 *  0.345114 *  -2.87073    1.000000    
    296 O2    s    0.018263 *  0.443349 *  0.014616 *  -2.87073    1.000000    
    297 O2    s    0.417340 *  0.977814 *  0.678085 *  -2.87073    1.000000    
    298 O2    s    0.448991 *  0.420290 *  0.844834 *  -2.87073    1.000000    
    299 O2    s    0.975171 *  0.559461 *  0.511515 *  -2.87073    1.000000    
    300 O2    s    0.586117 *  0.019581 *  0.180262 *  -2.87073    1.000000    
    301 O2    s    0.577555 *  0.149646 *  0.251134 *  -2.87073    1.000000    
    302 O2    s    0.843625 *  0.423821 *  0.582124 *  -2.87073    1.000000    
    303 O2    s    0.582185 *  0.424946 *  0.915432 *  -2.87073    1.000000    
    304 O2    s    0.420168 *  0.845424 *  0.748066 *  -2.87073    1.000000    
    305 O2    s    0.155110 *  0.576609 *  0.082956 *  -2.87073    1.000000    
    306 O2    s    0.422118 *  0.576297 *  0.415615 *  -2.87073    1.000000    
    307 F     s    0.454864 *  0.901778 *  0.250402 *  -1.56000    1.000000    
    308 F     s    0.094336 *  0.548843 *  0.583289 *  -1.56000    1.000000    
    309 F     s    0.452889 *  0.548988 *  0.917000 *  -1.56000    1.000000    
    310 F     s    0.500770 *  0.093411 *  0.755316 *  -1.56000    1.000000    
    311 F     s    0.892114 *  0.479074 *  0.092467 *  -1.56000    1.000000    
    312 F     s    0.548009 *  0.451876 *  0.416543 *  -1.56000    1.000000    
--------------------------------------------------------------------------------



********************************************************************************
*  General input information                                                   *
********************************************************************************

  Species output for all configurations : 

--------------------------------------------------------------------------------
  Species    Type    Atomic    Atomic    Charge       Radii (Angs)     Library
                     Number     Mass       (e)     Cova   Ionic  VDW   Symbol
--------------------------------------------------------------------------------
    Si       Core       14      28.09   4.000000   1.200  0.000  2.100          
    O1       Core        8      16.00   1.733957   0.730  0.000  1.360          
    O1       Shell       8       0.00  -3.733957   0.730  0.000  1.360          
    O2       Core        8      16.00   0.870733   0.730  0.000  1.360          
    O2       Shell       8       0.00  -2.870733   0.730  0.000  1.360          
    O3       Core        8      16.00   1.330431   0.730  0.000  1.360          
    O3       Shell       8       0.00  -3.330431   0.730  0.000  1.360          
    F        Core        9      19.00   0.560000   0.710  0.000  1.300          
    F        Shell       9       0.00  -1.560000   0.710  0.000  1.300          
    Ge       Core       32      72.61   4.000000   1.170  0.000  1.750          
--------------------------------------------------------------------------------


  Lattice summation method               =    Ewald          (3-D)
                                         =    Parry          (2-D)
                                         =    Saunders et al (1-D)
  Accuracy factor for lattice sums       =   12.000


  Time limit = Infinity

  Maximum range for interatomic potentials =        16.000000 Angstroms

  Taper potentials to zero over   1.0000 Angstroms using polynomial

  General interatomic potentials :

--------------------------------------------------------------------------------
Atom  Types   Potential         A         B         C         D     Cutoffs(Ang)
  1     2                                                            Min    Max 
--------------------------------------------------------------------------------
Si   c O1   s Buckingham    0.132E+04 0.318      10.1      0.00     0.000 16.000
Si   c O2   s Buckingham    0.132E+04 0.318      10.1      0.00     0.000 16.000
Si   c O3   s Buckingham    0.132E+04 0.318      10.1      0.00     0.000 16.000
Ge   c O1   s Buckingham    0.150E+04 0.326      16.8      0.00     0.000 16.000
Ge   c O2   s Buckingham    0.150E+04 0.326      16.8      0.00     0.000 16.000
Ge   c O3   s Buckingham    0.150E+04 0.326      16.8      0.00     0.000 16.000
O1   s O1   s Buckingham    0.228E+05 0.149      10.9      0.00     0.000 16.000
O1   s O2   s Buckingham    0.228E+05 0.149      10.9      0.00     0.000 16.000
O1   s O3   s Buckingham    0.228E+05 0.149      10.9      0.00     0.000 16.000
O2   s O2   s Buckingham    0.228E+05 0.149      10.9      0.00     0.000 16.000
O2   s O3   s Buckingham    0.228E+05 0.149      10.9      0.00     0.000 16.000
O3   s O3   s Buckingham    0.228E+05 0.149      10.9      0.00     0.000 16.000
Si   c F    s Buckingham     977.     0.282      0.00      0.00     0.000 16.000
Ge   c F    s Buckingham     681.     0.320      0.00      0.00     0.000 16.000
F    s F    s Buckingham     540.     0.262      0.00      0.00     0.000 16.000
O1   s F    s Buckingham    0.168E+04 0.268      0.00      0.00     0.000 16.000
O2   s F    s Buckingham    0.168E+04 0.268      0.00      0.00     0.000 16.000
O3   s F    s Buckingham    0.168E+04 0.268      0.00      0.00     0.000 16.000
O2   c O2   s Spring (c-s)   76.0      0.00      0.00      0.00     0.000  0.800
O3   c O3   s Spring (c-s)   128.      0.00      0.00      0.00     0.000  0.800
O1   c O1   s Spring (c-s)   180.      0.00      0.00      0.00     0.000  0.800
F    c F    s Spring (c-s)   33.5      0.00      0.00      0.00     0.000  0.800
--------------------------------------------------------------------------------

  General Three-body potentials :

  Harmonic form:

--------------------------------------------------------------------------------
Atom    Atom    Atom           Force Constants            Theta     Cutoffs  
  1       2       3     (eVrad**-2/eVrad**-3/eVrad**-4)   (deg)  1-2  1-3  2-3
--------------------------------------------------------------------------------
Si    c O1    s O1    s  1.261        0.0000    0.0000   109.470 0.00 0.00 0.00
                                                                 1.90 1.90 3.50
Si    c O1    s O2    s  1.261        0.0000    0.0000   109.470 0.00 0.00 0.00
                                                                 1.90 1.90 3.50
Si    c O2    s O2    s  1.261        0.0000    0.0000   109.470 0.00 0.00 0.00
                                                                 1.90 1.90 3.50
--------------------------------------------------------------------------------

********************************************************************************
*  Output for configuration   1                                                *
********************************************************************************


  Components of energy : 

--------------------------------------------------------------------------------
  Interatomic potentials     =        2063.57104976 eV
  Three-body potentials      =           0.46605736 eV
  Monopole - monopole (real) =       -6612.11690197 eV
  Monopole - monopole (recip)=       -3171.92961401 eV
  Monopole - monopole (total)=       -9784.04651598 eV
  Neutralising energy        =          -6.46122209 eV
--------------------------------------------------------------------------------
  Total lattice energy       =       -7726.47063096 eV
--------------------------------------------------------------------------------
  Total lattice energy       =         -745486.3060 kJ/(mole unit cells)
--------------------------------------------------------------------------------


  Number of variables =      939

  Maximum number of calculations  =          5000
  Maximum Hessian update interval =            10
  Maximum step size               =   0.100000000
  Maximum parameter tolerance     =   0.000010000
  Maximum function  tolerance     =   0.000010000
  Maximum gradient  tolerance     =   0.001000000
  Maximum gradient  component     =   0.010000000

  Symmetry not applied to optimisation

  Cell parameters to be optimised using strains

  Newton-Raphson optimiser to be used

  BFGS hessian update to be used

  Dumpfile to be written after every cycle

  Start of bulk optimisation :

  Cycle:      0 Energy:     -7726.470631  Gnorm:      0.006753  CPU:    2.016
  ** Hessian calculated **
  Cycle:      1 Energy:     -7726.490228  Gnorm:      0.005769  CPU:    6.598
  Cycle:      2 Energy:     -7726.512209  Gnorm:      0.004463  CPU:   10.804
  Cycle:      3 Energy:     -7726.532240  Gnorm:      0.002785  CPU:   15.014
  Cycle:      4 Energy:     -7726.538030  Gnorm:      0.001663  CPU:   19.219
  Cycle:      5 Energy:     -7726.539460  Gnorm:      0.000929  CPU:   23.425
  Cycle:      6 Energy:     -7726.539819  Gnorm:      0.000497  CPU:   27.633
  Cycle:      7 Energy:     -7726.539910  Gnorm:      0.000261  CPU:   31.845
  Cycle:      8 Energy:     -7726.539926  Gnorm:      0.000184  CPU:   34.687
  Cycle:      9 Energy:     -7726.539933  Gnorm:      0.000130  CPU:   37.531
  Cycle:     10 Energy:     -7726.539937  Gnorm:      0.000091  CPU:   40.387
  ** Hessian calculated **
  Cycle:     11 Energy:     -7726.539937  Gnorm:      0.000041  CPU:   44.935
  Cycle:     12 Energy:     -7726.539937  Gnorm:      0.000029  CPU:   47.779
  Cycle:     13 Energy:     -7726.539937  Gnorm:      0.000024  CPU:   50.626


  **** Optimisation achieved ****


  Final energy =   -7726.53993698 eV
  Final Gnorm  =       0.00002079

  Components of energy : 

--------------------------------------------------------------------------------
  Interatomic potentials     =        2063.69005679 eV
  Three-body potentials      =           0.47467260 eV
  Monopole - monopole (real) =       -6612.30272183 eV
  Monopole - monopole (recip)=       -3171.94069814 eV
  Monopole - monopole (total)=       -9784.24341997 eV
  Neutralising energy        =          -6.46124641 eV
--------------------------------------------------------------------------------
  Total lattice energy       =       -7726.53993698 eV
--------------------------------------------------------------------------------
  Total lattice energy       =         -745492.9929 kJ/(mole unit cells)
--------------------------------------------------------------------------------

  Final fractional coordinates of atoms :

--------------------------------------------------------------------------------
   No.  Atomic        x           y          z          Radius
        Label       (Frac)      (Frac)     (Frac)       (Angs) 
--------------------------------------------------------------------------------
     1  Ge    c     0.699600    0.375700    0.033890    0.000000
     2  Si    c     0.612558    0.305545    0.363822    0.000000
     3  Si    c     0.661307    0.282707    0.696290    0.000000
     4  Si    c     0.284448    0.604338    0.530009    0.000000
     5  Si    c     0.376069    0.660574    0.864970    0.000000
     6  Si    c     0.323632    0.681685    0.198817    0.000000
     7  Si    c     0.372433    0.681590    0.299329    0.000000
     8  Si    c     0.321472    0.608356    0.965327    0.000000
     9  Si    c     0.281529    0.659714    0.630634    0.000000
    10  Si    c     0.614108    0.290587    0.799431    0.000000
    11  Si    c     0.664378    0.361673    0.464305    0.000000
    12  Si    c     0.684655    0.303873    0.135910    0.000000
    13  Si    c     0.529659    0.409473    0.964739    0.000000
    14  Si    c     0.573899    0.091672    0.300105    0.000000
    15  Si    c     0.873588    0.454123    0.630879    0.000000
    16  Si    c     0.457084    0.563187    0.465098    0.000000
    17  Si    c     0.399126    0.864799    0.800376    0.000000
    18  Si    c     0.114307    0.517052    0.134995    0.000000
    19  Si    c     0.407322    0.508876    0.363575    0.000000
    20  Si    c     0.113314    0.577342    0.032407    0.000000
    21  Si    c     0.452791    0.868473    0.696298    0.000000
    22  Si    c     0.587045    0.466328    0.863540    0.000000
    23  Si    c     0.873602    0.401022    0.529293    0.000000
    24  Si    c     0.518888    0.085332    0.198981    0.000000
    25  Si    c     0.302586    0.384865    0.847496    0.000000
    26  Si    c     0.600872    0.884719    0.184125    0.000000
    27  Si    c     0.083130    0.681611    0.515226    0.000000
    28  Si    c     0.690633    0.583028    0.348419    0.000000
    29  Si    c     0.379292    0.079724    0.679322    0.000000
    30  Si    c     0.900797    0.290841    0.016959    0.000000
    31  Si    c     0.385103    0.284007    0.479207    0.000000
    32  Ge    c     0.895184    0.575915    0.141654    0.000000
    33  Si    c     0.684612    0.080746    0.813857    0.000000
    34  Si    c     0.601237    0.688976    0.980224    0.000000
    35  Si    c     0.081651    0.381792    0.645113    0.000000
    36  Si    c     0.292406    0.880609    0.313484    0.000000
    37  Si    c     0.250382    0.329831    0.948391    0.000000
    38  Si    c     0.653734    0.892165    0.284927    0.000000
    39  Si    c     0.073120    0.732358    0.616119    0.000000
    40  Si    c     0.736930    0.640894    0.449421    0.000000
    41  Ge    c     0.346699    0.075074    0.779552    0.000000
    42  Si    c     0.905327    0.236709    0.118576    0.000000
    43  Si    c     0.329141    0.231218    0.378561    0.000000
    44  Si    c     0.914034    0.664684    0.045801    0.000000
    45  Si    c     0.735046    0.070622    0.711492    0.000000
    46  Si    c     0.660323    0.742189    0.879545    0.000000
    47  Si    c     0.075082    0.323283    0.544312    0.000000
    48  Si    c     0.239264    0.882368    0.212860    0.000000
    49  Si    c     0.970464    0.114683    0.963377    0.000000
    50  Si    c     0.871192    0.830288    0.297449    0.000000
    51  Si    c     0.134852    0.011523    0.629236    0.000000
    52  Si    c     0.015946    0.860170    0.464282    0.000000
    53  Si    c     0.120707    0.136901    0.796336    0.000000
    54  Si    c     0.850324    0.958892    0.132163    0.000000
    55  Si    c     0.112019    0.951020    0.363393    0.000000
    56  Si    c     0.849725    0.874668    0.029457    0.000000
    57  Si    c     0.019422    0.137769    0.696666    0.000000
    58  Si    c     0.874178    0.022071    0.862489    0.000000
    59  Si    c     0.134722    0.104048    0.529052    0.000000
    60  Si    c     0.959415    0.825230    0.195518    0.000000
    61  O2    c     0.923579    0.994391    0.996071    0.000000
    62  O2    c     0.992956    0.909119    0.330024    0.000000
    63  O2    c     0.060211    0.057686    0.663303    0.000000
    64  O2    c     0.056179    0.983071    0.496165    0.000000
    65  O2    c     0.994096    0.067805    0.828953    0.000000
    66  O2    c     0.932902    0.918973    0.163398    0.000000
    67  O2    c     0.331711    0.558288    0.331533    0.000000
    68  O2    c     0.404364    0.743885    0.663628    0.000000
    69  O2    c     0.237683    0.647337    0.999111    0.000000
    70  O2    c     0.666815    0.419126    0.830980    0.000000
    71  O2    c     0.561673    0.208060    0.166667    0.000000
    72  O2    c     0.748599    0.323821    0.497070    0.000000
    73  O3    c     0.572357    0.331677    0.996679    0.000000
    74  O2    c     0.747108    0.403812    0.663720    0.000000
    75  O2    c     0.650742    0.218642    0.331811    0.000000
    76  O2    c     0.408514    0.641485    0.497434    0.000000
    77  O2    c     0.242816    0.559246    0.165071    0.000000
    78  O2    c     0.332765    0.738235    0.831689    0.000000
    79  O2    c     0.125102    0.201798    0.968205    0.000000
    80  O2    c     0.779343    0.892386    0.305347    0.000000
    81  O2    c     0.070182    0.857722    0.635770    0.000000
    82  O2    c     0.861611    0.767719    0.469947    0.000000
    83  O3    c     0.202137    0.069327    0.801253    0.000000
    84  O2    c     0.906005    0.112226    0.138460    0.000000
    85  O2    c     0.203555    0.104882    0.358436    0.000000
    86  O2    c     0.919495    0.790130    0.022501    0.000000
    87  O2    c     0.863203    0.073424    0.691856    0.000000
    88  O2    c     0.785274    0.867730    0.858584    0.000000
    89  O2    c     0.073485    0.196669    0.523739    0.000000
    90  O2    c     0.114974    0.880745    0.191457    0.000000
    91  O2    c     0.922620    0.846804    0.246582    0.000000
    92  O2    c     0.115392    0.048575    0.579296    0.000000
    93  O2    c     0.927042    0.064771    0.912873    0.000000
    94  O2    c     0.061209    0.129611    0.746794    0.000000
    95  O2    c     0.864019    0.929048    0.080013    0.000000
    96  O2    c     0.055853    0.911441    0.413733    0.000000
    97  O2    c     0.906748    0.201392    0.976955    0.000000
    98  O2    c     0.789119    0.678738    0.309902    0.000000
    99  O2    c     0.288838    0.077285    0.637698    0.000000
   100  O2    c     0.086605    0.779840    0.477091    0.000000
   101  O2    c     0.209119    0.289824    0.808414    0.000000
   102  O2    c     0.698293    0.884695    0.145187    0.000000
   103  O2    c     0.194585    0.880991    0.352274    0.000000
   104  O2    c     0.696922    0.787412    0.018784    0.000000
   105  O2    c     0.084663    0.287574    0.683485    0.000000
   106  O2    c     0.784467    0.084395    0.851231    0.000000
   107  O2    c     0.287573    0.186066    0.517689    0.000000
   108  O3    c     0.884415    0.679359    0.183651    0.000000
   109  O2    c     0.319323    0.623456    0.248872    0.000000
   110  O2    c     0.340885    0.660549    0.580440    0.000000
   111  O2    c     0.319777    0.664952    0.915434    0.000000
   112  O2    c     0.662121    0.336572    0.747106    0.000000
   113  O3    c     0.631441    0.311717    0.086221    0.000000
   114  O2    c     0.667861    0.305140    0.414137    0.000000
   115  O2    c     0.372620    0.322614    0.967409    0.000000
   116  O2    c     0.662101    0.023708    0.303499    0.000000
   117  O2    c     0.941149    0.609569    0.635040    0.000000
   118  O2    c     0.613671    0.650754    0.467985    0.000000
   119  O3    c     0.308930    0.926578    0.805104    0.000000
   120  O2    c     0.036519    0.360598    0.136136    0.000000
   121  O2    c     0.319362    0.353121    0.360430    0.000000
   122  O2    c     0.048357    0.667700    0.031144    0.000000
   123  O2    c     0.610082    0.939997    0.693954    0.000000
   124  O2    c     0.674027    0.621890    0.861240    0.000000
   125  O2    c     0.942349    0.313526    0.526691    0.000000
   126  O2    c     0.362876    0.015235    0.195634    0.000000
   127  O3    c     0.767185    0.287215    0.012180    0.000000
   128  O2    c     0.689096    0.448058    0.341449    0.000000
   129  O2    c     0.517771    0.212683    0.674549    0.000000
   130  O2    c     0.217310    0.680214    0.508197    0.000000
   131  O2    c     0.301415    0.518371    0.842349    0.000000
   132  O2    c     0.467857    0.750097    0.176526    0.000000
   133  O2    c     0.295018    0.748700    0.321458    0.000000
   134  O2    c     0.463969    0.683811    0.988377    0.000000
   135  O2    c     0.213658    0.517458    0.653107    0.000000
   136  O2    c     0.684627    0.214673    0.819049    0.000000
   137  O2    c     0.520274    0.285917    0.486929    0.000000
   138  O3    c     0.748803    0.441179    0.160012    0.000000
   139  O3    c     0.789986    0.539690    0.025258    0.000000
   140  O2    c     0.456114    0.231467    0.359016    0.000000
   141  O2    c     0.725736    0.191982    0.694063    0.000000
   142  O2    c     0.201349    0.448906    0.524909    0.000000
   143  O2    c     0.533032    0.739427    0.860071    0.000000
   144  O2    c     0.245796    0.759420    0.193584    0.000000
   145  O2    c     0.528622    0.765048    0.304419    0.000000
   146  O2    c     0.243486    0.452203    0.968679    0.000000
   147  O2    c     0.200547    0.735264    0.635721    0.000000
   148  O3    c     0.461105    0.218478    0.807242    0.000000
   149  O2    c     0.739024    0.517297    0.469340    0.000000
   150  O2    c     0.778666    0.240379    0.135278    0.000000
   151  O2    c     0.233191    0.310980    0.894162    0.000000
   152  O2    c     0.674654    0.891077    0.230599    0.000000
   153  O2    c     0.075964    0.750407    0.561833    0.000000
   154  O2    c     0.758598    0.657115    0.395147    0.000000
   155  O3    c     0.298173    0.077787    0.722760    0.000000
   156  O2    c     0.909508    0.227742    0.063958    0.000000
   157  O2    c     0.310749    0.213026    0.432952    0.000000
   158  O3    c     0.904485    0.684228    0.098846    0.000000
   159  O2    c     0.745410    0.071690    0.765717    0.000000
   160  O2    c     0.676035    0.761325    0.933921    0.000000
   161  O2    c     0.078614    0.307491    0.598602    0.000000
   162  O2    c     0.220185    0.880790    0.267389    0.000000
   163  O2    c     0.589129    0.550779    0.988717    0.000000
   164  O2    c     0.431082    0.007068    0.322577    0.000000
   165  O2    c     0.953655    0.393085    0.653992    0.000000
   166  O2    c     0.398275    0.422802    0.488455    0.000000
   167  O2    c     0.542957    0.958719    0.821629    0.000000
   168  O3    c     0.035417    0.576144    0.158986    0.000000
   169  O2    c     0.549470    0.566127    0.340356    0.000000
   170  O2    c     0.016444    0.437079    0.011534    0.000000
   171  O2    c     0.400154    0.956403    0.674358    0.000000
   172  O2    c     0.447122    0.409383    0.839819    0.000000
   173  O2    c     0.958856    0.541675    0.506419    0.000000
   174  O2    c     0.583551    0.007690    0.175379    0.000000
   175  O2    c     0.573677    0.142185    0.249238    0.000000
   176  O2    c     0.819376    0.401841    0.580235    0.000000
   177  O2    c     0.585726    0.412052    0.913881    0.000000
   178  O2    c     0.403563    0.820536    0.747678    0.000000
   179  O2    c     0.159485    0.568805    0.083101    0.000000
   180  O2    c     0.404817    0.562027    0.414380    0.000000
   181  F     c     0.446674    0.881599    0.248972    0.000000
   182  F     c     0.080743    0.531625    0.581587    0.000000
   183  F     c     0.451937    0.540213    0.915801    0.000000
   184  F     c     0.495802    0.077061    0.752787    0.000000
   185  F     c     0.888843    0.466805    0.090383    0.000000
   186  F     c     0.536713    0.432561    0.414942    0.000000
   187  O2    s     0.920599    0.994697    0.996087    0.000000
   188  O2    s     0.992934    0.905096    0.330197    0.000000
   189  O2    s     0.063954    0.061488    0.663230    0.000000
   190  O2    s     0.060505    0.982929    0.496300    0.000000
   191  O2    s     0.993376    0.069747    0.829445    0.000000
   192  O2    s     0.926326    0.913923    0.163163    0.000000
   193  O2    s     0.343749    0.565894    0.331520    0.000000
   194  O2    s     0.396984    0.748385    0.663684    0.000000
   195  O2    s     0.233043    0.635925    0.999185    0.000000
   196  O2    s     0.653600    0.411014    0.831071    0.000000
   197  O2    s     0.570249    0.205296    0.166782    0.000000
   198  O2    s     0.753028    0.335755    0.497071    0.000000
   199  O3    s     0.577950    0.343019    0.996345    0.000000
   200  O2    s     0.750901    0.396077    0.663841    0.000000
   201  O2    s     0.638884    0.214546    0.331859    0.000000
   202  O2    s     0.400579    0.629608    0.497524    0.000000
   203  O2    s     0.237810    0.567165    0.165381    0.000000
   204  O2    s     0.344409    0.743591    0.831852    0.000000
   205  O2    s     0.121289    0.205562    0.965668    0.000000
   206  O2    s     0.775893    0.885835    0.302418    0.000000
   207  O2    s     0.077236    0.860855    0.633088    0.000000
   208  O2    s     0.865228    0.764495    0.467250    0.000000
   209  O3    s     0.202374    0.077395    0.799298    0.000000
   210  O2    s     0.900192    0.109639    0.135726    0.000000
   211  O2    s     0.206958    0.101779    0.361034    0.000000
   212  O2    s     0.911575    0.786623    0.025513    0.000000
   213  O2    s     0.865301    0.079650    0.694427    0.000000
   214  O2    s     0.781683    0.871048    0.861162    0.000000
   215  O2    s     0.080119    0.200029    0.526409    0.000000
   216  O2    s     0.112724    0.875356    0.194147    0.000000
   217  O2    s     0.920594    0.842650    0.247059    0.000000
   218  O2    s     0.119771    0.050631    0.579289    0.000000
   219  O2    s     0.926054    0.065668    0.912986    0.000000
   220  O2    s     0.062637    0.131320    0.746203    0.000000
   221  O2    s     0.860886    0.926278    0.080146    0.000000
   222  O2    s     0.057636    0.910051    0.413836    0.000000
   223  O2    s     0.912934    0.201691    0.979782    0.000000
   224  O2    s     0.787476    0.684553    0.312584    0.000000
   225  O2    s     0.281796    0.070667    0.640914    0.000000
   226  O2    s     0.078809    0.778199    0.479668    0.000000
   227  O2    s     0.210239    0.284751    0.811342    0.000000
   228  O2    s     0.704400    0.892562    0.147813    0.000000
   229  O2    s     0.195793    0.888418    0.349491    0.000000
   230  O2    s     0.703200    0.786550    0.015985    0.000000
   231  O2    s     0.077385    0.281363    0.680910    0.000000
   232  O2    s     0.783220    0.077554    0.848473    0.000000
   233  O2    s     0.281196    0.187267    0.515004    0.000000
   234  O3    s     0.893609    0.688970    0.182206    0.000000
   235  O2    s     0.325195    0.635392    0.248876    0.000000
   236  O2    s     0.329071    0.654763    0.580476    0.000000
   237  O2    s     0.325644    0.658753    0.915445    0.000000
   238  O2    s     0.657243    0.326380    0.746980    0.000000
   239  O3    s     0.641809    0.316205    0.086629    0.000000
   240  O2    s     0.661864    0.311006    0.414168    0.000000
   241  O2    s     0.375470    0.332342    0.965058    0.000000
   242  O2    s     0.652147    0.016933    0.301199    0.000000
   243  O2    s     0.947903    0.606291    0.632638    0.000000
   244  O2    s     0.610409    0.640642    0.465725    0.000000
   245  O3    s     0.320945    0.930658    0.802793    0.000000
   246  O2    s     0.030472    0.363342    0.134140    0.000000
   247  O2    s     0.329425    0.356405    0.362658    0.000000
   248  O2    s     0.041830    0.657952    0.032759    0.000000
   249  O2    s     0.607282    0.946498    0.696041    0.000000
   250  O2    s     0.663554    0.618413    0.863421    0.000000
   251  O2    s     0.949225    0.323602    0.528832    0.000000
   252  O2    s     0.366362    0.008639    0.197819    0.000000
   253  O3    s     0.775996    0.294516    0.014399    0.000000
   254  O2    s     0.681399    0.447487    0.344506    0.000000
   255  O2    s     0.518706    0.206510    0.677336    0.000000
   256  O2    s     0.210098    0.672532    0.511225    0.000000
   257  O2    s     0.309356    0.519178    0.845301    0.000000
   258  O2    s     0.466985    0.757258    0.179681    0.000000
   259  O2    s     0.302710    0.755689    0.318311    0.000000
   260  O2    s     0.463725    0.676594    0.985121    0.000000
   261  O2    s     0.206766    0.517882    0.649910    0.000000
   262  O2    s     0.677503    0.208002    0.816493    0.000000
   263  O2    s     0.520822    0.293499    0.483759    0.000000
   264  O3    s     0.752883    0.436972    0.156178    0.000000
   265  O3    s     0.794870    0.538512    0.027986    0.000000
   266  O2    s     0.458670    0.239279    0.361616    0.000000
   267  O2    s     0.719865    0.188193    0.696195    0.000000
   268  O2    s     0.196183    0.451465    0.527528    0.000000
   269  O2    s     0.530498    0.731498    0.862659    0.000000
   270  O2    s     0.253411    0.764600    0.196181    0.000000
   271  O2    s     0.525700    0.770079    0.301812    0.000000
   272  O2    s     0.252267    0.455344    0.966215    0.000000
   273  O2    s     0.195199    0.727061    0.633131    0.000000
   274  O3    s     0.468306    0.215213    0.804469    0.000000
   275  O2    s     0.730935    0.514437    0.466697    0.000000
   276  O2    s     0.783514    0.246369    0.133488    0.000000
   277  O2    s     0.242247    0.320685    0.895098    0.000000
   278  O2    s     0.664672    0.890526    0.231415    0.000000
   279  O2    s     0.076410    0.741248    0.562718    0.000000
   280  O2    s     0.749206    0.647650    0.396036    0.000000
   281  O3    s     0.309921    0.077824    0.722215    0.000000
   282  O2    s     0.908174    0.235315    0.064777    0.000000
   283  O2    s     0.320479    0.222393    0.432070    0.000000
   284  O3    s     0.904777    0.674690    0.096341    0.000000
   285  O2    s     0.737793    0.072519    0.764907    0.000000
   286  O2    s     0.666615    0.751806    0.932965    0.000000
   287  O2    s     0.078569    0.316979    0.597755    0.000000
   288  O2    s     0.229766    0.880934    0.266514    0.000000
   289  O2    s     0.584275    0.551280    0.985407    0.000000
   290  O2    s     0.431221    0.002233    0.319237    0.000000
   291  O2    s     0.959102    0.398322    0.650652    0.000000
   292  O2    s     0.403138    0.422512    0.485040    0.000000
   293  O2    s     0.544271    0.963001    0.818666    0.000000
   294  O3    s     0.032675    0.569852    0.155182    0.000000
   295  O2    s     0.549814    0.561781    0.343661    0.000000
   296  O2    s     0.014213    0.436300    0.014362    0.000000
   297  O2    s     0.403718    0.960031    0.677224    0.000000
   298  O2    s     0.446271    0.412990    0.843162    0.000000
   299  O2    s     0.963540    0.542086    0.509766    0.000000
   300  O2    s     0.578585    0.002417    0.178771    0.000000
   301  O2    s     0.568033    0.131001    0.249337    0.000000
   302  O2    s     0.830625    0.407230    0.580285    0.000000
   303  O2    s     0.580111    0.417455    0.913872    0.000000
   304  O2    s     0.408303    0.829932    0.747426    0.000000
   305  O2    s     0.150133    0.564543    0.082952    0.000000
   306  O2    s     0.410534    0.556635    0.414426    0.000000
   307  F     s     0.446619    0.881191    0.248946    0.000000
   308  F     s     0.081027    0.531819    0.581740    0.000000
   309  F     s     0.451705    0.540647    0.915946    0.000000
   310  F     s     0.487053    0.077167    0.754318    0.000000
   311  F     s     0.887516    0.471984    0.092619    0.000000
   312  F     s     0.536872    0.432295    0.415049    0.000000
--------------------------------------------------------------------------------

  Final Cartesian lattice vectors (Angstroms) :

       11.925052    0.001274    0.021975
       -6.003707   10.400616   -0.007928
        0.321902   -0.163130   29.465841


  Final cell parameters and derivatives :

--------------------------------------------------------------------------------
       a           11.925072 Angstrom     dE/de1(xx)     0.000660 eV/strain
       b           12.009054 Angstrom     dE/de2(yy)     0.000758 eV/strain
       c           29.468051 Angstrom     dE/de3(zz)     0.001082 eV/strain
       alpha       90.625431 Degrees      dE/de4(yz)     0.000043 eV/strain
       beta        89.268556 Degrees      dE/de5(xz)    -0.000189 eV/strain
       gamma      119.989388 Degrees      dE/de6(xy)    -0.000050 eV/strain
--------------------------------------------------------------------------------

  Primitive cell volume =          3654.743676 Angs**3

  Density of cell =      1.750627 g/cm**3

  Non-primitive cell volume =          3654.743676 Angs**3


  Final internal derivatives :

--------------------------------------------------------------------------------
   No.  Atomic          a             b             c           Radius
        Label          (eV)          (eV)          (eV)        (eV/Angs)
--------------------------------------------------------------------------------
      1 Ge    c       0.000000      0.000000      0.000000      0.000000
      2 Si    c      -0.000148      0.000169      0.000016      0.000000
      3 Si    c       0.000304      0.000099     -0.000457      0.000000
      4 Si    c       0.000182      0.000130      0.000144      0.000000
      5 Si    c      -0.000068     -0.000319      0.000572      0.000000
      6 Si    c      -0.000531      0.000332     -0.000043      0.000000
      7 Si    c      -0.000206      0.000370     -0.000059      0.000000
      8 Si    c       0.000106      0.000038      0.000231      0.000000
      9 Si    c       0.000153      0.000110     -0.000241      0.000000
     10 Si    c      -0.000071     -0.000517     -0.000818      0.000000
     11 Si    c      -0.000081      0.000032     -0.000023      0.000000
     12 Si    c       0.000724      0.000977      0.002293      0.000000
     13 Si    c      -0.000631      0.000249     -0.000704      0.000000
     14 Si    c      -0.000010      0.000281     -0.000035      0.000000
     15 Si    c       0.000320     -0.000135     -0.000233      0.000000
     16 Si    c       0.000131      0.000060     -0.000024      0.000000
     17 Si    c       0.000384      0.000479     -0.000538      0.000000
     18 Si    c      -0.000145     -0.000108     -0.000429      0.000000
     19 Si    c       0.000063      0.000244      0.000064      0.000000
     20 Si    c       0.000451      0.000115     -0.000301      0.000000
     21 Si    c       0.000069      0.000115     -0.000027      0.000000
     22 Si    c      -0.000840      0.000007      0.000760      0.000000
     23 Si    c       0.000099     -0.000127      0.000216      0.000000
     24 Si    c       0.000150      0.000347      0.001018      0.000000
     25 Si    c      -0.000517     -0.000087      0.000206      0.000000
     26 Si    c      -0.000467      0.000389      0.000784      0.000000
     27 Si    c       0.000130      0.000021      0.000099      0.000000
     28 Si    c      -0.000104      0.000236      0.000112      0.000000
     29 Si    c       0.000234      0.000039      0.000273      0.000000
     30 Si    c       0.000496      0.000005     -0.000579      0.000000
     31 Si    c      -0.000037      0.000057     -0.000179      0.000000
     32 Ge    c      -0.000020      0.000130     -0.002873      0.000000
     33 Si    c       0.000005      0.000075     -0.000543      0.000000
     34 Si    c      -0.000096     -0.000260     -0.000057      0.000000
     35 Si    c       0.000096      0.000068     -0.000354      0.000000
     36 Si    c      -0.000022      0.000423      0.000012      0.000000
     37 Si    c      -0.000315      0.000041     -0.000126      0.000000
     38 Si    c      -0.000194      0.000204     -0.000102      0.000000
     39 Si    c       0.000334     -0.000062     -0.000207      0.000000
     40 Si    c      -0.000004      0.000009     -0.000291      0.000000
     41 Ge    c       0.000601      0.000194     -0.000164      0.000000
     42 Si    c       0.000405     -0.000422      0.000205      0.000000
     43 Si    c      -0.000018      0.000259      0.000235      0.000000
     44 Si    c      -0.000566     -0.000341     -0.002725      0.000000
     45 Si    c       0.000032      0.000166      0.000316      0.000000
     46 Si    c      -0.000244     -0.000262      0.000298      0.000000
     47 Si    c       0.000131      0.000060      0.000157      0.000000
     48 Si    c       0.000476      0.000754      0.000644      0.000000
     49 Si    c      -0.000120      0.000018      0.000379      0.000000
     50 Si    c      -0.000179      0.000260      0.000356      0.000000
     51 Si    c       0.000163     -0.000122     -0.000243      0.000000
     52 Si    c       0.000160      0.000122     -0.000270      0.000000
     53 Si    c       0.000132     -0.000179     -0.000307      0.000000
     54 Si    c      -0.000391     -0.000294      0.000608      0.000000
     55 Si    c      -0.000052      0.000162      0.000111      0.000000
     56 Si    c      -0.000300      0.000191      0.000195      0.000000
     57 Si    c      -0.000096     -0.000037     -0.001351      0.000000
     58 Si    c      -0.000028      0.000043      0.000409      0.000000
     59 Si    c       0.000117     -0.000030     -0.000005      0.000000
     60 Si    c      -0.000090     -0.000246      0.000935      0.000000
     61 O2    c      -0.000177      0.000265      0.000473      0.000000
     62 O2    c      -0.000091      0.000173      0.000598      0.000000
     63 O2    c      -0.000024     -0.000423     -0.000460      0.000000
     64 O2    c       0.000169     -0.000122     -0.000067      0.000000
     65 O2    c       0.000177     -0.001043      0.000719      0.000000
     66 O2    c      -0.000601      0.000147      0.000335      0.000000
     67 O2    c      -0.000015      0.000297     -0.000056      0.000000
     68 O2    c       0.000052      0.000187      0.000040      0.000000
     69 O2    c       0.000351      0.000193     -0.000172      0.000000
     70 O2    c      -0.000022      0.000644      0.000294      0.000000
     71 O2    c      -0.000637      0.000080      0.003196      0.000000
     72 O2    c      -0.000071      0.000022      0.000067      0.000000
     73 O3    c      -0.001439     -0.000089     -0.001055      0.000000
     74 O2    c       0.000471      0.000024     -0.000026      0.000000
     75 O2    c      -0.000160      0.000363      0.000101      0.000000
     76 O2    c       0.000202     -0.000000      0.000174      0.000000
     77 O2    c      -0.000071      0.000422      0.000467      0.000000
     78 O2    c      -0.000099      0.000053     -0.000158      0.000000
     79 O2    c      -0.000116     -0.000002      0.000164      0.000000
     80 O2    c      -0.000194      0.000304     -0.000184      0.000000
     81 O2    c       0.000344     -0.000187     -0.000259      0.000000
     82 O2    c       0.000159     -0.000039     -0.000321      0.000000
     83 O3    c       0.001124     -0.000708      0.000148      0.000000
     84 O2    c       0.000093      0.000108      0.000346      0.000000
     85 O2    c      -0.000036      0.000177      0.000383      0.000000
     86 O2    c       0.000310      0.000551     -0.000444      0.000000
     87 O2    c      -0.000311     -0.000014     -0.000125      0.000000
     88 O2    c      -0.000256     -0.000756      0.000245      0.000000
     89 O2    c       0.000213      0.000117      0.000298      0.000000
     90 O2    c       0.001275      0.001148     -0.000007      0.000000
     91 O2    c      -0.000072      0.000378      0.000413      0.000000
     92 O2    c       0.000107      0.000061      0.000226      0.000000
     93 O2    c      -0.000025     -0.000331      0.000153      0.000000
     94 O2    c      -0.000317     -0.000440      0.001563      0.000000
     95 O2    c      -0.000479     -0.000859     -0.001416      0.000000
     96 O2    c       0.000200      0.000142      0.000233      0.000000
     97 O2    c      -0.000096     -0.000074     -0.000240      0.000000
     98 O2    c      -0.000262      0.000273      0.000305      0.000000
     99 O2    c       0.000212      0.000160      0.000306      0.000000
    100 O2    c       0.000015     -0.000042      0.000051      0.000000
    101 O2    c      -0.000392      0.000718      0.000157      0.000000
    102 O2    c      -0.001309      0.000200      0.000715      0.000000
    103 O2    c      -0.000145      0.000354     -0.000117      0.000000
    104 O2    c      -0.000267     -0.000411     -0.000164      0.000000
    105 O2    c       0.000237      0.000238     -0.000335      0.000000
    106 O2    c      -0.000303      0.001005      0.000216      0.000000
    107 O2    c       0.000059      0.000072     -0.000292      0.000000
    108 O3    c       0.000070     -0.000357     -0.000269      0.000000
    109 O2    c      -0.000488      0.000572     -0.000173      0.000000
    110 O2    c       0.000088      0.000177      0.000044      0.000000
    111 O2    c       0.000038     -0.000098      0.000812      0.000000
    112 O2    c       0.000608      0.000330     -0.001252      0.000000
    113 O3    c      -0.002079     -0.001173     -0.008778      0.000000
    114 O2    c      -0.000332      0.000189      0.000195      0.000000
    115 O2    c      -0.000661     -0.000113     -0.000057      0.000000
    116 O2    c      -0.000105      0.000348     -0.000024      0.000000
    117 O2    c       0.000441     -0.000206     -0.000261      0.000000
    118 O2    c       0.000159     -0.000043     -0.000116      0.000000
    119 O3    c       0.000271      0.000272     -0.000448      0.000000
    120 O2    c       0.000651     -0.000141     -0.000257      0.000000
    121 O2    c       0.000082      0.000322      0.000208      0.000000
    122 O2    c      -0.000317      0.000270     -0.000119      0.000000
    123 O2    c       0.000017      0.000279      0.000278      0.000000
    124 O2    c      -0.000426     -0.000108      0.000349      0.000000
    125 O2    c       0.000232      0.000070      0.000246      0.000000
    126 O2    c       0.000298      0.000573      0.000369      0.000000
    127 O3    c       0.000074     -0.000115     -0.000850      0.000000
    128 O2    c      -0.000273      0.000314      0.000315      0.000000
    129 O2    c       0.000249      0.000038      0.000223      0.000000
    130 O2    c       0.000116     -0.000124      0.000299      0.000000
    131 O2    c      -0.000163      0.000040     -0.000038      0.000000
    132 O2    c      -0.000737      0.000432      0.000440      0.000000
    133 O2    c      -0.000173      0.000450     -0.000051      0.000000
    134 O2    c       0.000147     -0.000051     -0.000196      0.000000
    135 O2    c       0.000182      0.000012     -0.000236      0.000000
    136 O2    c       0.000474      0.000280      0.000079      0.000000
    137 O2    c      -0.000056      0.000083     -0.000113      0.000000
    138 O3    c      -0.000380      0.003651      0.002591      0.000000
    139 O3    c      -0.000618     -0.000634     -0.000215      0.000000
    140 O2    c      -0.000184      0.000220      0.000353      0.000000
    141 O2    c       0.000216      0.000226      0.000410      0.000000
    142 O2    c       0.000092      0.000173      0.000486      0.000000
    143 O2    c      -0.000003     -0.000057     -0.000028      0.000000
    144 O2    c      -0.000386      0.000765      0.000362      0.000000
    145 O2    c      -0.000227      0.000183     -0.000213      0.000000
    146 O2    c       0.000170      0.000091     -0.000233      0.000000
    147 O2    c       0.000353     -0.000154     -0.000290      0.000000
    148 O3    c       0.000520      0.000017     -0.000254      0.000000
    149 O2    c      -0.000088     -0.000018     -0.000220      0.000000
    150 O2    c       0.000145     -0.000885      0.001246      0.000000
    151 O2    c      -0.000570      0.000049      0.000701      0.000000
    152 O2    c      -0.000268      0.000233      0.000207      0.000000
    153 O2    c       0.000375     -0.000068      0.000617      0.000000
    154 O2    c      -0.000105      0.000114      0.000344      0.000000
    155 O3    c       0.000411     -0.000198     -0.000124      0.000000
    156 O2    c      -0.000137     -0.000664     -0.000582      0.000000
    157 O2    c      -0.000007      0.000137     -0.000089      0.000000
    158 O3    c       0.000840      0.000704      0.000092      0.000000
    159 O2    c       0.000323      0.000276     -0.000833      0.000000
    160 O2    c       0.000077     -0.000303     -0.000268      0.000000
    161 O2    c      -0.000045     -0.000039     -0.000153      0.000000
    162 O2    c       0.000226      0.000618     -0.000247      0.000000
    163 O2    c      -0.000331     -0.000314     -0.000317      0.000000
    164 O2    c       0.000027      0.000384     -0.000005      0.000000
    165 O2    c       0.000238     -0.000148     -0.000248      0.000000
    166 O2    c       0.000084      0.000045     -0.000287      0.000000
    167 O2    c       0.000371      0.000108     -0.000178      0.000000
    168 O3    c       0.000209     -0.000075      0.000392      0.000000
    169 O2    c      -0.000077      0.000287      0.000319      0.000000
    170 O2    c       0.000283     -0.000465     -0.000283      0.000000
    171 O2    c       0.000207      0.000103      0.000396      0.000000
    172 O2    c      -0.000789     -0.000329      0.000229      0.000000
    173 O2    c       0.000020     -0.000102      0.000395      0.000000
    174 O2    c      -0.000103      0.000950      0.000184      0.000000
    175 O2    c       0.000216      0.000390      0.000271      0.000000
    176 O2    c       0.000215     -0.000324      0.000335      0.000000
    177 O2    c      -0.000613     -0.000075      0.000393      0.000000
    178 O2    c       0.000045      0.000113     -0.000134      0.000000
    179 O2    c       0.000585      0.000122      0.000994      0.000000
    180 O2    c       0.000243      0.000105      0.000128      0.000000
    181 F     c      -0.000228      0.000578      0.000173      0.000000
    182 F     c       0.000105     -0.000090      0.000103      0.000000
    183 F     c      -0.000280     -0.000094      0.000170      0.000000
    184 F     c       0.000116      0.000304      0.000148      0.000000
    185 F     c      -0.000780     -0.000282      0.000331      0.000000
    186 F     c      -0.000096      0.000107      0.000096      0.000000
    187 O2    s      -0.000545      0.000540      0.000078      0.000000
    188 O2    s      -0.000206      0.000438      0.000312      0.000000
    189 O2    s      -0.000067     -0.000360     -0.001004      0.000000
    190 O2    s       0.000247     -0.000030      0.000652      0.000000
    191 O2    s       0.000272     -0.001367      0.000518      0.000000
    192 O2    s      -0.000970      0.000387     -0.000194      0.000000
    193 O2    s      -0.000069      0.000350      0.000127      0.000000
    194 O2    s       0.000326      0.000082      0.000118      0.000000
    195 O2    s       0.000268      0.000468     -0.000473      0.000000
    196 O2    s      -0.000318      0.000306      0.000562      0.000000
    197 O2    s       0.000057     -0.000131      0.004927      0.000000
    198 O2    s      -0.000124      0.000069      0.000043      0.000000
    199 O3    s      -0.000770      0.000284     -0.001233      0.000000
    200 O2    s       0.000390      0.000043     -0.000083      0.000000
    201 O2    s      -0.000219      0.000488      0.000195      0.000000
    202 O2    s       0.000276      0.000015      0.000041      0.000000
    203 O2    s      -0.000479      0.000784      0.000355      0.000000
    204 O2    s      -0.000090      0.000191     -0.000037      0.000000
    205 O2    s      -0.000124      0.000053      0.000251      0.000000
    206 O2    s      -0.000176      0.000376     -0.000178      0.000000
    207 O2    s       0.000522     -0.000172     -0.000372      0.000000
    208 O2    s       0.000225     -0.000061      0.000068      0.000000
    209 O3    s       0.001107     -0.000660     -0.000360      0.000000
    210 O2    s       0.000158      0.000257      0.000337      0.000000
    211 O2    s      -0.000038      0.000203      0.000407      0.000000
    212 O2    s       0.000384     -0.000094     -0.000646      0.000000
    213 O2    s      -0.000226     -0.000099     -0.000890      0.000000
    214 O2    s      -0.000526     -0.000768      0.000530      0.000000
    215 O2    s       0.000236      0.000099      0.000577      0.000000
    216 O2    s       0.000933      0.001396      0.000848      0.000000
    217 O2    s      -0.000170      0.000540      0.001028      0.000000
    218 O2    s       0.000263     -0.000022     -0.000105      0.000000
    219 O2    s      -0.000098     -0.000355      0.000121      0.000000
    220 O2    s      -0.000106     -0.000629      0.000775      0.000000
    221 O2    s      -0.000811     -0.001108     -0.001465      0.000000
    222 O2    s       0.000450      0.000064      0.000036      0.000000
    223 O2    s      -0.000098      0.000134     -0.000046      0.000000
    224 O2    s      -0.000444      0.000297      0.000869      0.000000
    225 O2    s       0.000176      0.000274      0.000153      0.000000
    226 O2    s       0.000096      0.000013      0.000903      0.000000
    227 O2    s      -0.000516      0.000851      0.000371      0.000000
    228 O2    s      -0.001201      0.000475      0.001398      0.000000
    229 O2    s      -0.000106      0.000373     -0.000887      0.000000
    230 O2    s      -0.000548     -0.000329     -0.000628      0.000000
    231 O2    s       0.000419      0.000031     -0.001351      0.000000
    232 O2    s      -0.000453      0.001116     -0.000116      0.000000
    233 O2    s       0.000029      0.000102     -0.000227      0.000000
    234 O3    s       0.000636      0.000239      0.002210      0.000000
    235 O2    s      -0.000777      0.000952     -0.000145      0.000000
    236 O2    s       0.000411      0.000143      0.000153      0.000000
    237 O2    s      -0.000073     -0.000147      0.000790      0.000000
    238 O2    s       0.000823      0.000205     -0.001009      0.000000
    239 O3    s      -0.001870     -0.000004     -0.004070      0.000000
    240 O2    s      -0.000416      0.000256      0.000182      0.000000
    241 O2    s      -0.000507      0.000023     -0.000632      0.000000
    242 O2    s      -0.000074      0.000381      0.000020      0.000000
    243 O2    s       0.000582     -0.000219     -0.000431      0.000000
    244 O2    s       0.000160     -0.000078     -0.000271      0.000000
    245 O3    s       0.000570      0.000419     -0.000888      0.000000
    246 O2    s       0.000415      0.000119     -0.000148      0.000000
    247 O2    s       0.000088      0.000234      0.000736      0.000000
    248 O2    s      -0.000256      0.000111     -0.001068      0.000000
    249 O2    s       0.000058      0.000258      0.000326      0.000000
    250 O2    s      -0.000951     -0.000007      0.001110      0.000000
    251 O2    s       0.000231     -0.000024      0.000269      0.000000
    252 O2    s       0.000303      0.000900      0.001074      0.000000
    253 O3    s       0.000632      0.000477     -0.002396      0.000000
    254 O2    s      -0.000412      0.000320      0.000994      0.000000
    255 O2    s       0.000220      0.000231      0.000248      0.000000
    256 O2    s       0.000152     -0.000028      0.000631      0.000000
    257 O2    s      -0.000351     -0.000066      0.000320      0.000000
    258 O2    s      -0.000987      0.000863      0.001112      0.000000
    259 O2    s      -0.000180      0.000374     -0.000182      0.000000
    260 O2    s       0.000099      0.000024     -0.000698      0.000000
    261 O2    s       0.000416     -0.000117     -0.000362      0.000000
    262 O2    s       0.000253      0.000101     -0.000369      0.000000
    263 O2    s      -0.000105      0.000180     -0.000762      0.000000
    264 O3    s       0.000459      0.002048      0.002567      0.000000
    265 O3    s      -0.000058      0.000263     -0.000319      0.000000
    266 O2    s      -0.000160      0.000408      0.000635      0.000000
    267 O2    s       0.000254      0.000138      0.000269      0.000000
    268 O2    s       0.000333      0.000069      0.000483      0.000000
    269 O2    s       0.000018     -0.000273      0.000392      0.000000
    270 O2    s      -0.000222      0.000823      0.001081      0.000000
    271 O2    s      -0.000338      0.000384     -0.000332      0.000000
    272 O2    s       0.000044      0.000107     -0.000335      0.000000
    273 O2    s       0.000247     -0.000090     -0.000258      0.000000
    274 O3    s       0.000657     -0.000454     -0.001017      0.000000
    275 O2    s      -0.000138      0.000015     -0.000276      0.000000
    276 O2    s       0.000284     -0.000479      0.003319      0.000000
    277 O2    s      -0.000820      0.000071      0.000482      0.000000
    278 O2    s      -0.000667      0.000610      0.000545      0.000000
    279 O2    s       0.000623     -0.000094     -0.000167      0.000000
    280 O2    s      -0.000055      0.000157      0.000113      0.000000
    281 O3    s       0.000629      0.000140     -0.000215      0.000000
    282 O2    s       0.000075     -0.000646     -0.000548      0.000000
    283 O2    s       0.000028      0.000154      0.000059      0.000000
    284 O3    s      -0.000800     -0.001292      0.000013      0.000000
    285 O2    s       0.000426      0.000312     -0.000398      0.000000
    286 O2    s      -0.000160     -0.000342     -0.000145      0.000000
    287 O2    s       0.000052     -0.000131     -0.000001      0.000000
    288 O2    s       0.000255      0.001093      0.000368      0.000000
    289 O2    s      -0.000769     -0.000345     -0.001188      0.000000
    290 O2    s       0.000055      0.000563     -0.000263      0.000000
    291 O2    s       0.000233     -0.000201     -0.000345      0.000000
    292 O2    s       0.000163      0.000004     -0.000701      0.000000
    293 O2    s       0.000320      0.000328     -0.000544      0.000000
    294 O3    s       0.000282     -0.000402     -0.000798      0.000000
    295 O2    s      -0.000066      0.000452      0.001135      0.000000
    296 O2    s       0.000381     -0.000484     -0.000675      0.000000
    297 O2    s       0.000238      0.000105      0.000306      0.000000
    298 O2    s      -0.000623     -0.000269      0.001108      0.000000
    299 O2    s       0.000083     -0.000123      0.000531      0.000000
    300 O2    s       0.000014      0.000795      0.001146      0.000000
    301 O2    s       0.000282      0.000684      0.000334      0.000000
    302 O2    s       0.000221     -0.000394      0.000029      0.000000
    303 O2    s      -0.001347      0.000134      0.000497      0.000000
    304 O2    s       0.000288      0.000266     -0.000246      0.000000
    305 O2    s       0.000308      0.000465      0.000414      0.000000
    306 O2    s       0.000244      0.000327      0.000113      0.000000
    307 F     s      -0.000173      0.000644      0.000503      0.000000
    308 F     s       0.000139     -0.000160      0.000143      0.000000
    309 F     s      -0.000257     -0.000118      0.000239      0.000000
    310 F     s       0.000045      0.000294      0.000360      0.000000
    311 F     s      -0.000335     -0.000401      0.000486      0.000000
    312 F     s      -0.000098      0.000080      0.000132      0.000000
--------------------------------------------------------------------------------
  Maximum abs         0.002079      0.003651      0.008778      0.000000
--------------------------------------------------------------------------------


  Time to end of optimisation =      53.4774 seconds


  Peak dynamic memory used =      19.13 MB 


  Timing analysis for GULP :

--------------------------------------------------------------------------------
  Task / Subroutine                                          Time (Seconds)
--------------------------------------------------------------------------------
  Calculation of reciprocal space energy and derivatives          1.4104
  Calculation of real space energy and derivatives               46.5396
  Calculation of three-body energy and derivatives                4.6857
  Calculation of matrix inversion                                 0.7438
--------------------------------------------------------------------------------
  Total CPU time                                                 53.4774
--------------------------------------------------------------------------------


  Dump file written as out.res                                                 
  CIF file written as out.cif                                                 


  Job Finished at 22:17.59  7th November   2016                               

