********************************************************************************
*                       GENERAL UTILITY LATTICE PROGRAM                        *
*                                 Julian Gale                                  *
*                      Nanochemistry Research Institute                        *
*                           Department of Chemistry                            *
*                    Curtin University, Western Australia                      *
********************************************************************************
* Version = 4.2.0 * Last modified =  20th January 2014                         *
********************************************************************************
*  optimise     - perform optimisation run                                     *
*  conp         - constant pressure calculation                                *
*  qok          - running with non charge neutral cell is OK                   *
********************************************************************************

  Job Started  at 21:38.38  8th November   2016                               

  Number of CPUs =     1


  Total number of configurations input =   1

********************************************************************************
*  Input for Configuration =   1                                               *
********************************************************************************

  Formula = Ge3Si57O120F6                                               

  Number of irreducible atoms/shells =     312


  Total number atoms/shells =     312

  Dimensionality = 3               :  Bulk   


  Charge on solid   =  -6.000000 =>neutralising background added


  Cartesian lattice vectors (Angstroms) :

       11.965680    0.000000    0.000000
       -6.010635   10.385441    0.000000
       -0.266939    0.005279   29.434852

  Cell parameters (Angstroms/Degrees):

  a =      11.9657    alpha =  89.7308
  b =      11.9994    beta  =  90.5196
  c =      29.4361    gamma = 120.0604

  Initial cell volume =        3657.835650 Angs**3

  Temperature of configuration =  0.000     K 

  Pressure of configuration =         0.000 GPa 

  Fractional coordinates of asymmetric unit :

--------------------------------------------------------------------------------
   No.  Atomic       x           y          z         Charge      Occupancy
        Label      (Frac)      (Frac)     (Frac)        (e)         (Frac)  
--------------------------------------------------------------------------------
      1 Ge    c    0.699600    0.375700    0.033890     4.00000    1.000000    
      2 Si    c    0.621953 *  0.319941 *  0.367143 *   4.00000    1.000000    
      3 Si    c    0.670131 *  0.303251 *  0.699452 *   4.00000    1.000000    
      4 Si    c    0.300156 *  0.616611 *  0.531672 *   4.00000    1.000000    
      5 Si    c    0.377187 *  0.676356 *  0.862206 *   4.00000    1.000000    
      6 Si    c    0.321451 *  0.701871 *  0.196317 *   4.00000    1.000000    
      7 Si    c    0.372483 *  0.695529 *  0.297537 *   4.00000    1.000000    
      8 Si    c    0.319447 *  0.622047 *  0.962368 *   4.00000    1.000000    
      9 Si    c    0.308975 *  0.681320 *  0.633964 *   4.00000    1.000000    
     10 Si    c    0.617564 *  0.298582 *  0.800202 *   4.00000    1.000000    
     11 Si    c    0.678032 *  0.380560 *  0.467356 *   4.00000    1.000000    
     12 Si    c    0.688635 *  0.318341 *  0.132821 *   4.00000    1.000000    
     13 Si    c    0.527057 *  0.417637 *  0.966811 *   4.00000    1.000000    
     14 Si    c    0.579566 *  0.108772 *  0.302596 *   4.00000    1.000000    
     15 Si    c    0.881557 *  0.469276 *  0.637003 *   4.00000    1.000000    
     16 Si    c    0.470333 *  0.581938 *  0.464899 *   4.00000    1.000000    
     17 Si    c    0.417097 *  0.888647 *  0.797666 *   4.00000    1.000000    
     18 Si    c    0.110094 *  0.532302 *  0.128909 *   4.00000    1.000000    
     19 Si    c    0.415491 *  0.526879 *  0.363121 *   4.00000    1.000000    
     20 Si    c    0.104177 *  0.582306 *  0.025429 *   4.00000    1.000000    
     21 Si    c    0.475552 *  0.899484 *  0.696586 *   4.00000    1.000000    
     22 Si    c    0.580378 *  0.470804 *  0.864759 *   4.00000    1.000000    
     23 Si    c    0.884241 *  0.410455 *  0.534220 *   4.00000    1.000000    
     24 Si    c    0.530631 *  0.111634 *  0.200983 *   4.00000    1.000000    
     25 Si    c    0.299044 *  0.398433 *  0.848059 *   4.00000    1.000000    
     26 Si    c    0.602543 *  0.903914 *  0.184620 *   4.00000    1.000000    
     27 Si    c    0.096146 *  0.694670 *  0.517819 *   4.00000    1.000000    
     28 Si    c    0.695406 *  0.594954 *  0.349205 *   4.00000    1.000000    
     29 Si    c    0.394324 *  0.100386 *  0.683519 *   4.00000    1.000000    
     30 Si    c    0.890438 *  0.295181 *  0.011068 *   4.00000    1.000000    
     31 Si    c    0.398846 *  0.302554 *  0.481573 *   4.00000    1.000000    
     32 Si    c    0.895054 *  0.602222 *  0.142599 *   4.00000    1.000000    
     33 Si    c    0.698047 *  0.099291 *  0.812865 *   4.00000    1.000000    
     34 Si    c    0.596747 *  0.698458 *  0.978568 *   4.00000    1.000000    
     35 Ge    c    0.097855 *  0.411513 *  0.642069 *   4.00000    1.000000    
     36 Si    c    0.298389 *  0.897729 *  0.313032 *   4.00000    1.000000    
     37 Si    c    0.248691 *  0.342519 *  0.948752 *   4.00000    1.000000    
     38 Si    c    0.653636 *  0.906618 *  0.286016 *   4.00000    1.000000    
     39 Si    c    0.090565 *  0.749696 *  0.619398 *   4.00000    1.000000    
     40 Si    c    0.748928 *  0.659517 *  0.449373 *   4.00000    1.000000    
     41 Si    c    0.336835 *  0.088236 *  0.784111 *   4.00000    1.000000    
     42 Si    c    0.904212 *  0.250878 *  0.114096 *   4.00000    1.000000    
     43 Si    c    0.341643 *  0.250141 *  0.380673 *   4.00000    1.000000    
     44 Si    c    0.898843 *  0.660342 *  0.039928 *   4.00000    1.000000    
     45 Si    c    0.753703 *  0.101744 *  0.712051 *   4.00000    1.000000    
     46 Si    c    0.658360 *  0.749620 *  0.878104 *   4.00000    1.000000    
     47 Si    c    0.086978 *  0.329447 *  0.546125 *   4.00000    1.000000    
     48 Si    c    0.250311 *  0.910127 *  0.212176 *   4.00000    1.000000    
     49 Si    c    0.971559 *  0.122697 *  0.962967 *   4.00000    1.000000    
     50 Ge    c    0.876179 *  0.845556 *  0.298152 *   4.00000    1.000000    
     51 Si    c    0.146204 *  0.029450 *  0.632224 *   4.00000    1.000000    
     52 Si    c    0.029734 *  0.874287 *  0.465329 *   4.00000    1.000000    
     53 Si    c    0.119536 *  0.150202 *  0.796875 *   4.00000    1.000000    
     54 Si    c    0.847469 *  0.973899 *  0.130530 *   4.00000    1.000000    
     55 Si    c    0.125004 *  0.969809 *  0.364729 *   4.00000    1.000000    
     56 Si    c    0.845610 *  0.882506 *  0.029038 *   4.00000    1.000000    
     57 Si    c    0.033588 *  0.160905 *  0.695282 *   4.00000    1.000000    
     58 Si    c    0.877767 *  0.028041 *  0.862386 *   4.00000    1.000000    
     59 Si    c    0.150816 *  0.118302 *  0.530172 *   4.00000    1.000000    
     60 Si    c    0.972644 *  0.852605 *  0.194179 *   4.00000    1.000000    
     61 O2    c    0.926607 *  0.005176 *  0.997543 *   0.87073    1.000000    
     62 O3    c    0.006386 *  0.936844 *  0.332472 *   1.33043    1.000000    
     63 O2    c    0.062826 *  0.068606 *  0.663222 *   0.87073    1.000000    
     64 O2    c    0.075372 *  0.995735 *  0.497665 *   0.87073    1.000000    
     65 O2    c    0.996811 *  0.070245 *  0.828934 *   0.87073    1.000000    
     66 O2    c    0.934404 *  0.935574 *  0.161270 *   0.87073    1.000000    
     67 O2    c    0.335933 *  0.572028 *  0.329975 *   0.87073    1.000000    
     68 O2    c    0.436062 *  0.779735 *  0.662286 *   0.87073    1.000000    
     69 O2    c    0.231000 *  0.658300 *  0.994203 *   0.87073    1.000000    
     70 O2    c    0.656747 *  0.420316 *  0.833307 *   0.87073    1.000000    
     71 O2    c    0.581167 *  0.240644 *  0.171209 *   0.87073    1.000000    
     72 O2    c    0.759624 *  0.340252 *  0.500984 *   0.87073    1.000000    
     73 O3    c    0.565745 *  0.336960 *  0.999286 *   1.33043    1.000000    
     74 O2    c    0.752325 *  0.427649 *  0.666621 *   0.87073    1.000000    
     75 O2    c    0.658103 *  0.231941 *  0.335770 *   0.87073    1.000000    
     76 O2    c    0.420333 *  0.656652 *  0.497598 *   0.87073    1.000000    
     77 O2    c    0.235769 *  0.582488 *  0.161753 *   0.87073    1.000000    
     78 O2    c    0.339933 *  0.761445 *  0.829022 *   0.87073    1.000000    
     79 O2    c    0.124940 *  0.214885 *  0.969274 *   0.87073    1.000000    
     80 O3    c    0.777406 *  0.908789 *  0.307616 *   1.33043    1.000000    
     81 O2    c    0.089658 *  0.875576 *  0.637995 *   0.87073    1.000000    
     82 O2    c    0.874965 *  0.786653 *  0.469396 *   0.87073    1.000000    
     83 O2    c    0.210380 *  0.086998 *  0.804104 *   0.87073    1.000000    
     84 O2    c    0.907828 *  0.127810 *  0.135366 *   0.87073    1.000000    
     85 O2    c    0.217684 *  0.123483 *  0.360388 *   0.87073    1.000000    
     86 O2    c    0.915158 *  0.798048 *  0.024360 *   0.87073    1.000000    
     87 O2    c    0.878419 *  0.104487 *  0.690594 *   0.87073    1.000000    
     88 O2    c    0.785370 *  0.874033 *  0.857674 *   0.87073    1.000000    
     89 O2    c    0.088287 *  0.208693 *  0.521167 *   0.87073    1.000000    
     90 O2    c    0.127037 *  0.912814 *  0.190291 *   0.87073    1.000000    
     91 O3    c    0.933036 *  0.867291 *  0.243948 *   1.33043    1.000000    
     92 O2    c    0.133054 *  0.063562 *  0.580510 *   0.87073    1.000000    
     93 O2    c    0.934421 *  0.065753 *  0.912804 *   0.87073    1.000000    
     94 O2    c    0.068628 *  0.136721 *  0.746035 *   0.87073    1.000000    
     95 O2    c    0.852941 *  0.933398 *  0.079771 *   0.87073    1.000000    
     96 O2    c    0.073385 *  0.926213 *  0.415165 *   0.87073    1.000000    
     97 O2    c    0.901615 *  0.204263 *  0.973238 *   0.87073    1.000000    
     98 O3    c    0.791320 *  0.683458 *  0.309726 *   1.33043    1.000000    
     99 O2    c    0.297871 *  0.102291 *  0.644707 *   0.87073    1.000000    
    100 O2    c    0.094444 *  0.787912 *  0.478429 *   0.87073    1.000000    
    101 O2    c    0.202067 *  0.301625 *  0.809369 *   0.87073    1.000000    
    102 O2    c    0.698423 *  0.902894 *  0.146290 *   0.87073    1.000000    
    103 O2    c    0.200887 *  0.895076 *  0.351432 *   0.87073    1.000000    
    104 O2    c    0.693985 *  0.798163 *  0.016894 *   0.87073    1.000000    
    105 O3    c    0.107748 *  0.307183 *  0.683576 *   1.33043    1.000000    
    106 O2    c    0.795270 *  0.098021 *  0.851495 *   0.87073    1.000000    
    107 O2    c    0.303880 *  0.203499 *  0.519837 *   0.87073    1.000000    
    108 O2    c    0.901171 *  0.701390 *  0.181235 *   0.87073    1.000000    
    109 O2    c    0.318348 *  0.640916 *  0.246404 *   0.87073    1.000000    
    110 O2    c    0.354708 *  0.672476 *  0.581999 *   0.87073    1.000000    
    111 O2    c    0.318220 *  0.678310 *  0.911953 *   0.87073    1.000000    
    112 O2    c    0.672546 *  0.358441 *  0.750061 *   0.87073    1.000000    
    113 O3    c    0.615455 *  0.304514 *  0.085967 *   1.33043    1.000000    
    114 O2    c    0.678470 *  0.320994 *  0.417741 *   0.87073    1.000000    
    115 O2    c    0.369891 *  0.332427 *  0.967327 *   0.87073    1.000000    
    116 O2    c    0.664751 *  0.038464 *  0.304752 *   0.87073    1.000000    
    117 O2    c    0.957826 *  0.626578 *  0.636366 *   0.87073    1.000000    
    118 O2    c    0.626902 *  0.669675 *  0.467849 *   0.87073    1.000000    
    119 O2    c    0.328612 *  0.956055 *  0.801625 *   0.87073    1.000000    
    120 O2    c    0.037066 *  0.376554 *  0.130858 *   0.87073    1.000000    
    121 O2    c    0.329758 *  0.370734 *  0.361402 *   0.87073    1.000000    
    122 O2    c    0.032456 *  0.666154 *  0.024076 *   0.87073    1.000000    
    123 O2    c    0.631143 *  0.968864 *  0.694034 *   0.87073    1.000000    
    124 O2    c    0.667365 *  0.626573 *  0.860564 *   0.87073    1.000000    
    125 O2    c    0.952838 *  0.323786 *  0.530229 *   0.87073    1.000000    
    126 O2    c    0.374621 *  0.042353 *  0.195546 *   0.87073    1.000000    
    127 O3    c    0.755388 *  0.285323 *  0.002409 *   1.33043    1.000000    
    128 O2    c    0.696430 *  0.461229 *  0.343848 *   0.87073    1.000000    
    129 O2    c    0.526861 *  0.235807 *  0.676692 *   0.87073    1.000000    
    130 O2    c    0.227529 *  0.690264 *  0.511712 *   0.87073    1.000000    
    131 O2    c    0.302083 *  0.533583 *  0.839549 *   0.87073    1.000000    
    132 O2    c    0.466156 *  0.772215 *  0.175456 *   0.87073    1.000000    
    133 O2    c    0.296386 *  0.762473 *  0.319570 *   0.87073    1.000000    
    134 O2    c    0.462433 *  0.699340 *  0.985609 *   0.87073    1.000000    
    135 O3    c    0.249114 *  0.545587 *  0.658237 *   1.33043    1.000000    
    136 O2    c    0.693972 *  0.230314 *  0.821705 *   0.87073    1.000000    
    137 O2    c    0.535200 *  0.307670 *  0.489542 *   0.87073    1.000000    
    138 O2    c    0.763773 *  0.467470 *  0.151368 *   0.87073    1.000000    
    139 O3    c    0.772575 *  0.546645 *  0.018957 *   1.33043    1.000000    
    140 O2    c    0.466346 *  0.247708 *  0.361876 *   0.87073    1.000000    
    141 O2    c    0.746746 *  0.224735 *  0.693349 *   0.87073    1.000000    
    142 O2    c    0.211529 *  0.461797 *  0.527964 *   0.87073    1.000000    
    143 O2    c    0.533561 *  0.751596 *  0.857976 *   0.87073    1.000000    
    144 O2    c    0.247082 *  0.783215 *  0.192340 *   0.87073    1.000000    
    145 O2    c    0.527794 *  0.778045 *  0.303865 *   0.87073    1.000000    
    146 O2    c    0.244578 *  0.466458 *  0.968177 *   0.87073    1.000000    
    147 O2    c    0.215090 *  0.744229 *  0.636854 *   0.87073    1.000000    
    148 O2    c    0.461593 *  0.214448 *  0.804374 *   0.87073    1.000000    
    149 O2    c    0.754225 *  0.536967 *  0.469936 *   0.87073    1.000000    
    150 O2    c    0.781616 *  0.254509 *  0.134154 *   0.87073    1.000000    
    151 O2    c    0.227009 *  0.325732 *  0.894388 *   0.87073    1.000000    
    152 O2    c    0.674117 *  0.903683 *  0.231588 *   0.87073    1.000000    
    153 O2    c    0.092992 *  0.761062 *  0.564643 *   0.87073    1.000000    
    154 O2    c    0.768227 *  0.676896 *  0.394794 *   0.87073    1.000000    
    155 O2    c    0.318079 *  0.091395 *  0.729708 *   0.87073    1.000000    
    156 O2    c    0.899281 *  0.233934 *  0.059892 *   0.87073    1.000000    
    157 O2    c    0.325006 *  0.232468 *  0.434970 *   0.87073    1.000000    
    158 O2    c    0.895280 *  0.669162 *  0.095389 *   0.87073    1.000000    
    159 O2    c    0.771325 *  0.101779 *  0.766603 *   0.87073    1.000000    
    160 O2    c    0.674291 *  0.768529 *  0.932601 *   0.87073    1.000000    
    161 O3    c    0.091323 *  0.303586 *  0.598517 *   1.33043    1.000000    
    162 O2    c    0.228105 *  0.904701 *  0.266537 *   0.87073    1.000000    
    163 O2    c    0.580101 *  0.559511 *  0.989182 *   0.87073    1.000000    
    164 O2    c    0.436854 *  0.022453 *  0.324008 *   0.87073    1.000000    
    165 O3    c    0.958587 *  0.410824 *  0.662347 *   1.33043    1.000000    
    166 O2    c    0.412347 *  0.441952 *  0.488870 *   0.87073    1.000000    
    167 O2    c    0.559261 *  0.972268 *  0.820564 *   0.87073    1.000000    
    168 O2    c    0.018578 *  0.583138 *  0.148762 *   0.87073    1.000000    
    169 O2    c    0.556095 *  0.582245 *  0.339917 *   0.87073    1.000000    
    170 O2    c    0.012983 *  0.439982 *  0.005067 *   0.87073    1.000000    
    171 O2    c    0.411332 *  0.977579 *  0.673332 *   0.87073    1.000000    
    172 O2    c    0.438954 *  0.412224 *  0.841172 *   0.87073    1.000000    
    173 O2    c    0.974680 *  0.552266 *  0.513009 *   0.87073    1.000000    
    174 O2    c    0.591502 *  0.031546 *  0.177559 *   0.87073    1.000000    
    175 O2    c    0.580431 *  0.163787 *  0.252132 *   0.87073    1.000000    
    176 O2    c    0.835852 *  0.413684 *  0.585042 *   0.87073    1.000000    
    177 O2    c    0.581885 *  0.421485 *  0.915918 *   0.87073    1.000000    
    178 O2    c    0.417893 *  0.839110 *  0.746314 *   0.87073    1.000000    
    179 O2    c    0.152671 *  0.579698 *  0.077297 *   0.87073    1.000000    
    180 O2    c    0.416976 *  0.582018 *  0.413789 *   0.87073    1.000000    
    181 F     c    0.448960 *  0.901544 *  0.249089 *   0.56000    1.000000    
    182 F     c    0.094180 *  0.515442 *  0.593232 *   0.56000    1.000000    
    183 F     c    0.447201 *  0.552357 *  0.913794 *   0.56000    1.000000    
    184 F     c    0.543890 *  0.098792 *  0.747601 *   0.56000    1.000000    
    185 F     c    0.852381 *  0.434793 *  0.070162 *   0.56000    1.000000    
    186 F     c    0.551139 *  0.454607 *  0.415312 *   0.56000    1.000000    
    187 O2    s    0.922419 *  0.004471 *  0.997228 *  -2.87073    1.000000    
    188 O3    s    0.007934 *  0.932436 *  0.332987 *  -3.33043    1.000000    
    189 O2    s    0.069287 *  0.073578 *  0.662977 *  -2.87073    1.000000    
    190 O2    s    0.078584 *  0.995478 *  0.497584 *  -2.87073    1.000000    
    191 O2    s    0.996948 *  0.074322 *  0.829166 *  -2.87073    1.000000    
    192 O2    s    0.928978 *  0.930698 *  0.161482 *  -2.87073    1.000000    
    193 O2    s    0.347687 *  0.579989 *  0.330021 *  -2.87073    1.000000    
    194 O2    s    0.426458 *  0.781476 *  0.662739 *  -2.87073    1.000000    
    195 O2    s    0.226390 *  0.646685 *  0.994325 *  -2.87073    1.000000    
    196 O2    s    0.644822 *  0.412837 *  0.833089 *  -2.87073    1.000000    
    197 O2    s    0.586984 *  0.234920 *  0.170392 *  -2.87073    1.000000    
    198 O2    s    0.764203 *  0.351843 *  0.500962 *  -2.87073    1.000000    
    199 O3    s    0.571885 *  0.348322 *  0.998556 *  -3.33043    1.000000    
    200 O2    s    0.757233 *  0.419555 *  0.666891 *  -2.87073    1.000000    
    201 O2    s    0.646235 *  0.228276 *  0.335593 *  -2.87073    1.000000    
    202 O2    s    0.413051 *  0.644911 *  0.497775 *  -2.87073    1.000000    
    203 O2    s    0.231357 *  0.589249 *  0.161832 *  -2.87073    1.000000    
    204 O2    s    0.351767 *  0.765894 *  0.829182 *  -2.87073    1.000000    
    205 O2    s    0.121045 *  0.218029 *  0.966509 *  -2.87073    1.000000    
    206 O3    s    0.773023 *  0.903300 *  0.304663 *  -3.33043    1.000000    
    207 O2    s    0.095576 *  0.877960 *  0.635441 *  -2.87073    1.000000    
    208 O2    s    0.878484 *  0.782887 *  0.466918 *  -2.87073    1.000000    
    209 O2    s    0.214009 *  0.093719 *  0.801304 *  -2.87073    1.000000    
    210 O2    s    0.901113 *  0.124416 *  0.132684 *  -2.87073    1.000000    
    211 O2    s    0.221034 *  0.120577 *  0.363002 *  -2.87073    1.000000    
    212 O2    s    0.905983 *  0.793169 *  0.026423 *  -2.87073    1.000000    
    213 O2    s    0.880636 *  0.109859 *  0.693336 *  -2.87073    1.000000    
    214 O2    s    0.782035 *  0.877499 *  0.860256 *  -2.87073    1.000000    
    215 O2    s    0.094708 *  0.211209 *  0.524523 *  -2.87073    1.000000    
    216 O2    s    0.123624 *  0.906165 *  0.192970 *  -2.87073    1.000000    
    217 O3    s    0.932278 *  0.863752 *  0.243339 *  -3.33043    1.000000    
    218 O2    s    0.136521 *  0.066012 *  0.580455 *  -2.87073    1.000000    
    219 O2    s    0.932256 *  0.067971 *  0.912833 *  -2.87073    1.000000    
    220 O2    s    0.070723 *  0.140837 *  0.746468 *  -2.87073    1.000000    
    221 O2    s    0.851483 *  0.932479 *  0.080063 *  -2.87073    1.000000    
    222 O2    s    0.074150 *  0.925105 *  0.415273 *  -2.87073    1.000000    
    223 O2    s    0.908079 *  0.204959 *  0.976101 *  -2.87073    1.000000    
    224 O3    s    0.789107 *  0.688301 *  0.312553 *  -3.33043    1.000000    
    225 O2    s    0.291488 *  0.094301 *  0.647327 *  -2.87073    1.000000    
    226 O2    s    0.087821 *  0.787059 *  0.481227 *  -2.87073    1.000000    
    227 O2    s    0.203401 *  0.295709 *  0.812051 *  -2.87073    1.000000    
    228 O2    s    0.704198 *  0.910488 *  0.148614 *  -2.87073    1.000000    
    229 O2    s    0.202933 *  0.903198 *  0.348852 *  -2.87073    1.000000    
    230 O2    s    0.700352 *  0.797115 *  0.014321 *  -2.87073    1.000000    
    231 O3    s    0.098774 *  0.297764 *  0.682134 *  -3.33043    1.000000    
    232 O2    s    0.794074 *  0.090742 *  0.848707 *  -2.87073    1.000000    
    233 O2    s    0.297758 *  0.204870 *  0.516959 *  -2.87073    1.000000    
    234 O2    s    0.908009 *  0.707061 *  0.178651 *  -2.87073    1.000000    
    235 O2    s    0.324037 *  0.652464 *  0.246467 *  -2.87073    1.000000    
    236 O2    s    0.344588 *  0.667408 *  0.581661 *  -2.87073    1.000000    
    237 O2    s    0.324249 *  0.672336 *  0.912120 *  -2.87073    1.000000    
    238 O2    s    0.666691 *  0.346645 *  0.749944 *  -2.87073    1.000000    
    239 O3    s    0.628567 *  0.310660 *  0.087307 *  -3.33043    1.000000    
    240 O2    s    0.672613 *  0.326987 *  0.417599 *  -2.87073    1.000000    
    241 O2    s    0.372486 *  0.342232 *  0.965203 *  -2.87073    1.000000    
    242 O2    s    0.654507 *  0.032009 *  0.302531 *  -2.87073    1.000000    
    243 O2    s    0.964283 *  0.623890 *  0.634613 *  -2.87073    1.000000    
    244 O2    s    0.623499 *  0.659586 *  0.465602 *  -2.87073    1.000000    
    245 O2    s    0.338542 *  0.963029 *  0.799370 *  -2.87073    1.000000    
    246 O2    s    0.030997 *  0.379829 *  0.128937 *  -2.87073    1.000000    
    247 O2    s    0.339844 *  0.374291 *  0.363598 *  -2.87073    1.000000    
    248 O2    s    0.026747 *  0.656706 *  0.025792 *  -2.87073    1.000000    
    249 O2    s    0.627539 *  0.975515 *  0.696220 *  -2.87073    1.000000    
    250 O2    s    0.657459 *  0.623454 *  0.862847 *  -2.87073    1.000000    
    251 O2    s    0.959041 *  0.333381 *  0.532244 *  -2.87073    1.000000    
    252 O2    s    0.377438 *  0.035345 *  0.197902 *  -2.87073    1.000000    
    253 O3    s    0.765935 *  0.292393 *  0.005510 *  -3.33043    1.000000    
    254 O2    s    0.688507 *  0.460476 *  0.346894 *  -2.87073    1.000000    
    255 O2    s    0.527653 *  0.228452 *  0.679805 *  -2.87073    1.000000    
    256 O2    s    0.220874 *  0.683163 *  0.514425 *  -2.87073    1.000000    
    257 O2    s    0.309479 *  0.534129 *  0.842799 *  -2.87073    1.000000    
    258 O2    s    0.465191 *  0.778469 *  0.178592 *  -2.87073    1.000000    
    259 O2    s    0.304388 *  0.769682 *  0.316571 *  -2.87073    1.000000    
    260 O2    s    0.461570 *  0.691366 *  0.982482 *  -2.87073    1.000000    
    261 O3    s    0.244696 *  0.550322 *  0.654506 *  -3.33043    1.000000    
    262 O2    s    0.686531 *  0.223543 *  0.818533 *  -2.87073    1.000000    
    263 O2    s    0.535597 *  0.314758 *  0.486346 *  -2.87073    1.000000    
    264 O2    s    0.770402 *  0.467292 *  0.148600 *  -2.87073    1.000000    
    265 O3    s    0.782179 *  0.548731 *  0.022126 *  -3.33043    1.000000    
    266 O2    s    0.469249 *  0.255716 *  0.364453 *  -2.87073    1.000000    
    267 O2    s    0.739307 *  0.219615 *  0.695969 *  -2.87073    1.000000    
    268 O2    s    0.208209 *  0.464837 *  0.530198 *  -2.87073    1.000000    
    269 O2    s    0.530807 *  0.743450 *  0.860582 *  -2.87073    1.000000    
    270 O2    s    0.255317 *  0.788274 *  0.194874 *  -2.87073    1.000000    
    271 O2    s    0.524877 *  0.783224 *  0.301287 *  -2.87073    1.000000    
    272 O2    s    0.252808 *  0.469494 *  0.965549 *  -2.87073    1.000000    
    273 O2    s    0.210439 *  0.738477 *  0.634647 *  -2.87073    1.000000    
    274 O2    s    0.464512 *  0.209560 *  0.801770 *  -2.87073    1.000000    
    275 O2    s    0.745689 *  0.533808 *  0.467485 *  -2.87073    1.000000    
    276 O2    s    0.785838 *  0.260596 *  0.131811 *  -2.87073    1.000000    
    277 O2    s    0.236809 *  0.335133 *  0.895283 *  -2.87073    1.000000    
    278 O2    s    0.664565 *  0.903930 *  0.232256 *  -2.87073    1.000000    
    279 O2    s    0.093068 *  0.752664 *  0.565288 *  -2.87073    1.000000    
    280 O2    s    0.758908 *  0.666916 *  0.395831 *  -2.87073    1.000000    
    281 O2    s    0.328101 *  0.092005 *  0.730550 *  -2.87073    1.000000    
    282 O2    s    0.898911 *  0.241800 *  0.060978 *  -2.87073    1.000000    
    283 O2    s    0.334566 *  0.241760 *  0.434076 *  -2.87073    1.000000    
    284 O2    s    0.895512 *  0.660800 *  0.095183 *  -2.87073    1.000000    
    285 O2    s    0.761795 *  0.101531 *  0.765718 *  -2.87073    1.000000    
    286 O2    s    0.664547 *  0.759258 *  0.931633 *  -2.87073    1.000000    
    287 O3    s    0.091269 *  0.313493 *  0.595797 *  -3.33043    1.000000    
    288 O2    s    0.237617 *  0.904516 *  0.265656 *  -2.87073    1.000000    
    289 O2    s    0.576242 *  0.560279 *  0.985737 *  -2.87073    1.000000    
    290 O2    s    0.436922 *  0.017904 *  0.320570 *  -2.87073    1.000000    
    291 O3    s    0.961021 *  0.417137 *  0.658251 *  -3.33043    1.000000    
    292 O2    s    0.417098 *  0.441586 *  0.485581 *  -2.87073    1.000000    
    293 O2    s    0.559332 *  0.977377 *  0.817324 *  -2.87073    1.000000    
    294 O2    s    0.015131 *  0.579607 *  0.145983 *  -2.87073    1.000000    
    295 O2    s    0.556241 *  0.577664 *  0.343320 *  -2.87073    1.000000    
    296 O2    s    0.010047 *  0.440483 *  0.007887 *  -2.87073    1.000000    
    297 O2    s    0.416285 *  0.982801 *  0.676826 *  -2.87073    1.000000    
    298 O2    s    0.438644 *  0.417017 *  0.844382 *  -2.87073    1.000000    
    299 O2    s    0.978732 *  0.553113 *  0.515785 *  -2.87073    1.000000    
    300 O2    s    0.586247 *  0.025959 *  0.180740 *  -2.87073    1.000000    
    301 O2    s    0.575068 *  0.152464 *  0.252113 *  -2.87073    1.000000    
    302 O2    s    0.845488 *  0.418720 *  0.584675 *  -2.87073    1.000000    
    303 O2    s    0.576204 *  0.426361 *  0.915667 *  -2.87073    1.000000    
    304 O2    s    0.423734 *  0.850435 *  0.746461 *  -2.87073    1.000000    
    305 O2    s    0.143283 *  0.574895 *  0.077609 *  -2.87073    1.000000    
    306 O2    s    0.422302 *  0.576385 *  0.413857 *  -2.87073    1.000000    
    307 F     s    0.448706 *  0.901232 *  0.249103 *  -1.56000    1.000000    
    308 F     s    0.094428 *  0.508900 *  0.596112 *  -1.56000    1.000000    
    309 F     s    0.446747 *  0.552975 *  0.913808 *  -1.56000    1.000000    
    310 F     s    0.543795 *  0.099020 *  0.747495 *  -1.56000    1.000000    
    311 F     s    0.842642 *  0.430987 *  0.068077 *  -1.56000    1.000000    
    312 F     s    0.551638 *  0.454788 *  0.415293 *  -1.56000    1.000000    
--------------------------------------------------------------------------------



********************************************************************************
*  General input information                                                   *
********************************************************************************

  Species output for all configurations : 

--------------------------------------------------------------------------------
  Species    Type    Atomic    Atomic    Charge       Radii (Angs)     Library
                     Number     Mass       (e)     Cova   Ionic  VDW   Symbol
--------------------------------------------------------------------------------
    Si       Core       14      28.09   4.000000   1.200  0.000  2.100          
    O1       Core        8      16.00   1.733957   0.730  0.000  1.360          
    O1       Shell       8       0.00  -3.733957   0.730  0.000  1.360          
    O2       Core        8      16.00   0.870733   0.730  0.000  1.360          
    O2       Shell       8       0.00  -2.870733   0.730  0.000  1.360          
    O3       Core        8      16.00   1.330431   0.730  0.000  1.360          
    O3       Shell       8       0.00  -3.330431   0.730  0.000  1.360          
    F        Core        9      19.00   0.560000   0.710  0.000  1.300          
    F        Shell       9       0.00  -1.560000   0.710  0.000  1.300          
    Ge       Core       32      72.61   4.000000   1.170  0.000  1.750          
--------------------------------------------------------------------------------


  Lattice summation method               =    Ewald          (3-D)
                                         =    Parry          (2-D)
                                         =    Saunders et al (1-D)
  Accuracy factor for lattice sums       =   12.000


  Time limit = Infinity

  Maximum range for interatomic potentials =        16.000000 Angstroms

  Taper potentials to zero over   1.0000 Angstroms using polynomial

  General interatomic potentials :

--------------------------------------------------------------------------------
Atom  Types   Potential         A         B         C         D     Cutoffs(Ang)
  1     2                                                            Min    Max 
--------------------------------------------------------------------------------
Si   c O1   s Buckingham    0.132E+04 0.318      10.1      0.00     0.000 16.000
Si   c O2   s Buckingham    0.132E+04 0.318      10.1      0.00     0.000 16.000
Si   c O3   s Buckingham    0.132E+04 0.318      10.1      0.00     0.000 16.000
Ge   c O1   s Buckingham    0.150E+04 0.326      16.8      0.00     0.000 16.000
Ge   c O2   s Buckingham    0.150E+04 0.326      16.8      0.00     0.000 16.000
Ge   c O3   s Buckingham    0.150E+04 0.326      16.8      0.00     0.000 16.000
O1   s O1   s Buckingham    0.228E+05 0.149      10.9      0.00     0.000 16.000
O1   s O2   s Buckingham    0.228E+05 0.149      10.9      0.00     0.000 16.000
O1   s O3   s Buckingham    0.228E+05 0.149      10.9      0.00     0.000 16.000
O2   s O2   s Buckingham    0.228E+05 0.149      10.9      0.00     0.000 16.000
O2   s O3   s Buckingham    0.228E+05 0.149      10.9      0.00     0.000 16.000
O3   s O3   s Buckingham    0.228E+05 0.149      10.9      0.00     0.000 16.000
Si   c F    s Buckingham     977.     0.282      0.00      0.00     0.000 16.000
Ge   c F    s Buckingham     681.     0.320      0.00      0.00     0.000 16.000
F    s F    s Buckingham     540.     0.262      0.00      0.00     0.000 16.000
O1   s F    s Buckingham    0.168E+04 0.268      0.00      0.00     0.000 16.000
O2   s F    s Buckingham    0.168E+04 0.268      0.00      0.00     0.000 16.000
O3   s F    s Buckingham    0.168E+04 0.268      0.00      0.00     0.000 16.000
O2   c O2   s Spring (c-s)   76.0      0.00      0.00      0.00     0.000  0.800
O3   c O3   s Spring (c-s)   128.      0.00      0.00      0.00     0.000  0.800
O1   c O1   s Spring (c-s)   180.      0.00      0.00      0.00     0.000  0.800
F    c F    s Spring (c-s)   33.5      0.00      0.00      0.00     0.000  0.800
--------------------------------------------------------------------------------

  General Three-body potentials :

  Harmonic form:

--------------------------------------------------------------------------------
Atom    Atom    Atom           Force Constants            Theta     Cutoffs  
  1       2       3     (eVrad**-2/eVrad**-3/eVrad**-4)   (deg)  1-2  1-3  2-3
--------------------------------------------------------------------------------
Si    c O1    s O1    s  1.261        0.0000    0.0000   109.470 0.00 0.00 0.00
                                                                 1.90 1.90 3.50
Si    c O1    s O2    s  1.261        0.0000    0.0000   109.470 0.00 0.00 0.00
                                                                 1.90 1.90 3.50
Si    c O2    s O2    s  1.261        0.0000    0.0000   109.470 0.00 0.00 0.00
                                                                 1.90 1.90 3.50
--------------------------------------------------------------------------------

********************************************************************************
*  Output for configuration   1                                                *
********************************************************************************


  Components of energy : 

--------------------------------------------------------------------------------
  Interatomic potentials     =        2063.49446985 eV
  Three-body potentials      =           0.47914553 eV
  Monopole - monopole (real) =       -6613.02701117 eV
  Monopole - monopole (recip)=       -3171.04244529 eV
  Monopole - monopole (total)=       -9784.06945645 eV
  Neutralising energy        =          -6.45942533 eV
--------------------------------------------------------------------------------
  Total lattice energy       =       -7726.55526640 eV
--------------------------------------------------------------------------------
  Total lattice energy       =         -745494.4720 kJ/(mole unit cells)
--------------------------------------------------------------------------------


  Number of variables =      939

  Maximum number of calculations  =          5000
  Maximum Hessian update interval =            10
  Maximum step size               =   0.100000000
  Maximum parameter tolerance     =   0.000010000
  Maximum function  tolerance     =   0.000010000
  Maximum gradient  tolerance     =   0.001000000
  Maximum gradient  component     =   0.010000000

  Symmetry not applied to optimisation

  Cell parameters to be optimised using strains

  Newton-Raphson optimiser to be used

  BFGS hessian update to be used

  Dumpfile to be written after every cycle

  Start of bulk optimisation :

  Cycle:      0 Energy:     -7726.555266  Gnorm:      0.008473  CPU:    2.045
  ** Hessian calculated **
  Cycle:      1 Energy:     -7726.581590  Gnorm:      0.007558  CPU:    6.635
  Cycle:      2 Energy:     -7726.613198  Gnorm:      0.006295  CPU:   10.846
  Cycle:      3 Energy:     -7726.648246  Gnorm:      0.004498  CPU:   15.060
  Cycle:      4 Energy:     -7726.670985  Gnorm:      0.002673  CPU:   19.272
  Cycle:      5 Energy:     -7726.676389  Gnorm:      0.001540  CPU:   23.486
  Cycle:      6 Energy:     -7726.677716  Gnorm:      0.000834  CPU:   27.702
  Cycle:      7 Energy:     -7726.678048  Gnorm:      0.000434  CPU:   31.916
  Cycle:      8 Energy:     -7726.678131  Gnorm:      0.000224  CPU:   36.130
  Cycle:      9 Energy:     -7726.678145  Gnorm:      0.000157  CPU:   38.974
  Cycle:     10 Energy:     -7726.678152  Gnorm:      0.000110  CPU:   41.818
  ** Hessian calculated **
  Cycle:     11 Energy:     -7726.678152  Gnorm:      0.000051  CPU:   46.357
  Cycle:     12 Energy:     -7726.678152  Gnorm:      0.000036  CPU:   49.200


  **** Optimisation achieved ****


  Final energy =   -7726.67815202 eV
  Final Gnorm  =       0.00002593

  Components of energy : 

--------------------------------------------------------------------------------
  Interatomic potentials     =        2064.02265870 eV
  Three-body potentials      =           0.48913532 eV
  Monopole - monopole (real) =       -6613.55039457 eV
  Monopole - monopole (recip)=       -3171.17983959 eV
  Monopole - monopole (total)=       -9784.73023416 eV
  Neutralising energy        =          -6.45971188 eV
--------------------------------------------------------------------------------
  Total lattice energy       =       -7726.67815202 eV
--------------------------------------------------------------------------------
  Total lattice energy       =         -745506.3286 kJ/(mole unit cells)
--------------------------------------------------------------------------------

  Final fractional coordinates of atoms :

--------------------------------------------------------------------------------
   No.  Atomic        x           y          z          Radius
        Label       (Frac)      (Frac)     (Frac)       (Angs) 
--------------------------------------------------------------------------------
     1  Ge    c     0.699600    0.375700    0.033890    0.000000
     2  Si    c     0.598769    0.297736    0.367275    0.000000
     3  Si    c     0.653499    0.291700    0.698997    0.000000
     4  Si    c     0.278494    0.598734    0.530216    0.000000
     5  Si    c     0.362233    0.662537    0.860532    0.000000
     6  Si    c     0.303114    0.687427    0.195361    0.000000
     7  Si    c     0.349179    0.674419    0.296635    0.000000
     8  Si    c     0.305743    0.610236    0.960930    0.000000
     9  Si    c     0.294913    0.669047    0.632392    0.000000
    10  Si    c     0.601383    0.285145    0.799757    0.000000
    11  Si    c     0.654708    0.360397    0.467513    0.000000
    12  Si    c     0.672679    0.305157    0.132424    0.000000
    13  Si    c     0.516817    0.407647    0.967261    0.000000
    14  Si    c     0.556785    0.087475    0.302738    0.000000
    15  Si    c     0.866631    0.456536    0.637531    0.000000
    16  Si    c     0.445562    0.560287    0.463240    0.000000
    17  Si    c     0.403109    0.875418    0.795645    0.000000
    18  Si    c     0.094179    0.518570    0.127886    0.000000
    19  Si    c     0.391142    0.503275    0.361417    0.000000
    20  Si    c     0.092445    0.573279    0.024471    0.000000
    21  Si    c     0.462304    0.889343    0.694168    0.000000
    22  Si    c     0.566229    0.458278    0.864414    0.000000
    23  Si    c     0.863184    0.393862    0.534590    0.000000
    24  Si    c     0.511859    0.096424    0.200657    0.000000
    25  Si    c     0.284890    0.384991    0.847223    0.000000
    26  Si    c     0.583772    0.888551    0.184351    0.000000
    27  Si    c     0.074272    0.677320    0.517322    0.000000
    28  Si    c     0.671189    0.571678    0.347990    0.000000
    29  Si    c     0.379227    0.089603    0.681823    0.000000
    30  Si    c     0.880124    0.285968    0.009441    0.000000
    31  Si    c     0.374986    0.281565    0.480557    0.000000
    32  Si    c     0.879771    0.588902    0.142255    0.000000
    33  Si    c     0.683456    0.086572    0.811485    0.000000
    34  Si    c     0.583122    0.687992    0.977368    0.000000
    35  Ge    c     0.083962    0.399942    0.641476    0.000000
    36  Si    c     0.275668    0.876503    0.312647    0.000000
    37  Si    c     0.237753    0.331684    0.948350    0.000000
    38  Si    c     0.630260    0.885128    0.286053    0.000000
    39  Si    c     0.075020    0.736151    0.618941    0.000000
    40  Si    c     0.724599    0.638579    0.448212    0.000000
    41  Si    c     0.321881    0.074827    0.782704    0.000000
    42  Si    c     0.888798    0.238058    0.112999    0.000000
    43  Si    c     0.318173    0.227391    0.379614    0.000000
    44  Si    c     0.891674    0.657211    0.039686    0.000000
    45  Si    c     0.739788    0.092184    0.710458    0.000000
    46  Si    c     0.643509    0.736867    0.876656    0.000000
    47  Si    c     0.066094    0.312241    0.545797    0.000000
    48  Si    c     0.231436    0.894606    0.211532    0.000000
    49  Si    c     0.959995    0.113013    0.961675    0.000000
    50  Ge    c     0.851827    0.822725    0.297421    0.000000
    51  Si    c     0.128858    0.015005    0.631493    0.000000
    52  Si    c     0.004569    0.854824    0.464532    0.000000
    53  Si    c     0.104778    0.136639    0.795998    0.000000
    54  Si    c     0.829578    0.960752    0.130178    0.000000
    55  Si    c     0.101468    0.947700    0.363784    0.000000
    56  Si    c     0.831371    0.874053    0.028354    0.000000
    57  Si    c     0.019407    0.149346    0.694272    0.000000
    58  Si    c     0.863246    0.014969    0.861412    0.000000
    59  Si    c     0.126403    0.098792    0.529130    0.000000
    60  Si    c     0.953665    0.837404    0.193805    0.000000
    61  O2    c     0.912565    0.997486    0.997325    0.000000
    62  O3    c     0.983232    0.913738    0.331194    0.000000
    63  O2    c     0.046544    0.054817    0.662717    0.000000
    64  O2    c     0.048717    0.976583    0.496588    0.000000
    65  O2    c     0.982540    0.056733    0.828222    0.000000
    66  O2    c     0.916030    0.920649    0.160541    0.000000
    67  O2    c     0.311670    0.548847    0.328172    0.000000
    68  O2    c     0.423233    0.770198    0.659627    0.000000
    69  O2    c     0.218338    0.647611    0.992871    0.000000
    70  O2    c     0.641233    0.405935    0.833216    0.000000
    71  O2    c     0.564852    0.226048    0.170756    0.000000
    72  O2    c     0.736967    0.322524    0.502015    0.000000
    73  O3    c     0.561293    0.332896    0.999863    0.000000
    74  O2    c     0.737878    0.417500    0.666914    0.000000
    75  O2    c     0.635082    0.209111    0.336411    0.000000
    76  O2    c     0.396352    0.636551    0.495320    0.000000
    77  O2    c     0.219531    0.568400    0.160699    0.000000
    78  O2    c     0.325663    0.747474    0.826681    0.000000
    79  O2    c     0.113313    0.203299    0.968388    0.000000
    80  O3    c     0.752439    0.884570    0.307995    0.000000
    81  O2    c     0.075168    0.861971    0.637979    0.000000
    82  O2    c     0.849891    0.766192    0.468170    0.000000
    83  O2    c     0.194964    0.072446    0.802732    0.000000
    84  O2    c     0.891026    0.114605    0.134733    0.000000
    85  O2    c     0.194731    0.100961    0.359179    0.000000
    86  O2    c     0.905983    0.793915    0.024551    0.000000
    87  O2    c     0.865024    0.096345    0.688992    0.000000
    88  O2    c     0.770839    0.861344    0.856486    0.000000
    89  O2    c     0.065058    0.190575    0.520748    0.000000
    90  O2    c     0.108164    0.898936    0.190220    0.000000
    91  O3    c     0.908987    0.848645    0.243111    0.000000
    92  O2    c     0.109899    0.043925    0.579548    0.000000
    93  O2    c     0.920509    0.053256    0.911919    0.000000
    94  O2    c     0.052527    0.123945    0.745287    0.000000
    95  O2    c     0.833890    0.921618    0.079163    0.000000
    96  O2    c     0.048422    0.905734    0.414209    0.000000
    97  O2    c     0.892248    0.197139    0.971239    0.000000
    98  O3    c     0.767406    0.660327    0.308473    0.000000
    99  O2    c     0.281282    0.090313    0.643097    0.000000
   100  O2    c     0.070509    0.769746    0.477905    0.000000
   101  O2    c     0.187735    0.287502    0.808767    0.000000
   102  O2    c     0.680979    0.890047    0.146144    0.000000
   103  O2    c     0.177547    0.872734    0.351020    0.000000
   104  O2    c     0.680976    0.788481    0.015344    0.000000
   105  O3    c     0.096112    0.295627    0.682695    0.000000
   106  O2    c     0.780674    0.084817    0.850219    0.000000
   107  O2    c     0.279223    0.182448    0.518648    0.000000
   108  O2    c     0.884584    0.686537    0.181044    0.000000
   109  O2    c     0.297444    0.623100    0.245094    0.000000
   110  O2    c     0.336747    0.657165    0.580049    0.000000
   111  O2    c     0.302785    0.665174    0.910194    0.000000
   112  O2    c     0.655678    0.346425    0.749630    0.000000
   113  O3    c     0.606993    0.298507    0.084896    0.000000
   114  O2    c     0.655389    0.299742    0.418119    0.000000
   115  O2    c     0.359172    0.322578    0.967555    0.000000
   116  O2    c     0.641787    0.016935    0.304707    0.000000
   117  O2    c     0.943176    0.613596    0.636375    0.000000
   118  O2    c     0.601918    0.647927    0.466204    0.000000
   119  O2    c     0.314469    0.942581    0.799711    0.000000
   120  O2    c     0.021200    0.363121    0.130050    0.000000
   121  O2    c     0.305711    0.347372    0.359824    0.000000
   122  O2    c     0.024257    0.660887    0.024063    0.000000
   123  O2    c     0.617874    0.959714    0.691963    0.000000
   124  O2    c     0.652728    0.613815    0.859498    0.000000
   125  O2    c     0.932029    0.307571    0.530307    0.000000
   126  O2    c     0.355885    0.027036    0.194958    0.000000
   127  O3    c     0.746908    0.279840    0.001529    0.000000
   128  O2    c     0.673101    0.438330    0.343379    0.000000
   129  O2    c     0.511092    0.225772    0.675385    0.000000
   130  O2    c     0.204694    0.671650    0.510404    0.000000
   131  O2    c     0.287063    0.519640    0.838176    0.000000
   132  O2    c     0.447649    0.757961    0.174433    0.000000
   133  O2    c     0.272395    0.740485    0.318712    0.000000
   134  O2    c     0.448733    0.688876    0.984096    0.000000
   135  O3    c     0.236275    0.533980    0.657092    0.000000
   136  O2    c     0.678165    0.216503    0.820902    0.000000
   137  O2    c     0.511488    0.287333    0.489336    0.000000
   138  O2    c     0.749117    0.454201    0.151139    0.000000
   139  O3    c     0.767064    0.543461    0.017756    0.000000
   140  O2    c     0.443284    0.224827    0.361428    0.000000
   141  O2    c     0.731860    0.215035    0.692104    0.000000
   142  O2    c     0.190222    0.444061    0.527147    0.000000
   143  O2    c     0.518578    0.738253    0.856175    0.000000
   144  O2    c     0.228084    0.768421    0.191063    0.000000
   145  O2    c     0.504087    0.756784    0.303696    0.000000
   146  O2    c     0.231638    0.454837    0.967442    0.000000
   147  O2    c     0.200586    0.731314    0.635663    0.000000
   148  O2    c     0.445508    0.200358    0.803689    0.000000
   149  O2    c     0.730062    0.516569    0.469319    0.000000
   150  O2    c     0.765961    0.241474    0.132734    0.000000
   151  O2    c     0.214754    0.313450    0.893978    0.000000
   152  O2    c     0.652638    0.884344    0.231597    0.000000
   153  O2    c     0.074493    0.745763    0.564043    0.000000
   154  O2    c     0.743416    0.654493    0.393505    0.000000
   155  O2    c     0.303273    0.079461    0.728219    0.000000
   156  O2    c     0.886819    0.223796    0.058601    0.000000
   157  O2    c     0.301377    0.210509    0.434010    0.000000
   158  O2    c     0.881211    0.658360    0.095182    0.000000
   159  O2    c     0.757073    0.090841    0.765116    0.000000
   160  O2    c     0.659735    0.756934    0.931139    0.000000
   161  O3    c     0.073290    0.288862    0.598283    0.000000
   162  O2    c     0.207722    0.886711    0.265904    0.000000
   163  O2    c     0.567246    0.550057    0.988680    0.000000
   164  O2    c     0.414231    0.000060    0.324006    0.000000
   165  O3    c     0.945995    0.400149    0.662772    0.000000
   166  O2    c     0.387693    0.420620    0.487512    0.000000
   167  O2    c     0.545058    0.958995    0.818624    0.000000
   168  O2    c     0.003273    0.569750    0.147923    0.000000
   169  O2    c     0.531531    0.557810    0.338198    0.000000
   170  O2    c     0.000199    0.432167    0.003745    0.000000
   171  O2    c     0.398203    0.968228    0.671275    0.000000
   172  O2    c     0.425006    0.399424    0.840581    0.000000
   173  O2    c     0.952169    0.535473    0.513036    0.000000
   174  O2    c     0.573378    0.016698    0.177743    0.000000
   175  O2    c     0.558464    0.144860    0.252389    0.000000
   176  O2    c     0.818839    0.398907    0.585838    0.000000
   177  O2    c     0.568964    0.411161    0.915825    0.000000
   178  O2    c     0.405064    0.828520    0.743973    0.000000
   179  O2    c     0.138652    0.566980    0.076404    0.000000
   180  O2    c     0.392205    0.558835    0.411918    0.000000
   181  F     c     0.427016    0.881778    0.248458    0.000000
   182  F     c     0.078150    0.501659    0.592672    0.000000
   183  F     c     0.432250    0.541171    0.912713    0.000000
   184  F     c     0.530296    0.089535    0.745911    0.000000
   185  F     c     0.845805    0.429382    0.069939    0.000000
   186  F     c     0.526682    0.431499    0.414203    0.000000
   187  O2    s     0.908567    0.996379    0.996854    0.000000
   188  O3    s     0.984671    0.909461    0.331806    0.000000
   189  O2    s     0.053119    0.059936    0.662389    0.000000
   190  O2    s     0.052302    0.976238    0.496542    0.000000
   191  O2    s     0.982578    0.060864    0.828416    0.000000
   192  O2    s     0.910556    0.915981    0.160814    0.000000
   193  O2    s     0.323516    0.557007    0.328317    0.000000
   194  O2    s     0.413508    0.771539    0.660221    0.000000
   195  O2    s     0.213608    0.636039    0.993066    0.000000
   196  O2    s     0.629373    0.398732    0.832926    0.000000
   197  O2    s     0.570370    0.220451    0.169965    0.000000
   198  O2    s     0.741592    0.333941    0.501815    0.000000
   199  O3    s     0.566330    0.344077    0.998758    0.000000
   200  O2    s     0.742581    0.409024    0.667108    0.000000
   201  O2    s     0.623239    0.205654    0.336114    0.000000
   202  O2    s     0.389243    0.624860    0.495638    0.000000
   203  O2    s     0.214844    0.575196    0.160772    0.000000
   204  O2    s     0.337441    0.752069    0.826926    0.000000
   205  O2    s     0.109331    0.206549    0.965655    0.000000
   206  O3    s     0.748257    0.879503    0.304914    0.000000
   207  O2    s     0.080688    0.864308    0.635308    0.000000
   208  O2    s     0.853474    0.762497    0.465749    0.000000
   209  O2    s     0.198684    0.079396    0.799982    0.000000
   210  O2    s     0.884339    0.111235    0.132027    0.000000
   211  O2    s     0.197955    0.098060    0.361837    0.000000
   212  O2    s     0.896570    0.788304    0.026515    0.000000
   213  O2    s     0.867067    0.101203    0.691796    0.000000
   214  O2    s     0.767512    0.864807    0.859064    0.000000
   215  O2    s     0.071597    0.193002    0.524043    0.000000
   216  O2    s     0.104707    0.891987    0.192800    0.000000
   217  O3    s     0.908798    0.845130    0.242539    0.000000
   218  O2    s     0.113892    0.046998    0.579510    0.000000
   219  O2    s     0.918602    0.055768    0.911941    0.000000
   220  O2    s     0.055004    0.128120    0.745682    0.000000
   221  O2    s     0.833116    0.920881    0.079446    0.000000
   222  O2    s     0.049353    0.904581    0.414343    0.000000
   223  O2    s     0.898321    0.197519    0.974275    0.000000
   224  O3    s     0.765171    0.665186    0.311325    0.000000
   225  O2    s     0.275050    0.082261    0.645785    0.000000
   226  O2    s     0.063959    0.768861    0.480696    0.000000
   227  O2    s     0.189053    0.281713    0.811403    0.000000
   228  O2    s     0.686599    0.897377    0.148441    0.000000
   229  O2    s     0.179651    0.880966    0.348398    0.000000
   230  O2    s     0.687364    0.787592    0.012915    0.000000
   231  O3    s     0.086737    0.286238    0.681254    0.000000
   232  O2    s     0.779516    0.077588    0.847461    0.000000
   233  O2    s     0.273196    0.183990    0.515791    0.000000
   234  O2    s     0.891343    0.692292    0.178390    0.000000
   235  O2    s     0.303231    0.634779    0.245271    0.000000
   236  O2    s     0.326667    0.652153    0.579803    0.000000
   237  O2    s     0.309014    0.659310    0.910403    0.000000
   238  O2    s     0.649890    0.334483    0.749497    0.000000
   239  O3    s     0.619819    0.304064    0.086762    0.000000
   240  O2    s     0.649522    0.305724    0.417923    0.000000
   241  O2    s     0.361510    0.332054    0.965404    0.000000
   242  O2    s     0.631532    0.010502    0.302510    0.000000
   243  O2    s     0.949619    0.610968    0.634610    0.000000
   244  O2    s     0.598651    0.637919    0.464000    0.000000
   245  O2    s     0.324333    0.949609    0.797496    0.000000
   246  O2    s     0.015157    0.366436    0.128064    0.000000
   247  O2    s     0.315844    0.351015    0.362058    0.000000
   248  O2    s     0.018155    0.651432    0.025674    0.000000
   249  O2    s     0.614113    0.966112    0.694149    0.000000
   250  O2    s     0.642900    0.610783    0.861805    0.000000
   251  O2    s     0.938188    0.317045    0.532307    0.000000
   252  O2    s     0.358768    0.020153    0.197306    0.000000
   253  O3    s     0.758116    0.286861    0.004594    0.000000
   254  O2    s     0.665136    0.437668    0.346403    0.000000
   255  O2    s     0.511804    0.218185    0.678523    0.000000
   256  O2    s     0.198281    0.664777    0.513191    0.000000
   257  O2    s     0.294546    0.520291    0.841445    0.000000
   258  O2    s     0.446781    0.764178    0.177657    0.000000
   259  O2    s     0.280598    0.747865    0.315771    0.000000
   260  O2    s     0.447913    0.680783    0.981016    0.000000
   261  O3    s     0.231827    0.538804    0.653379    0.000000
   262  O2    s     0.670822    0.209840    0.817705    0.000000
   263  O2    s     0.511932    0.294355    0.486098    0.000000
   264  O2    s     0.755705    0.454255    0.148371    0.000000
   265  O3    s     0.776524    0.545172    0.021135    0.000000
   266  O2    s     0.446086    0.232902    0.363994    0.000000
   267  O2    s     0.724410    0.209659    0.694754    0.000000
   268  O2    s     0.186952    0.447189    0.529360    0.000000
   269  O2    s     0.515926    0.730164    0.858827    0.000000
   270  O2    s     0.236346    0.773505    0.193683    0.000000
   271  O2    s     0.501237    0.761955    0.301072    0.000000
   272  O2    s     0.239950    0.457911    0.964804    0.000000
   273  O2    s     0.195884    0.725559    0.633505    0.000000
   274  O2    s     0.448541    0.195621    0.801038    0.000000
   275  O2    s     0.721583    0.513378    0.466883    0.000000
   276  O2    s     0.770254    0.247532    0.130528    0.000000
   277  O2    s     0.224523    0.322914    0.894806    0.000000
   278  O2    s     0.643179    0.884796    0.232222    0.000000
   279  O2    s     0.074522    0.737345    0.564714    0.000000
   280  O2    s     0.734244    0.644618    0.394574    0.000000
   281  O2    s     0.313234    0.080034    0.729045    0.000000
   282  O2    s     0.886380    0.231416    0.059682    0.000000
   283  O2    s     0.310925    0.219815    0.433081    0.000000
   284  O2    s     0.882033    0.650583    0.094862    0.000000
   285  O2    s     0.747522    0.090536    0.764245    0.000000
   286  O2    s     0.650020    0.747623    0.930207    0.000000
   287  O3    s     0.073173    0.298583    0.595454    0.000000
   288  O2    s     0.217179    0.886455    0.265062    0.000000
   289  O2    s     0.563652    0.550976    0.985256    0.000000
   290  O2    s     0.414271    0.995753    0.320538    0.000000
   291  O3    s     0.948015    0.406164    0.658637    0.000000
   292  O2    s     0.392525    0.420282    0.484232    0.000000
   293  O2    s     0.545086    0.964145    0.815438    0.000000
   294  O2    s     0.999691    0.566208    0.145167    0.000000
   295  O2    s     0.531763    0.553465    0.341652    0.000000
   296  O2    s     0.997752    0.432547    0.006590    0.000000
   297  O2    s     0.402935    0.973141    0.674773    0.000000
   298  O2    s     0.424584    0.404161    0.843781    0.000000
   299  O2    s     0.956436    0.536273    0.515787    0.000000
   300  O2    s     0.567963    0.011107    0.180834    0.000000
   301  O2    s     0.553364    0.133760    0.252240    0.000000
   302  O2    s     0.828259    0.403910    0.585333    0.000000
   303  O2    s     0.563446    0.415892    0.915490    0.000000
   304  O2    s     0.410720    0.839589    0.744150    0.000000
   305  O2    s     0.129264    0.562461    0.076656    0.000000
   306  O2    s     0.397611    0.553308    0.412033    0.000000
   307  F     s     0.426677    0.881300    0.248448    0.000000
   308  F     s     0.078611    0.495031    0.595680    0.000000
   309  F     s     0.431655    0.541882    0.912707    0.000000
   310  F     s     0.530326    0.090045    0.745774    0.000000
   311  F     s     0.834896    0.425497    0.067396    0.000000
   312  F     s     0.527126    0.431567    0.414163    0.000000
--------------------------------------------------------------------------------

  Final Cartesian lattice vectors (Angstroms) :

       11.966190    0.006749   -0.015829
       -6.005034   10.396717    0.022366
       -0.305887    0.045989   29.388658


  Final cell parameters and derivatives :

--------------------------------------------------------------------------------
       a           11.966202 Angstrom     dE/de1(xx)     0.001024 eV/strain
       b           12.006359 Angstrom     dE/de2(yy)     0.000718 eV/strain
       c           29.390286 Angstrom     dE/de3(zz)     0.002081 eV/strain
       alpha       89.517381 Degrees      dE/de4(yz)    -0.000089 eV/strain
       beta        90.672074 Degrees      dE/de5(xz)    -0.000058 eV/strain
       gamma      119.978037 Degrees      dE/de6(xy)     0.000279 eV/strain
--------------------------------------------------------------------------------

  Primitive cell volume =          3657.348884 Angs**3

  Density of cell =      1.749380 g/cm**3

  Non-primitive cell volume =          3657.348884 Angs**3


  Final internal derivatives :

--------------------------------------------------------------------------------
   No.  Atomic          a             b             c           Radius
        Label          (eV)          (eV)          (eV)        (eV/Angs)
--------------------------------------------------------------------------------
      1 Ge    c       0.000000      0.000000      0.000000      0.000000
      2 Si    c       0.000061      0.000316      0.000152      0.000000
      3 Si    c       0.000322     -0.000311      0.000890      0.000000
      4 Si    c      -0.000311      0.000132     -0.000672      0.000000
      5 Si    c       0.000278      0.000120     -0.000195      0.000000
      6 Si    c       0.000245     -0.000096     -0.001425      0.000000
      7 Si    c       0.000488      0.000730      0.000383      0.000000
      8 Si    c       0.000499      0.000016      0.000390      0.000000
      9 Si    c      -0.000907     -0.000205      0.000923      0.000000
     10 Si    c       0.000135     -0.000339     -0.000041      0.000000
     11 Si    c      -0.000134      0.000018     -0.000499      0.000000
     12 Si    c       0.001117      0.000423      0.009497      0.000000
     13 Si    c      -0.000929     -0.001079     -0.001470      0.000000
     14 Si    c       0.000179      0.000219      0.000519      0.000000
     15 Si    c       0.000182      0.000035     -0.000154      0.000000
     16 Si    c       0.000433     -0.000001     -0.000257      0.000000
     17 Si    c      -0.000102      0.000062     -0.000101      0.000000
     18 Si    c       0.000397      0.000297     -0.000042      0.000000
     19 Si    c       0.000355      0.000340      0.000437      0.000000
     20 Si    c       0.000668     -0.000249      0.000691      0.000000
     21 Si    c      -0.000393     -0.000286      0.000757      0.000000
     22 Si    c       0.000006      0.000006     -0.000111      0.000000
     23 Si    c       0.000527      0.000005     -0.000478      0.000000
     24 Si    c      -0.000147     -0.000401      0.000142      0.000000
     25 Si    c       0.000247      0.000065      0.000383      0.000000
     26 Si    c       0.000163      0.000067     -0.000565      0.000000
     27 Si    c       0.000358     -0.000125     -0.000046      0.000000
     28 Si    c       0.000274      0.000430      0.000072      0.000000
     29 Si    c       0.000355     -0.000665      0.001291      0.000000
     30 Si    c       0.002491      0.000758      0.000683      0.000000
     31 Si    c       0.000150     -0.000060     -0.000069      0.000000
     32 Si    c       0.000331     -0.000005     -0.001531      0.000000
     33 Si    c      -0.000116     -0.000072     -0.000479      0.000000
     34 Si    c       0.000679     -0.000296     -0.000436      0.000000
     35 Ge    c      -0.000415      0.000228      0.000005      0.000000
     36 Si    c       0.000249      0.000532      0.000512      0.000000
     37 Si    c       0.000198     -0.000224     -0.000497      0.000000
     38 Si    c       0.000030      0.000366     -0.000050      0.000000
     39 Si    c       0.000128     -0.000345      0.000311      0.000000
     40 Si    c       0.000247      0.000154     -0.000022      0.000000
     41 Si    c       0.000256     -0.000177     -0.000264      0.000000
     42 Si    c       0.000671      0.000460      0.000231      0.000000
     43 Si    c       0.000112      0.000268      0.000318      0.000000
     44 Si    c       0.000687     -0.000162     -0.002659      0.000000
     45 Si    c      -0.000489     -0.000242      0.000516      0.000000
     46 Si    c       0.000347     -0.000075      0.000130      0.000000
     47 Si    c      -0.000146      0.000667     -0.000992      0.000000
     48 Si    c       0.000552      0.000072     -0.000517      0.000000
     49 Si    c       0.000426     -0.000036     -0.000551      0.000000
     50 Ge    c       0.000334      0.000027      0.000705      0.000000
     51 Si    c       0.000039     -0.000226      0.001466      0.000000
     52 Si    c       0.000322      0.000179      0.000200      0.000000
     53 Si    c       0.000015      0.000244      0.000518      0.000000
     54 Si    c       0.000293     -0.000240      0.000099      0.000000
     55 Si    c       0.000488      0.000323     -0.000279      0.000000
     56 Si    c       0.000609     -0.000342      0.000288      0.000000
     57 Si    c      -0.000255      0.000225      0.000605      0.000000
     58 Si    c       0.000344      0.000096     -0.000483      0.000000
     59 Si    c       0.000628     -0.000074     -0.000709      0.000000
     60 Si    c       0.000579     -0.000184     -0.003478      0.000000
     61 O2    c       0.000677     -0.001033      0.000709      0.000000
     62 O3    c       0.000046      0.000475      0.000902      0.000000
     63 O2    c       0.000350      0.000141      0.000581      0.000000
     64 O2    c      -0.000017     -0.000035      0.000220      0.000000
     65 O2    c       0.000102      0.000359      0.000007      0.000000
     66 O2    c       0.000257     -0.000089     -0.000676      0.000000
     67 O2    c       0.000307      0.000088      0.001122      0.000000
     68 O2    c      -0.000020      0.000052      0.001450      0.000000
     69 O2    c       0.000968      0.000129      0.000825      0.000000
     70 O2    c       0.000209      0.000132     -0.000428      0.000000
     71 O2    c      -0.000013     -0.000531      0.001374      0.000000
     72 O2    c       0.000169     -0.000253     -0.000363      0.000000
     73 O3    c       0.000730     -0.002215      0.001184      0.000000
     74 O2    c      -0.000054     -0.000429     -0.000685      0.000000
     75 O2    c       0.000130      0.000516     -0.000416      0.000000
     76 O2    c       0.000643      0.000322     -0.000136      0.000000
     77 O2    c      -0.000015     -0.000207     -0.000325      0.000000
     78 O2    c       0.000137      0.000029      0.000257      0.000000
     79 O2    c       0.000395     -0.000172     -0.000231      0.000000
     80 O3    c      -0.000091      0.001277      0.000665      0.000000
     81 O2    c      -0.000143     -0.000518      0.000602      0.000000
     82 O2    c       0.000426      0.000040     -0.000063      0.000000
     83 O2    c       0.000335     -0.000049      0.000014      0.000000
     84 O2    c       0.000048      0.000093     -0.000061      0.000000
     85 O2    c       0.000184      0.000359      0.000230      0.000000
     86 O2    c       0.001719     -0.000409     -0.000614      0.000000
     87 O2    c      -0.000910     -0.000352     -0.000019      0.000000
     88 O2    c       0.000200      0.000108      0.000536      0.000000
     89 O2    c      -0.000008      0.000146     -0.000439      0.000000
     90 O2    c       0.000581      0.000154     -0.000592      0.000000
     91 O3    c       0.000378      0.000973      0.002938      0.000000
     92 O2    c       0.000246      0.000804     -0.003656      0.000000
     93 O2    c      -0.000056     -0.000122     -0.001530      0.000000
     94 O2    c       0.000320      0.000166      0.000849      0.000000
     95 O2    c       0.000771      0.000071      0.002389      0.000000
     96 O2    c       0.000374      0.000180      0.001680      0.000000
     97 O2    c      -0.000077      0.000429      0.000445      0.000000
     98 O3    c       0.000153      0.000058      0.000898      0.000000
     99 O2    c       0.001050     -0.000283      0.000947      0.000000
    100 O2    c       0.000347      0.000255     -0.000068      0.000000
    101 O2    c       0.000180      0.000315      0.000644      0.000000
    102 O2    c       0.000400     -0.000160     -0.000261      0.000000
    103 O2    c       0.000218      0.000212     -0.000097      0.000000
    104 O2    c      -0.000026     -0.000686      0.000092      0.000000
    105 O3    c      -0.000321      0.000542     -0.001173      0.000000
    106 O2    c      -0.000044     -0.000074     -0.000429      0.000000
    107 O2    c       0.000344     -0.000034     -0.000271      0.000000
    108 O2    c       0.000267     -0.000627     -0.001548      0.000000
    109 O2    c       0.000142      0.000104      0.000557      0.000000
    110 O2    c       0.000127      0.000498      0.000616      0.000000
    111 O2    c       0.000595     -0.000070      0.000430      0.000000
    112 O2    c       0.000408     -0.000596     -0.000187      0.000000
    113 O3    c      -0.002567     -0.000762     -0.000810      0.000000
    114 O2    c      -0.000060      0.000136     -0.000759      0.000000
    115 O2    c      -0.000061     -0.000331      0.000071      0.000000
    116 O2    c       0.000077      0.000481      0.000000      0.000000
    117 O2    c       0.000151     -0.000246      0.000127      0.000000
    118 O2    c       0.000342      0.000024      0.000075      0.000000
    119 O2    c       0.000061     -0.000280      0.000130      0.000000
    120 O2    c       0.000176      0.000321     -0.000186      0.000000
    121 O2    c       0.000342      0.000483      0.000288      0.000000
    122 O2    c       0.000722      0.001463     -0.000587      0.000000
    123 O2    c      -0.000438     -0.000237      0.000270      0.000000
    124 O2    c       0.000134      0.000190     -0.000003      0.000000
    125 O2    c       0.000037      0.000216      0.000228      0.000000
    126 O2    c       0.000315      0.000012     -0.000147      0.000000
    127 O3    c       0.002999     -0.001759     -0.004231      0.000000
    128 O2    c       0.000036      0.000390      0.000334      0.000000
    129 O2    c       0.000294     -0.000639      0.000253      0.000000
    130 O2    c       0.000575      0.000191      0.000294      0.000000
    131 O2    c       0.000305      0.000100      0.000390      0.000000
    132 O2    c       0.000075     -0.000052      0.000280      0.000000
    133 O2    c       0.000398      0.000392      0.000325      0.000000
    134 O2    c       0.000684     -0.000324      0.000309      0.000000
    135 O3    c      -0.000746     -0.000071      0.000811      0.000000
    136 O2    c       0.000038      0.000063     -0.000219      0.000000
    137 O2    c       0.000145      0.000060     -0.000306      0.000000
    138 O2    c       0.000491      0.000389      0.000558      0.000000
    139 O3    c      -0.000535     -0.000496      0.000093      0.000000
    140 O2    c       0.000076      0.000353      0.000166      0.000000
    141 O2    c       0.000014     -0.000631      0.000355      0.000000
    142 O2    c      -0.000208      0.000357     -0.000038      0.000000
    143 O2    c       0.000272     -0.000021     -0.000071      0.000000
    144 O2    c       0.000462     -0.000258     -0.000206      0.000000
    145 O2    c       0.000308      0.000588      0.000232      0.000000
    146 O2    c       0.000416     -0.000088      0.000452      0.000000
    147 O2    c       0.000056     -0.000057      0.000383      0.000000
    148 O2    c       0.000235      0.000019      0.000150      0.000000
    149 O2    c       0.000023      0.000271     -0.000064      0.000000
    150 O2    c       0.000494     -0.000581      0.000444      0.000000
    151 O2    c       0.000226     -0.000086      0.000070      0.000000
    152 O2    c       0.000416      0.000354      0.001110      0.000000
    153 O2    c       0.000181      0.000111      0.000733      0.000000
    154 O2    c       0.000165      0.000182      0.000477      0.000000
    155 O2    c       0.000121     -0.000339      0.000438      0.000000
    156 O2    c       0.000182     -0.000287     -0.000278      0.000000
    157 O2    c       0.000142      0.000154     -0.000417      0.000000
    158 O2    c       0.000597      0.001385      0.005616      0.000000
    159 O2    c      -0.000306     -0.000184     -0.000262      0.000000
    160 O2    c       0.000544     -0.000364      0.000086      0.000000
    161 O3    c      -0.000785     -0.000175      0.001477      0.000000
    162 O2    c       0.000092      0.000103     -0.000280      0.000000
    163 O2    c       0.000387      0.000347     -0.000248      0.000000
    164 O2    c       0.000231      0.000469     -0.000199      0.000000
    165 O3    c      -0.001164     -0.000341      0.001237      0.000000
    166 O2    c       0.000194      0.000112     -0.000230      0.000000
    167 O2    c      -0.000260     -0.000026     -0.000140      0.000000
    168 O2    c       0.000818     -0.000072     -0.000169      0.000000
    169 O2    c       0.000277      0.000378      0.000693      0.000000
    170 O2    c       0.001486     -0.000262     -0.001068      0.000000
    171 O2    c      -0.000126     -0.000791      0.000468      0.000000
    172 O2    c       0.000192      0.000101      0.000105      0.000000
    173 O2    c       0.000351     -0.000065     -0.000041      0.000000
    174 O2    c       0.000205      0.000445     -0.000557      0.000000
    175 O2    c       0.000427      0.000438     -0.000001      0.000000
    176 O2    c      -0.000255     -0.000334     -0.000346      0.000000
    177 O2    c       0.000194     -0.000184     -0.000782      0.000000
    178 O2    c      -0.000301     -0.000108      0.000097      0.000000
    179 O2    c       0.000892      0.000416      0.002270      0.000000
    180 O2    c       0.000310      0.000211      0.000025      0.000000
    181 F     c       0.000340      0.000252      0.000371      0.000000
    182 F     c      -0.000154     -0.000026      0.000241      0.000000
    183 F     c       0.000472     -0.000224      0.000158      0.000000
    184 F     c      -0.000123     -0.000579      0.000116      0.000000
    185 F     c      -0.000919      0.000449     -0.003500      0.000000
    186 F     c       0.000019      0.000168      0.000035      0.000000
    187 O2    s       0.000109      0.000079     -0.000697      0.000000
    188 O3    s      -0.000268      0.000742      0.000978      0.000000
    189 O2    s       0.000382     -0.000029      0.001233      0.000000
    190 O2    s      -0.000088      0.000166     -0.000359      0.000000
    191 O2    s      -0.000033      0.000580      0.000147      0.000000
    192 O2    s      -0.000010      0.000177      0.000438      0.000000
    193 O2    s       0.000481      0.000240      0.001005      0.000000
    194 O2    s       0.000206     -0.000656      0.001516      0.000000
    195 O2    s       0.001339     -0.000367     -0.000463      0.000000
    196 O2    s      -0.000001      0.000276     -0.000394      0.000000
    197 O2    s       0.000571      0.000251      0.002286      0.000000
    198 O2    s      -0.000068      0.000229     -0.000265      0.000000
    199 O3    s       0.002204      0.000452      0.003173      0.000000
    200 O2    s      -0.000404     -0.000020     -0.000514      0.000000
    201 O2    s       0.000065      0.000579     -0.000055      0.000000
    202 O2    s       0.000795     -0.000027     -0.000342      0.000000
    203 O2    s       0.000111     -0.000077      0.000284      0.000000
    204 O2    s       0.000385     -0.000161      0.000526      0.000000
    205 O2    s       0.000191      0.000167     -0.000875      0.000000
    206 O3    s      -0.000003      0.001012      0.000894      0.000000
    207 O2    s      -0.000720     -0.000286      0.000808      0.000000
    208 O2    s       0.000350      0.000036     -0.000196      0.000000
    209 O2    s       0.000049      0.000229     -0.000354      0.000000
    210 O2    s      -0.000236      0.000478      0.000111      0.000000
    211 O2    s       0.000139      0.000423      0.000095      0.000000
    212 O2    s       0.001294     -0.000228     -0.002164      0.000000
    213 O2    s      -0.000409     -0.000979      0.001263      0.000000
    214 O2    s       0.000025      0.000413      0.000671      0.000000
    215 O2    s       0.000482      0.000151     -0.000165      0.000000
    216 O2    s       0.000822      0.000073      0.000929      0.000000
    217 O3    s       0.000933      0.000543      0.000758      0.000000
    218 O2    s       0.000241      0.001093     -0.002056      0.000000
    219 O2    s      -0.000345      0.000334     -0.000750      0.000000
    220 O2    s       0.000452      0.000151      0.000491      0.000000
    221 O2    s      -0.000155      0.000978      0.001349      0.000000
    222 O2    s       0.000573      0.000360      0.000849      0.000000
    223 O2    s       0.000716      0.000529      0.000078      0.000000
    224 O3    s       0.000218      0.000383      0.000735      0.000000
    225 O2    s       0.000539     -0.000010      0.001834      0.000000
    226 O2    s       0.000296      0.000241     -0.000319      0.000000
    227 O2    s       0.000379      0.000124      0.000032      0.000000
    228 O2    s       0.000108      0.000186      0.000165      0.000000
    229 O2    s       0.000344      0.000363     -0.000571      0.000000
    230 O2    s      -0.000381     -0.000458     -0.000785      0.000000
    231 O3    s       0.000007     -0.000071      0.002140      0.000000
    232 O2    s       0.000132     -0.000244      0.000013      0.000000
    233 O2    s       0.000064      0.000307     -0.000282      0.000000
    234 O2    s       0.000551     -0.000468     -0.000844      0.000000
    235 O2    s       0.000334      0.000447     -0.000836      0.000000
    236 O2    s       0.000595     -0.000210      0.000581      0.000000
    237 O2    s       0.001178     -0.000385      0.000152      0.000000
    238 O2    s       0.000003     -0.000414     -0.000409      0.000000
    239 O3    s       0.002710      0.000792      0.003087      0.000000
    240 O2    s      -0.000177      0.000281     -0.000342      0.000000
    241 O2    s      -0.000240      0.000046     -0.001015      0.000000
    242 O2    s       0.000103      0.000483     -0.000531      0.000000
    243 O2    s      -0.000760      0.000289     -0.000511      0.000000
    244 O2    s       0.000317      0.000045     -0.000514      0.000000
    245 O2    s      -0.000085     -0.000238      0.000099      0.000000
    246 O2    s       0.000530     -0.000068      0.000737      0.000000
    247 O2    s       0.000366      0.000382      0.000539      0.000000
    248 O2    s       0.000726      0.000506     -0.002302      0.000000
    249 O2    s      -0.000180     -0.000929      0.001112      0.000000
    250 O2    s       0.000195      0.000114      0.000932      0.000000
    251 O2    s       0.000340      0.000057      0.000016      0.000000
    252 O2    s       0.000558      0.000165      0.001191      0.000000
    253 O3    s       0.000861      0.000540      0.000372      0.000000
    254 O2    s       0.000092      0.000447      0.000357      0.000000
    255 O2    s      -0.000086     -0.000329      0.001067      0.000000
    256 O2    s       0.000293      0.000227     -0.001163      0.000000
    257 O2    s       0.000477      0.000102      0.000841      0.000000
    258 O2    s       0.000222     -0.000280      0.000861      0.000000
    259 O2    s       0.000433      0.000604     -0.000269      0.000000
    260 O2    s       0.000880     -0.000503     -0.000653      0.000000
    261 O3    s      -0.000172     -0.000735     -0.000556      0.000000
    262 O2    s       0.000145     -0.000014      0.000433      0.000000
    263 O2    s      -0.000017      0.000200     -0.000288      0.000000
    264 O2    s      -0.000014     -0.000362      0.000152      0.000000
    265 O3    s      -0.000501     -0.000463     -0.002473      0.000000
    266 O2    s       0.000080      0.000537      0.000444      0.000000
    267 O2    s      -0.000678     -0.000701      0.001875      0.000000
    268 O2    s       0.000644     -0.000414      0.000081      0.000000
    269 O2    s       0.000315      0.000015      0.001446      0.000000
    270 O2    s       0.000759     -0.000278      0.001102      0.000000
    271 O2    s       0.000447      0.000717     -0.000586      0.000000
    272 O2    s       0.000707     -0.000164     -0.001110      0.000000
    273 O2    s      -0.000376      0.000009      0.000202      0.000000
    274 O2    s      -0.000044      0.000455     -0.000457      0.000000
    275 O2    s      -0.000012      0.000259     -0.000170      0.000000
    276 O2    s       0.000011     -0.000061      0.000888      0.000000
    277 O2    s       0.000371     -0.000058      0.000343      0.000000
    278 O2    s       0.000315      0.000517      0.000123      0.000000
    279 O2    s      -0.000427      0.000618      0.000205      0.000000
    280 O2    s       0.000155      0.000521      0.000178      0.000000
    281 O2    s      -0.000236     -0.000053      0.000069      0.000000
    282 O2    s       0.000687      0.000149     -0.000082      0.000000
    283 O2    s       0.000072      0.000321     -0.000012      0.000000
    284 O2    s       0.001259      0.000895      0.004012      0.000000
    285 O2    s       0.000039     -0.000734      0.000269      0.000000
    286 O2    s       0.000373      0.000035      0.000058      0.000000
    287 O3    s       0.000378      0.000070     -0.002129      0.000000
    288 O2    s       0.000393      0.000308     -0.000606      0.000000
    289 O2    s       0.001061     -0.000462      0.000186      0.000000
    290 O2    s       0.000148      0.000807     -0.000399      0.000000
    291 O3    s      -0.000728     -0.000043     -0.000843      0.000000
    292 O2    s       0.000220      0.000123     -0.000176      0.000000
    293 O2    s       0.000015     -0.000442     -0.000052      0.000000
    294 O2    s       0.000536     -0.000322     -0.000229      0.000000
    295 O2    s       0.000235      0.000754      0.000372      0.000000
    296 O2    s       0.002290     -0.001550     -0.001399      0.000000
    297 O2    s      -0.000196     -0.000712      0.000928      0.000000
    298 O2    s       0.000118      0.000141      0.000550      0.000000
    299 O2    s      -0.000150      0.000380     -0.000404      0.000000
    300 O2    s       0.000342      0.000441      0.000482      0.000000
    301 O2    s       0.000496      0.000355      0.000014      0.000000
    302 O2    s      -0.000778      0.000493      0.000011      0.000000
    303 O2    s       0.000027     -0.000128     -0.000603      0.000000
    304 O2    s      -0.000194     -0.000491      0.000215      0.000000
    305 O2    s       0.001336      0.000133      0.001355      0.000000
    306 O2    s       0.000582      0.000253     -0.000132      0.000000
    307 F     s       0.000446      0.000273      0.000763      0.000000
    308 F     s      -0.000180     -0.000238      0.000458      0.000000
    309 F     s       0.000424     -0.000055      0.000096      0.000000
    310 F     s      -0.000234     -0.000835      0.000498      0.000000
    311 F     s      -0.002494      0.000362     -0.005398      0.000000
    312 F     s      -0.000024      0.000223      0.000105      0.000000
--------------------------------------------------------------------------------
  Maximum abs         0.002999      0.002215      0.009497      0.000000
--------------------------------------------------------------------------------


  Time to end of optimisation =      52.0477 seconds


  Peak dynamic memory used =      19.13 MB 


  Timing analysis for GULP :

--------------------------------------------------------------------------------
  Task / Subroutine                                          Time (Seconds)
--------------------------------------------------------------------------------
  Calculation of reciprocal space energy and derivatives          1.3772
  Calculation of real space energy and derivatives               45.2476
  Calculation of three-body energy and derivatives                4.5538
  Calculation of matrix inversion                                 0.7467
  Global summation overhead                                       0.0001
--------------------------------------------------------------------------------
  Total CPU time                                                 52.0478
--------------------------------------------------------------------------------


  Dump file written as out.res                                                 
  CIF file written as out.cif                                                 


  Job Finished at 21:39.30  8th November   2016                               

