********************************************************************************
*                       GENERAL UTILITY LATTICE PROGRAM                        *
*                                 Julian Gale                                  *
*                      Nanochemistry Research Institute                        *
*                           Department of Chemistry                            *
*                    Curtin University, Western Australia                      *
********************************************************************************
* Version = 4.2.0 * Last modified =  20th January 2014                         *
********************************************************************************
*  optimise     - perform optimisation run                                     *
*  conp         - constant pressure calculation                                *
*  qok          - running with non charge neutral cell is OK                   *
********************************************************************************

  Job Started  at 08:32.56 11th November   2016                               

  Number of CPUs =     1


  Total number of configurations input =   1

********************************************************************************
*  Input for Configuration =   1                                               *
********************************************************************************

  Formula = Ge3Si57O120F6                                               

  Number of irreducible atoms/shells =     312


  Total number atoms/shells =     312

  Dimensionality = 3               :  Bulk   


  Charge on solid   =  -6.000000 =>neutralising background added


  Cartesian lattice vectors (Angstroms) :

       11.987700    0.000000    0.000000
       -6.053110   10.354740    0.000000
       -0.127836    0.016660   29.493302

  Cell parameters (Angstroms/Degrees):

  a =      11.9877    alpha =  89.8467
  b =      11.9942    beta  =  90.2483
  c =      29.4936    gamma = 120.3094

  Initial cell volume =        3660.989474 Angs**3

  Temperature of configuration =  0.000     K 

  Pressure of configuration =         0.000 GPa 

  Fractional coordinates of asymmetric unit :

--------------------------------------------------------------------------------
   No.  Atomic       x           y          z         Charge      Occupancy
        Label      (Frac)      (Frac)     (Frac)        (e)         (Frac)  
--------------------------------------------------------------------------------
      1 Ge    c    0.699600    0.375700    0.033890     4.00000    1.000000    
      2 Si    c    0.622037 *  0.324367 *  0.367038 *   4.00000    1.000000    
      3 Si    c    0.674570 *  0.299556 *  0.699039 *   4.00000    1.000000    
      4 Si    c    0.296367 *  0.619755 *  0.531940 *   4.00000    1.000000    
      5 Si    c    0.381652 *  0.675128 *  0.865535 *   4.00000    1.000000    
      6 Si    c    0.322291 *  0.704817 *  0.200336 *   4.00000    1.000000    
      7 Si    c    0.376846 *  0.700962 *  0.300693 *   4.00000    1.000000    
      8 Si    c    0.328233 *  0.617417 *  0.965555 *   4.00000    1.000000    
      9 Si    c    0.298526 *  0.678526 *  0.631935 *   4.00000    1.000000    
     10 Si    c    0.624732 *  0.297686 *  0.799950 *   4.00000    1.000000    
     11 Si    c    0.676856 *  0.379766 *  0.467589 *   4.00000    1.000000    
     12 Si    c    0.694918 *  0.321176 *  0.135225 *   4.00000    1.000000    
     13 Si    c    0.527746 *  0.408428 *  0.965898 *   4.00000    1.000000    
     14 Si    c    0.583304 *  0.111725 *  0.303642 *   4.00000    1.000000    
     15 Si    c    0.885199 *  0.469305 *  0.633868 *   4.00000    1.000000    
     16 Si    c    0.468891 *  0.583265 *  0.466650 *   4.00000    1.000000    
     17 Si    c    0.418535 *  0.885693 *  0.800480 *   4.00000    1.000000    
     18 Si    c    0.113279 *  0.532399 *  0.133810 *   4.00000    1.000000    
     19 Si    c    0.417231 *  0.529351 *  0.365017 *   4.00000    1.000000    
     20 Si    c    0.118031 *  0.585556 *  0.029999 *   4.00000    1.000000    
     21 Si    c    0.464577 *  0.886514 *  0.698623 *   4.00000    1.000000    
     22 Si    c    0.583937 *  0.467580 *  0.864374 *   4.00000    1.000000    
     23 Si    c    0.886651 *  0.415435 *  0.532553 *   4.00000    1.000000    
     24 Si    c    0.530295 *  0.111957 *  0.202284 *   4.00000    1.000000    
     25 Si    c    0.303658 *  0.398052 *  0.849515 *   4.00000    1.000000    
     26 Si    c    0.602167 *  0.905173 *  0.186449 *   4.00000    1.000000    
     27 Si    c    0.094861 *  0.696092 *  0.516716 *   4.00000    1.000000    
     28 Si    c    0.697963 *  0.601509 *  0.351427 *   4.00000    1.000000    
     29 Si    c    0.395372 *  0.096970 *  0.685851 *   4.00000    1.000000    
     30 Si    c    0.901720 *  0.300195 *  0.015739 *   4.00000    1.000000    
     31 Si    c    0.398239 *  0.302927 *  0.480961 *   4.00000    1.000000    
     32 Si    c    0.899467 *  0.604511 *  0.148641 *   4.00000    1.000000    
     33 Si    c    0.701853 *  0.096530 *  0.813362 *   4.00000    1.000000    
     34 Si    c    0.605487 *  0.691754 *  0.981113 *   4.00000    1.000000    
     35 Si    c    0.096543 *  0.401538 *  0.648760 *   4.00000    1.000000    
     36 Si    c    0.300992 *  0.901736 *  0.316446 *   4.00000    1.000000    
     37 Si    c    0.250424 *  0.336349 *  0.949507 *   4.00000    1.000000    
     38 Si    c    0.659558 *  0.910685 *  0.287187 *   4.00000    1.000000    
     39 Si    c    0.088265 *  0.747312 *  0.617106 *   4.00000    1.000000    
     40 Si    c    0.747806 *  0.660301 *  0.452011 *   4.00000    1.000000    
     41 Si    c    0.342257 *  0.088052 *  0.786782 *   4.00000    1.000000    
     42 Si    c    0.910020 *  0.251044 *  0.118306 *   4.00000    1.000000    
     43 Si    c    0.340703 *  0.251060 *  0.380455 *   4.00000    1.000000    
     44 Ge    c    0.908169 *  0.654169 *  0.046372 *   4.00000    1.000000    
     45 Si    c    0.743884 *  0.089507 *  0.712305 *   4.00000    1.000000    
     46 Si    c    0.662035 *  0.745958 *  0.880443 *   4.00000    1.000000    
     47 Si    c    0.087184 *  0.338046 *  0.548660 *   4.00000    1.000000    
     48 Si    c    0.249827 *  0.911916 *  0.215875 *   4.00000    1.000000    
     49 Si    c    0.970978 *  0.120410 *  0.966397 *   4.00000    1.000000    
     50 Si    c    0.877731 *  0.849672 *  0.300876 *   4.00000    1.000000    
     51 Si    c    0.149667 *  0.026193 *  0.632609 *   4.00000    1.000000    
     52 Si    c    0.028325 *  0.878248 *  0.466790 *   4.00000    1.000000    
     53 Si    c    0.124012 *  0.146894 *  0.801401 *   4.00000    1.000000    
     54 Si    c    0.847412 *  0.970446 *  0.134078 *   4.00000    1.000000    
     55 Si    c    0.121869 *  0.970491 *  0.365988 *   4.00000    1.000000    
     56 Si    c    0.853178 *  0.879102 *  0.032953 *   4.00000    1.000000    
     57 Ge    c    0.026446 *  0.149194 *  0.698735 *   4.00000    1.000000    
     58 Si    c    0.879195 *  0.026317 *  0.865564 *   4.00000    1.000000    
     59 Si    c    0.150749 *  0.121733 *  0.531913 *   4.00000    1.000000    
     60 Si    c    0.970315 *  0.851031 *  0.200058 *   4.00000    1.000000    
     61 O2    c    0.925556 *  0.005095 *  0.001589 *   0.87073    1.000000    
     62 O2    c    0.001051 *  0.929273 *  0.332909 *   0.87073    1.000000    
     63 O3    c    0.062698 *  0.060923 *  0.662491 *   1.33043    1.000000    
     64 O2    c    0.070635 *  0.000723 *  0.498875 *   0.87073    1.000000    
     65 O2    c    0.004770 *  0.069956 *  0.835313 *   0.87073    1.000000    
     66 O2    c    0.929190 *  0.929777 *  0.166412 *   0.87073    1.000000    
     67 O2    c    0.339158 *  0.576685 *  0.332586 *   0.87073    1.000000    
     68 O2    c    0.419777 *  0.763690 *  0.665315 *   0.87073    1.000000    
     69 O2    c    0.246953 *  0.656442 *  0.999438 *   0.87073    1.000000    
     70 O2    c    0.662787 *  0.420766 *  0.832462 *   0.87073    1.000000    
     71 O2    c    0.581189 *  0.239683 *  0.171320 *   0.87073    1.000000    
     72 O2    c    0.760086 *  0.339639 *  0.500206 *   0.87073    1.000000    
     73 O3    c    0.566401 *  0.326558 *  0.997714 *   1.33043    1.000000    
     74 O2    c    0.759694 *  0.422420 *  0.666034 *   0.87073    1.000000    
     75 O2    c    0.660595 *  0.237756 *  0.335705 *   0.87073    1.000000    
     76 O2    c    0.418470 *  0.658141 *  0.498807 *   0.87073    1.000000    
     77 O2    c    0.237566 *  0.582847 *  0.166775 *   0.87073    1.000000    
     78 O2    c    0.343616 *  0.760915 *  0.833226 *   0.87073    1.000000    
     79 O2    c    0.125785 *  0.208932 *  0.969905 *   0.87073    1.000000    
     80 O2    c    0.785886 *  0.911126 *  0.307335 *   0.87073    1.000000    
     81 O2    c    0.088868 *  0.872342 *  0.637387 *   0.87073    1.000000    
     82 O2    c    0.873869 *  0.787322 *  0.472186 *   0.87073    1.000000    
     83 O2    c    0.217626 *  0.087207 *  0.808291 *   0.87073    1.000000    
     84 O2    c    0.909542 *  0.125604 *  0.138838 *   0.87073    1.000000    
     85 O2    c    0.214395 *  0.124525 *  0.360128 *   0.87073    1.000000    
     86 O3    c    0.927790 *  0.803682 *  0.028197 *   1.33043    1.000000    
     87 O3    c    0.863475 *  0.085762 *  0.690400 *   1.33043    1.000000    
     88 O2    c    0.787930 *  0.872139 *  0.859801 *   0.87073    1.000000    
     89 O2    c    0.086127 *  0.211551 *  0.528560 *   0.87073    1.000000    
     90 O2    c    0.125283 *  0.915170 *  0.195767 *   0.87073    1.000000    
     91 O2    c    0.928594 *  0.865840 *  0.250002 *   0.87073    1.000000    
     92 O2    c    0.142596 *  0.067083 *  0.581596 *   0.87073    1.000000    
     93 O2    c    0.924723 *  0.061958 *  0.916903 *   0.87073    1.000000    
     94 O3    c    0.065835 *  0.122163 *  0.751718 *   1.33043    1.000000    
     95 O2    c    0.855264 *  0.930218 *  0.083572 *   0.87073    1.000000    
     96 O2    c    0.067811 *  0.931568 *  0.416286 *   0.87073    1.000000    
     97 O2    c    0.907744 *  0.207621 *  0.977481 *   0.87073    1.000000    
     98 O2    c    0.796326 *  0.697748 *  0.312862 *   0.87073    1.000000    
     99 O2    c    0.299720 *  0.100635 *  0.647606 *   0.87073    1.000000    
    100 O2    c    0.096682 *  0.795009 *  0.478475 *   0.87073    1.000000    
    101 O2    c    0.206082 *  0.300905 *  0.810672 *   0.87073    1.000000    
    102 O2    c    0.697022 *  0.902268 *  0.148018 *   0.87073    1.000000    
    103 O2    c    0.202844 *  0.899740 *  0.354646 *   0.87073    1.000000    
    104 O2    c    0.701480 *  0.786592 *  0.020209 *   0.87073    1.000000    
    105 O3    c    0.103089 *  0.312391 *  0.688241 *   1.33043    1.000000    
    106 O2    c    0.800342 *  0.097484 *  0.851483 *   0.87073    1.000000    
    107 O2    c    0.301766 *  0.205537 *  0.519306 *   0.87073    1.000000    
    108 O2    c    0.903358 *  0.698764 *  0.189263 *   0.87073    1.000000    
    109 O2    c    0.320528 *  0.644743 *  0.250154 *   0.87073    1.000000    
    110 O2    c    0.356043 *  0.679872 *  0.581720 *   0.87073    1.000000    
    111 O2    c    0.323911 *  0.674779 *  0.915657 *   0.87073    1.000000    
    112 O2    c    0.679024 *  0.356476 *  0.749583 *   0.87073    1.000000    
    113 O3    c    0.628836 *  0.311949 *  0.087089 *   1.33043    1.000000    
    114 O2    c    0.678319 *  0.324214 *  0.417349 *   0.87073    1.000000    
    115 O2    c    0.370760 *  0.323476 *  0.966794 *   0.87073    1.000000    
    116 O2    c    0.670226 *  0.042723 *  0.305928 *   0.87073    1.000000    
    117 O2    c    0.955411 *  0.625676 *  0.635766 *   0.87073    1.000000    
    118 O2    c    0.625524 *  0.670730 *  0.469808 *   0.87073    1.000000    
    119 O2    c    0.332541 *  0.955294 *  0.804326 *   0.87073    1.000000    
    120 O2    c    0.041124 *  0.376091 *  0.136401 *   0.87073    1.000000    
    121 O2    c    0.330178 *  0.372846 *  0.361874 *   0.87073    1.000000    
    122 O3    c    0.055063 *  0.674636 *  0.027038 *   1.33043    1.000000    
    123 O2    c    0.620056 *  0.956159 *  0.695392 *   0.87073    1.000000    
    124 O2    c    0.670620 *  0.624116 *  0.861204 *   0.87073    1.000000    
    125 O2    c    0.954930 *  0.327901 *  0.529693 *   0.87073    1.000000    
    126 O2    c    0.374101 *  0.043601 *  0.197809 *   0.87073    1.000000    
    127 O3    c    0.766106 *  0.290280 *  0.008261 *   1.33043    1.000000    
    128 O2    c    0.697320 *  0.467239 *  0.344098 *   0.87073    1.000000    
    129 O2    c    0.529683 *  0.231250 *  0.677739 *   0.87073    1.000000    
    130 O2    c    0.227405 *  0.693547 *  0.509169 *   0.87073    1.000000    
    131 O2    c    0.306434 *  0.533260 *  0.841656 *   0.87073    1.000000    
    132 O2    c    0.465579 *  0.773202 *  0.178072 *   0.87073    1.000000    
    133 O2    c    0.300803 *  0.767487 *  0.323062 *   0.87073    1.000000    
    134 O2    c    0.471866 *  0.693176 *  0.987760 *   0.87073    1.000000    
    135 O2    c    0.231420 *  0.535988 *  0.654400 *   0.87073    1.000000    
    136 O2    c    0.701001 *  0.229840 *  0.821520 *   0.87073    1.000000    
    137 O2    c    0.532641 *  0.304514 *  0.489164 *   0.87073    1.000000    
    138 O2    c    0.767013 *  0.467661 *  0.155458 *   0.87073    1.000000    
    139 O1    c    0.769571 *  0.540817 *  0.021040 *   1.73396    1.000000    
    140 O2    c    0.465860 *  0.249603 *  0.361289 *   0.87073    1.000000    
    141 O2    c    0.746782 *  0.217091 *  0.693087 *   0.87073    1.000000    
    142 O2    c    0.214807 *  0.463058 *  0.529015 *   0.87073    1.000000    
    143 O2    c    0.538076 *  0.750766 *  0.861443 *   0.87073    1.000000    
    144 O2    c    0.246182 *  0.784582 *  0.195944 *   0.87073    1.000000    
    145 O2    c    0.532996 *  0.783987 *  0.306068 *   0.87073    1.000000    
    146 O2    c    0.250144 *  0.460987 *  0.970195 *   0.87073    1.000000    
    147 O2    c    0.215800 *  0.750852 *  0.636355 *   0.87073    1.000000    
    148 O2    c    0.468957 *  0.214538 *  0.805785 *   0.87073    1.000000    
    149 O2    c    0.749447 *  0.535927 *  0.472131 *   0.87073    1.000000    
    150 O2    c    0.786719 *  0.257385 *  0.135842 *   0.87073    1.000000    
    151 O2    c    0.229228 *  0.321926 *  0.895178 *   0.87073    1.000000    
    152 O2    c    0.676136 *  0.908591 *  0.232895 *   0.87073    1.000000    
    153 O2    c    0.090085 *  0.766095 *  0.562810 *   0.87073    1.000000    
    154 O2    c    0.768128 *  0.677139 *  0.397728 *   0.87073    1.000000    
    155 O2    c    0.322231 *  0.092264 *  0.732545 *   0.87073    1.000000    
    156 O2    c    0.910828 *  0.239951 *  0.064126 *   0.87073    1.000000    
    157 O2    c    0.323294 *  0.231723 *  0.434671 *   0.87073    1.000000    
    158 O3    c    0.903344 *  0.682300 *  0.104596 *   1.33043    1.000000    
    159 O2    c    0.771510 *  0.095243 *  0.766525 *   0.87073    1.000000    
    160 O2    c    0.681169 *  0.761910 *  0.934777 *   0.87073    1.000000    
    161 O2    c    0.087546 *  0.320515 *  0.603178 *   0.87073    1.000000    
    162 O2    c    0.231490 *  0.908723 *  0.270166 *   0.87073    1.000000    
    163 O2    c    0.583675 *  0.549598 *  0.989392 *   0.87073    1.000000    
    164 O2    c    0.441576 *  0.025586 *  0.326170 *   0.87073    1.000000    
    165 O2    c    0.970598 *  0.414524 *  0.657387 *   0.87073    1.000000    
    166 O2    c    0.411725 *  0.441880 *  0.489455 *   0.87073    1.000000    
    167 O2    c    0.562457 *  0.970045 *  0.821860 *   0.87073    1.000000    
    168 O2    c    0.022566 *  0.584276 *  0.153386 *   0.87073    1.000000    
    169 O2    c    0.558695 *  0.587519 *  0.342008 *   0.87073    1.000000    
    170 O2    c    0.023599 *  0.443996 *  0.008441 *   0.87073    1.000000    
    171 O2    c    0.405909 *  0.970223 *  0.676521 *   0.87073    1.000000    
    172 O2    c    0.442457 *  0.410421 *  0.841127 *   0.87073    1.000000    
    173 O2    c    0.969257 *  0.555835 *  0.508451 *   0.87073    1.000000    
    174 O2    c    0.590768 *  0.032269 *  0.178355 *   0.87073    1.000000    
    175 O2    c    0.582628 *  0.164797 *  0.253024 *   0.87073    1.000000    
    176 O2    c    0.832642 *  0.414845 *  0.583090 *   0.87073    1.000000    
    177 O2    c    0.583755 *  0.414791 *  0.915016 *   0.87073    1.000000    
    178 O2    c    0.412809 *  0.831877 *  0.749381 *   0.87073    1.000000    
    179 O2    c    0.159663 *  0.579491 *  0.082441 *   0.87073    1.000000    
    180 O2    c    0.416799 *  0.582937 *  0.415589 *   0.87073    1.000000    
    181 F     c    0.450426 *  0.903598 *  0.250575 *   0.56000    1.000000    
    182 F     c    0.094505 *  0.545531 *  0.582372 *   0.56000    1.000000    
    183 F     c    0.449827 *  0.545765 *  0.914276 *   0.56000    1.000000    
    184 F     c    0.548095 *  0.096609 *  0.749170 *   0.56000    1.000000    
    185 F     c    0.875992 *  0.462892 *  0.073860 *   0.56000    1.000000    
    186 F     c    0.547872 *  0.452485 *  0.415728 *   0.56000    1.000000    
    187 O2    s    0.922761 *  0.004517 *  0.000986 *  -2.87073    1.000000    
    188 O2    s    0.000711 *  0.924930 *  0.333013 *  -2.87073    1.000000    
    189 O3    s    0.069060 *  0.064787 *  0.662374 *  -3.33043    1.000000    
    190 O2    s    0.074788 *  0.000447 *  0.498947 *  -2.87073    1.000000    
    191 O2    s    0.003775 *  0.073545 *  0.834982 *  -2.87073    1.000000    
    192 O2    s    0.924737 *  0.925625 *  0.166564 *  -2.87073    1.000000    
    193 O2    s    0.351034 *  0.584701 *  0.332593 *  -2.87073    1.000000    
    194 O2    s    0.411748 *  0.767487 *  0.665263 *  -2.87073    1.000000    
    195 O2    s    0.241619 *  0.644945 *  0.999194 *  -2.87073    1.000000    
    196 O2    s    0.650837 *  0.412854 *  0.832360 *  -2.87073    1.000000    
    197 O2    s    0.587777 *  0.234775 *  0.170776 *  -2.87073    1.000000    
    198 O2    s    0.764420 *  0.351542 *  0.500130 *  -2.87073    1.000000    
    199 O3    s    0.572251 *  0.338531 *  0.997147 *  -3.33043    1.000000    
    200 O2    s    0.763893 *  0.414725 *  0.666106 *  -2.87073    1.000000    
    201 O2    s    0.648638 *  0.233517 *  0.335582 *  -2.87073    1.000000    
    202 O2    s    0.411197 *  0.646469 *  0.498880 *  -2.87073    1.000000    
    203 O2    s    0.233041 *  0.589866 *  0.166709 *  -2.87073    1.000000    
    204 O2    s    0.355295 *  0.765120 *  0.833134 *  -2.87073    1.000000    
    205 O2    s    0.122029 *  0.212619 *  0.967428 *  -2.87073    1.000000    
    206 O2    s    0.782464 *  0.904589 *  0.304590 *  -2.87073    1.000000    
    207 O2    s    0.095318 *  0.875437 *  0.634734 *  -2.87073    1.000000    
    208 O2    s    0.877217 *  0.783815 *  0.469550 *  -2.87073    1.000000    
    209 O2    s    0.220790 *  0.093538 *  0.805362 *  -2.87073    1.000000    
    210 O2    s    0.903206 *  0.122841 *  0.136216 *  -2.87073    1.000000    
    211 O2    s    0.217631 *  0.121231 *  0.362826 *  -2.87073    1.000000    
    212 O3    s    0.918279 *  0.801262 *  0.029979 *  -3.33043    1.000000    
    213 O3    s    0.864959 *  0.091413 *  0.693286 *  -3.33043    1.000000    
    214 O2    s    0.784671 *  0.875548 *  0.862516 *  -2.87073    1.000000    
    215 O2    s    0.093057 *  0.215057 *  0.530962 *  -2.87073    1.000000    
    216 O2    s    0.121883 *  0.908097 *  0.198274 *  -2.87073    1.000000    
    217 O2    s    0.927556 *  0.862345 *  0.250114 *  -2.87073    1.000000    
    218 O2    s    0.144333 *  0.068820 *  0.581558 *  -2.87073    1.000000    
    219 O2    s    0.924807 *  0.064554 *  0.916679 *  -2.87073    1.000000    
    220 O3    s    0.068606 *  0.127187 *  0.752399 *  -3.33043    1.000000    
    221 O2    s    0.854129 *  0.929432 *  0.084038 *  -2.87073    1.000000    
    222 O2    s    0.069514 *  0.929982 *  0.416251 *  -2.87073    1.000000    
    223 O2    s    0.914011 *  0.208016 *  0.980338 *  -2.87073    1.000000    
    224 O2    s    0.794983 *  0.704111 *  0.315505 *  -2.87073    1.000000    
    225 O2    s    0.293656 *  0.092373 *  0.649967 *  -2.87073    1.000000    
    226 O2    s    0.089279 *  0.793738 *  0.481125 *  -2.87073    1.000000    
    227 O2    s    0.207319 *  0.294648 *  0.813578 *  -2.87073    1.000000    
    228 O2    s    0.703173 *  0.909808 *  0.150525 *  -2.87073    1.000000    
    229 O2    s    0.204372 *  0.907393 *  0.351920 *  -2.87073    1.000000    
    230 O2    s    0.707002 *  0.786190 *  0.017463 *  -2.87073    1.000000    
    231 O3    s    0.096174 *  0.307581 *  0.685302 *  -3.33043    1.000000    
    232 O2    s    0.798571 *  0.089842 *  0.849044 *  -2.87073    1.000000    
    233 O2    s    0.295625 *  0.206711 *  0.516647 *  -2.87073    1.000000    
    234 O2    s    0.910061 *  0.705490 *  0.186395 *  -2.87073    1.000000    
    235 O2    s    0.326394 *  0.656576 *  0.250162 *  -2.87073    1.000000    
    236 O2    s    0.344161 *  0.673632 *  0.581750 *  -2.87073    1.000000    
    237 O2    s    0.330157 *  0.668994 *  0.915624 *  -2.87073    1.000000    
    238 O2    s    0.673075 *  0.344710 *  0.749524 *  -2.87073    1.000000    
    239 O3    s    0.640605 *  0.317576 *  0.087995 *  -3.33043    1.000000    
    240 O2    s    0.672365 *  0.329934 *  0.417298 *  -2.87073    1.000000    
    241 O2    s    0.373660 *  0.333616 *  0.964784 *  -2.87073    1.000000    
    242 O2    s    0.660171 *  0.036012 *  0.303727 *  -2.87073    1.000000    
    243 O2    s    0.962066 *  0.622208 *  0.633600 *  -2.87073    1.000000    
    244 O2    s    0.622176 *  0.660652 *  0.467617 *  -2.87073    1.000000    
    245 O2    s    0.342433 *  0.962064 *  0.802075 *  -2.87073    1.000000    
    246 O2    s    0.034884 *  0.379159 *  0.134248 *  -2.87073    1.000000    
    247 O2    s    0.340244 *  0.376227 *  0.364146 *  -2.87073    1.000000    
    248 O3    s    0.050249 *  0.663940 *  0.028819 *  -3.33043    1.000000    
    249 O2    s    0.616664 *  0.962952 *  0.697561 *  -2.87073    1.000000    
    250 O2    s    0.660798 *  0.620813 *  0.863555 *  -2.87073    1.000000    
    251 O2    s    0.961631 *  0.337937 *  0.531962 *  -2.87073    1.000000    
    252 O2    s    0.377106 *  0.036761 *  0.200180 *  -2.87073    1.000000    
    253 O3    s    0.775356 *  0.297681 *  0.010996 *  -3.33043    1.000000    
    254 O2    s    0.689656 *  0.466622 *  0.347249 *  -2.87073    1.000000    
    255 O2    s    0.530590 *  0.224256 *  0.680826 *  -2.87073    1.000000    
    256 O2    s    0.220546 *  0.686244 *  0.512317 *  -2.87073    1.000000    
    257 O2    s    0.313795 *  0.533494 *  0.844935 *  -2.87073    1.000000    
    258 O2    s    0.465041 *  0.779947 *  0.181285 *  -2.87073    1.000000    
    259 O2    s    0.308619 *  0.774745 *  0.320035 *  -2.87073    1.000000    
    260 O2    s    0.470844 *  0.685175 *  0.984727 *  -2.87073    1.000000    
    261 O2    s    0.224114 *  0.536671 *  0.651384 *  -2.87073    1.000000    
    262 O2    s    0.693275 *  0.222921 *  0.818427 *  -2.87073    1.000000    
    263 O2    s    0.533349 *  0.312125 *  0.486036 *  -2.87073    1.000000    
    264 O2    s    0.773573 *  0.467189 *  0.152662 *  -2.87073    1.000000    
    265 O1    s    0.776132 *  0.538650 *  0.023918 *  -3.73396    1.000000    
    266 O2    s    0.468605 *  0.257624 *  0.363916 *  -2.87073    1.000000    
    267 O2    s    0.738767 *  0.212008 *  0.695754 *  -2.87073    1.000000    
    268 O2    s    0.209522 *  0.465986 *  0.531411 *  -2.87073    1.000000    
    269 O2    s    0.535098 *  0.742235 *  0.863908 *  -2.87073    1.000000    
    270 O2    s    0.254512 *  0.789931 *  0.198495 *  -2.87073    1.000000    
    271 O2    s    0.530443 *  0.789190 *  0.303484 *  -2.87073    1.000000    
    272 O2    s    0.258311 *  0.463934 *  0.967537 *  -2.87073    1.000000    
    273 O2    s    0.210489 *  0.742690 *  0.633797 *  -2.87073    1.000000    
    274 O2    s    0.471485 *  0.209363 *  0.803129 *  -2.87073    1.000000    
    275 O2    s    0.741582 *  0.533069 *  0.469508 *  -2.87073    1.000000    
    276 O2    s    0.790898 *  0.263329 *  0.133849 *  -2.87073    1.000000    
    277 O2    s    0.239187 *  0.331376 *  0.896137 *  -2.87073    1.000000    
    278 O2    s    0.666579 *  0.908445 *  0.233753 *  -2.87073    1.000000    
    279 O2    s    0.090377 *  0.756686 *  0.563690 *  -2.87073    1.000000    
    280 O2    s    0.758625 *  0.667433 *  0.398600 *  -2.87073    1.000000    
    281 O2    s    0.331893 *  0.092341 *  0.733328 *  -2.87073    1.000000    
    282 O2    s    0.909821 *  0.247314 *  0.065109 *  -2.87073    1.000000    
    283 O2    s    0.332997 *  0.241244 *  0.433740 *  -2.87073    1.000000    
    284 O3    s    0.903203 *  0.671999 *  0.104861 *  -3.33043    1.000000    
    285 O2    s    0.761564 *  0.094856 *  0.765844 *  -2.87073    1.000000    
    286 O2    s    0.671316 *  0.752948 *  0.933828 *  -2.87073    1.000000    
    287 O2    s    0.088344 *  0.330364 *  0.602105 *  -2.87073    1.000000    
    288 O2    s    0.240702 *  0.908336 *  0.269226 *  -2.87073    1.000000    
    289 O2    s    0.580080 *  0.550690 *  0.986090 *  -2.87073    1.000000    
    290 O2    s    0.441277 *  0.021088 *  0.322762 *  -2.87073    1.000000    
    291 O2    s    0.975260 *  0.419008 *  0.654008 *  -2.87073    1.000000    
    292 O2    s    0.416464 *  0.441764 *  0.486122 *  -2.87073    1.000000    
    293 O2    s    0.562424 *  0.975032 *  0.818689 *  -2.87073    1.000000    
    294 O2    s    0.019224 *  0.580694 *  0.150765 *  -2.87073    1.000000    
    295 O2    s    0.558889 *  0.582788 *  0.345414 *  -2.87073    1.000000    
    296 O2    s    0.020353 *  0.443571 *  0.011473 *  -2.87073    1.000000    
    297 O2    s    0.411059 *  0.975316 *  0.679849 *  -2.87073    1.000000    
    298 O2    s    0.442325 *  0.415219 *  0.844446 *  -2.87073    1.000000    
    299 O2    s    0.974402 *  0.556390 *  0.511839 *  -2.87073    1.000000    
    300 O2    s    0.585620 *  0.026761 *  0.181686 *  -2.87073    1.000000    
    301 O2    s    0.577166 *  0.153639 *  0.252992 *  -2.87073    1.000000    
    302 O2    s    0.843677 *  0.420524 *  0.583101 *  -2.87073    1.000000    
    303 O2    s    0.578143 *  0.419725 *  0.914836 *  -2.87073    1.000000    
    304 O2    s    0.418719 *  0.843033 *  0.749385 *  -2.87073    1.000000    
    305 O2    s    0.150580 *  0.575068 *  0.082669 *  -2.87073    1.000000    
    306 O2    s    0.422235 *  0.577430 *  0.415637 *  -2.87073    1.000000    
    307 F     s    0.450127 *  0.903173 *  0.250463 *  -1.56000    1.000000    
    308 F     s    0.094839 *  0.545571 *  0.582352 *  -1.56000    1.000000    
    309 F     s    0.449157 *  0.546116 *  0.914171 *  -1.56000    1.000000    
    310 F     s    0.548367 *  0.097074 *  0.749117 *  -1.56000    1.000000    
    311 F     s    0.871533 *  0.463963 *  0.072385 *  -1.56000    1.000000    
    312 F     s    0.548051 *  0.452289 *  0.415654 *  -1.56000    1.000000    
--------------------------------------------------------------------------------



********************************************************************************
*  General input information                                                   *
********************************************************************************

  Species output for all configurations : 

--------------------------------------------------------------------------------
  Species    Type    Atomic    Atomic    Charge       Radii (Angs)     Library
                     Number     Mass       (e)     Cova   Ionic  VDW   Symbol
--------------------------------------------------------------------------------
    Si       Core       14      28.09   4.000000   1.200  0.000  2.100          
    O1       Core        8      16.00   1.733957   0.730  0.000  1.360          
    O1       Shell       8       0.00  -3.733957   0.730  0.000  1.360          
    O2       Core        8      16.00   0.870733   0.730  0.000  1.360          
    O2       Shell       8       0.00  -2.870733   0.730  0.000  1.360          
    O3       Core        8      16.00   1.330431   0.730  0.000  1.360          
    O3       Shell       8       0.00  -3.330431   0.730  0.000  1.360          
    F        Core        9      19.00   0.560000   0.710  0.000  1.300          
    F        Shell       9       0.00  -1.560000   0.710  0.000  1.300          
    Ge       Core       32      72.61   4.000000   1.170  0.000  1.750          
--------------------------------------------------------------------------------


  Lattice summation method               =    Ewald          (3-D)
                                         =    Parry          (2-D)
                                         =    Saunders et al (1-D)
  Accuracy factor for lattice sums       =   12.000


  Time limit = Infinity

  Maximum range for interatomic potentials =        16.000000 Angstroms

  Taper potentials to zero over   1.0000 Angstroms using polynomial

  General interatomic potentials :

--------------------------------------------------------------------------------
Atom  Types   Potential         A         B         C         D     Cutoffs(Ang)
  1     2                                                            Min    Max 
--------------------------------------------------------------------------------
Si   c O1   s Buckingham    0.132E+04 0.318      10.1      0.00     0.000 16.000
Si   c O2   s Buckingham    0.132E+04 0.318      10.1      0.00     0.000 16.000
Si   c O3   s Buckingham    0.132E+04 0.318      10.1      0.00     0.000 16.000
Ge   c O1   s Buckingham    0.150E+04 0.326      16.8      0.00     0.000 16.000
Ge   c O2   s Buckingham    0.150E+04 0.326      16.8      0.00     0.000 16.000
Ge   c O3   s Buckingham    0.150E+04 0.326      16.8      0.00     0.000 16.000
O1   s O1   s Buckingham    0.228E+05 0.149      10.9      0.00     0.000 16.000
O1   s O2   s Buckingham    0.228E+05 0.149      10.9      0.00     0.000 16.000
O1   s O3   s Buckingham    0.228E+05 0.149      10.9      0.00     0.000 16.000
O2   s O2   s Buckingham    0.228E+05 0.149      10.9      0.00     0.000 16.000
O2   s O3   s Buckingham    0.228E+05 0.149      10.9      0.00     0.000 16.000
O3   s O3   s Buckingham    0.228E+05 0.149      10.9      0.00     0.000 16.000
Si   c F    s Buckingham     977.     0.282      0.00      0.00     0.000 16.000
Ge   c F    s Buckingham     681.     0.320      0.00      0.00     0.000 16.000
F    s F    s Buckingham     540.     0.262      0.00      0.00     0.000 16.000
O1   s F    s Buckingham    0.168E+04 0.268      0.00      0.00     0.000 16.000
O2   s F    s Buckingham    0.168E+04 0.268      0.00      0.00     0.000 16.000
O3   s F    s Buckingham    0.168E+04 0.268      0.00      0.00     0.000 16.000
O2   c O2   s Spring (c-s)   76.0      0.00      0.00      0.00     0.000  0.800
O3   c O3   s Spring (c-s)   128.      0.00      0.00      0.00     0.000  0.800
O1   c O1   s Spring (c-s)   180.      0.00      0.00      0.00     0.000  0.800
F    c F    s Spring (c-s)   33.5      0.00      0.00      0.00     0.000  0.800
--------------------------------------------------------------------------------

  General Three-body potentials :

  Harmonic form:

--------------------------------------------------------------------------------
Atom    Atom    Atom           Force Constants            Theta     Cutoffs  
  1       2       3     (eVrad**-2/eVrad**-3/eVrad**-4)   (deg)  1-2  1-3  2-3
--------------------------------------------------------------------------------
Si    c O1    s O1    s  1.261        0.0000    0.0000   109.470 0.00 0.00 0.00
                                                                 1.90 1.90 3.50
Si    c O1    s O2    s  1.261        0.0000    0.0000   109.470 0.00 0.00 0.00
                                                                 1.90 1.90 3.50
Si    c O2    s O2    s  1.261        0.0000    0.0000   109.470 0.00 0.00 0.00
                                                                 1.90 1.90 3.50
--------------------------------------------------------------------------------

********************************************************************************
*  Output for configuration   1                                                *
********************************************************************************


  Components of energy : 

--------------------------------------------------------------------------------
  Interatomic potentials     =        2060.84226947 eV
  Three-body potentials      =           0.44476442 eV
  Monopole - monopole (real) =       -6610.28316827 eV
  Monopole - monopole (recip)=       -3170.48203029 eV
  Monopole - monopole (total)=       -9780.76519856 eV
  Neutralising energy        =          -6.45756993 eV
--------------------------------------------------------------------------------
  Total lattice energy       =       -7725.93573461 eV
--------------------------------------------------------------------------------
  Total lattice energy       =         -745434.6966 kJ/(mole unit cells)
--------------------------------------------------------------------------------


  Number of variables =      939

  Maximum number of calculations  =          5000
  Maximum Hessian update interval =            10
  Maximum step size               =   0.100000000
  Maximum parameter tolerance     =   0.000010000
  Maximum function  tolerance     =   0.000010000
  Maximum gradient  tolerance     =   0.001000000
  Maximum gradient  component     =   0.010000000

  Symmetry not applied to optimisation

  Cell parameters to be optimised using strains

  Newton-Raphson optimiser to be used

  BFGS hessian update to be used

  Dumpfile to be written after every cycle

  Start of bulk optimisation :

  Cycle:      0 Energy:     -7725.935735  Gnorm:      0.004361  CPU:    2.015
  ** Hessian calculated **
  Cycle:      1 Energy:     -7725.935776  Gnorm:      0.001679  CPU:    5.295
  Cycle:      2 Energy:     -7725.935791  Gnorm:      0.001069  CPU:    8.197
  Cycle:      3 Energy:     -7725.935806  Gnorm:      0.000754  CPU:   11.098
  Cycle:      4 Energy:     -7725.935869  Gnorm:      0.001307  CPU:   16.817
  Cycle:      5 Energy:     -7725.935944  Gnorm:      0.002425  CPU:   21.140
  Cycle:      6 Energy:     -7725.936061  Gnorm:      0.004032  CPU:   26.167
  Cycle:      7 Energy:     -7725.936200  Gnorm:      0.005606  CPU:   30.483
  Cycle:      8 Energy:     -7725.936382  Gnorm:      0.007208  CPU:   34.797
  Cycle:      9 Energy:     -7725.936624  Gnorm:      0.008891  CPU:   39.122
  Cycle:     10 Energy:     -7725.936935  Gnorm:      0.010443  CPU:   43.439
  ** Hessian calculated **
  Cycle:     11 Energy:     -7725.937141  Gnorm:      0.004664  CPU:   48.041
  Cycle:     12 Energy:     -7725.937197  Gnorm:      0.003130  CPU:   50.946
  Cycle:     13 Energy:     -7725.937242  Gnorm:      0.002232  CPU:   53.848
  Cycle:     14 Energy:     -7725.937288  Gnorm:      0.001629  CPU:   56.752
  Cycle:     15 Energy:     -7725.937414  Gnorm:      0.002605  CPU:   61.759
  Cycle:     16 Energy:     -7725.937493  Gnorm:      0.003376  CPU:   65.372
  Cycle:     17 Energy:     -7725.937575  Gnorm:      0.004197  CPU:   69.687
  Cycle:     18 Energy:     -7725.937647  Gnorm:      0.004184  CPU:   73.296
  Cycle:     19 Energy:     -7725.937743  Gnorm:      0.003568  CPU:   77.609
  Cycle:     20 Energy:     -7725.937864  Gnorm:      0.002323  CPU:   81.924
  ** Hessian calculated **
  Cycle:     21 Energy:     -7725.937900  Gnorm:      0.001551  CPU:   86.524
  Cycle:     22 Energy:     -7725.937930  Gnorm:      0.001331  CPU:   89.426
  Cycle:     23 Energy:     -7725.938019  Gnorm:      0.001277  CPU:   94.441
  Cycle:     24 Energy:     -7725.938126  Gnorm:      0.001262  CPU:   98.788
  Cycle:     25 Energy:     -7725.938235  Gnorm:      0.001651  CPU:  103.112
  Cycle:     26 Energy:     -7725.938298  Gnorm:      0.001789  CPU:  106.718
  Cycle:     27 Energy:     -7725.938344  Gnorm:      0.001631  CPU:  110.321
  Cycle:     28 Energy:     -7725.938411  Gnorm:      0.001809  CPU:  114.627
  Cycle:     29 Energy:     -7725.938512  Gnorm:      0.002026  CPU:  118.936
  Cycle:     30 Energy:     -7725.938660  Gnorm:      0.002557  CPU:  123.242
  ** Hessian calculated **
  Cycle:     31 Energy:     -7725.938698  Gnorm:      0.002072  CPU:  127.832
  Cycle:     32 Energy:     -7725.938733  Gnorm:      0.001994  CPU:  130.734
  Cycle:     33 Energy:     -7725.938775  Gnorm:      0.001915  CPU:  133.636
  Cycle:     34 Energy:     -7725.938832  Gnorm:      0.001776  CPU:  136.538
  Cycle:     35 Energy:     -7725.939025  Gnorm:      0.001728  CPU:  141.545
  Cycle:     36 Energy:     -7725.939154  Gnorm:      0.001566  CPU:  145.149
  Cycle:     37 Energy:     -7725.939210  Gnorm:      0.001154  CPU:  148.752
  Cycle:     38 Energy:     -7725.939240  Gnorm:      0.001022  CPU:  151.654
  Cycle:     39 Energy:     -7725.939307  Gnorm:      0.001413  CPU:  156.663
  Cycle:     40 Energy:     -7725.939394  Gnorm:      0.001710  CPU:  160.970
  ** Hessian calculated **
  Cycle:     41 Energy:     -7725.939421  Gnorm:      0.001326  CPU:  165.562
  Cycle:     42 Energy:     -7725.939446  Gnorm:      0.001286  CPU:  168.465
  Cycle:     43 Energy:     -7725.939523  Gnorm:      0.001290  CPU:  173.474
  Cycle:     44 Energy:     -7725.939622  Gnorm:      0.001057  CPU:  177.781
  Cycle:     45 Energy:     -7725.939728  Gnorm:      0.001305  CPU:  182.087
  Cycle:     46 Energy:     -7725.939810  Gnorm:      0.001385  CPU:  185.692
  Cycle:     47 Energy:     -7725.939856  Gnorm:      0.001360  CPU:  189.297
  Cycle:     48 Energy:     -7725.939914  Gnorm:      0.001815  CPU:  193.604
  Cycle:     49 Energy:     -7725.940004  Gnorm:      0.001999  CPU:  197.910
  Cycle:     50 Energy:     -7725.940135  Gnorm:      0.002499  CPU:  202.217
  ** Hessian calculated **
  Cycle:     51 Energy:     -7725.940173  Gnorm:      0.002115  CPU:  206.809
  Cycle:     52 Energy:     -7725.940210  Gnorm:      0.002027  CPU:  209.711
  Cycle:     53 Energy:     -7725.940253  Gnorm:      0.001946  CPU:  212.614
  Cycle:     54 Energy:     -7725.940313  Gnorm:      0.001799  CPU:  215.516
  Cycle:     55 Energy:     -7725.940515  Gnorm:      0.001515  CPU:  220.525
  Cycle:     56 Energy:     -7725.940632  Gnorm:      0.001798  CPU:  224.127
  Cycle:     57 Energy:     -7725.940700  Gnorm:      0.001190  CPU:  227.730
  Cycle:     58 Energy:     -7725.940723  Gnorm:      0.001066  CPU:  230.631
  Cycle:     59 Energy:     -7725.940747  Gnorm:      0.001079  CPU:  233.531
  Cycle:     60 Energy:     -7725.940834  Gnorm:      0.001365  CPU:  238.537
  ** Hessian calculated **
  Cycle:     61 Energy:     -7725.940852  Gnorm:      0.001129  CPU:  243.128
  Cycle:     62 Energy:     -7725.940870  Gnorm:      0.001101  CPU:  246.028
  Cycle:     63 Energy:     -7725.940891  Gnorm:      0.001071  CPU:  248.927
  Cycle:     64 Energy:     -7725.940983  Gnorm:      0.001118  CPU:  254.632
  Cycle:     65 Energy:     -7725.941083  Gnorm:      0.001078  CPU:  258.935
  Cycle:     66 Energy:     -7725.941180  Gnorm:      0.001511  CPU:  263.237
  Cycle:     67 Energy:     -7725.941256  Gnorm:      0.001500  CPU:  266.839
  Cycle:     68 Energy:     -7725.941304  Gnorm:      0.001777  CPU:  270.440
  Cycle:     69 Energy:     -7725.941383  Gnorm:      0.002000  CPU:  274.742
  Cycle:     70 Energy:     -7725.941520  Gnorm:      0.002408  CPU:  279.045
  ** Hessian calculated **
  Cycle:     71 Energy:     -7725.941561  Gnorm:      0.002181  CPU:  283.634
  Cycle:     72 Energy:     -7725.941602  Gnorm:      0.002083  CPU:  286.534
  Cycle:     73 Energy:     -7725.941650  Gnorm:      0.001988  CPU:  289.434
  Cycle:     74 Energy:     -7725.941714  Gnorm:      0.001820  CPU:  292.334
  Cycle:     75 Energy:     -7725.941926  Gnorm:      0.001590  CPU:  297.339
  Cycle:     76 Energy:     -7725.942028  Gnorm:      0.001814  CPU:  300.940
  Cycle:     77 Energy:     -7725.942077  Gnorm:      0.001110  CPU:  303.839
  Cycle:     78 Energy:     -7725.942104  Gnorm:      0.001026  CPU:  306.740
  Cycle:     79 Energy:     -7725.942131  Gnorm:      0.001029  CPU:  309.640
  Cycle:     80 Energy:     -7725.942222  Gnorm:      0.001487  CPU:  314.644
  ** Hessian calculated **
  Cycle:     81 Energy:     -7725.942242  Gnorm:      0.001156  CPU:  319.234
  Cycle:     82 Energy:     -7725.942260  Gnorm:      0.001125  CPU:  322.133
  Cycle:     83 Energy:     -7725.942282  Gnorm:      0.001096  CPU:  325.033
  Cycle:     84 Energy:     -7725.942361  Gnorm:      0.001072  CPU:  330.038
  Cycle:     85 Energy:     -7725.942456  Gnorm:      0.001061  CPU:  334.340
  Cycle:     86 Energy:     -7725.942551  Gnorm:      0.001568  CPU:  338.643
  Cycle:     87 Energy:     -7725.942618  Gnorm:      0.001564  CPU:  342.245
  Cycle:     88 Energy:     -7725.942678  Gnorm:      0.001777  CPU:  346.548
  Cycle:     89 Energy:     -7725.942763  Gnorm:      0.002105  CPU:  350.850
  Cycle:     90 Energy:     -7725.942899  Gnorm:      0.002621  CPU:  355.153
  ** Hessian calculated **
  Cycle:     91 Energy:     -7725.942948  Gnorm:      0.002261  CPU:  359.743
  Cycle:     92 Energy:     -7725.942995  Gnorm:      0.002150  CPU:  362.642
  Cycle:     93 Energy:     -7725.943051  Gnorm:      0.002042  CPU:  365.542
  Cycle:     94 Energy:     -7725.943124  Gnorm:      0.001830  CPU:  368.442
  Cycle:     95 Energy:     -7725.943350  Gnorm:      0.001677  CPU:  373.446
  Cycle:     96 Energy:     -7725.943423  Gnorm:      0.001298  CPU:  376.346
  Cycle:     97 Energy:     -7725.943461  Gnorm:      0.001017  CPU:  379.246
  Cycle:     98 Energy:     -7725.943489  Gnorm:      0.001017  CPU:  382.145
  Cycle:     99 Energy:     -7725.943519  Gnorm:      0.001033  CPU:  385.045
  Cycle:    100 Energy:     -7725.943614  Gnorm:      0.001555  CPU:  390.049
  ** Hessian calculated **
  Cycle:    101 Energy:     -7725.943636  Gnorm:      0.001213  CPU:  394.640
  Cycle:    102 Energy:     -7725.943656  Gnorm:      0.001168  CPU:  397.540
  Cycle:    103 Energy:     -7725.943679  Gnorm:      0.001134  CPU:  400.440
  Cycle:    104 Energy:     -7725.943764  Gnorm:      0.001138  CPU:  405.443
  Cycle:    105 Energy:     -7725.943861  Gnorm:      0.001149  CPU:  409.748
  Cycle:    106 Energy:     -7725.943953  Gnorm:      0.001520  CPU:  414.051
  Cycle:    107 Energy:     -7725.943999  Gnorm:      0.001692  CPU:  417.653
  Cycle:    108 Energy:     -7725.944060  Gnorm:      0.001757  CPU:  421.956
  Cycle:    109 Energy:     -7725.944158  Gnorm:      0.002154  CPU:  426.259
  Cycle:    110 Energy:     -7725.944318  Gnorm:      0.002484  CPU:  430.562
  ** Hessian calculated **
  Cycle:    111 Energy:     -7725.944367  Gnorm:      0.002238  CPU:  435.153
  Cycle:    112 Energy:     -7725.944414  Gnorm:      0.002121  CPU:  438.053
  Cycle:    113 Energy:     -7725.944469  Gnorm:      0.001997  CPU:  440.953
  Cycle:    114 Energy:     -7725.944540  Gnorm:      0.001813  CPU:  443.853
  Cycle:    115 Energy:     -7725.944751  Gnorm:      0.002132  CPU:  448.858
  Cycle:    116 Energy:     -7725.944833  Gnorm:      0.001166  CPU:  451.758
  Cycle:    117 Energy:     -7725.944865  Gnorm:      0.001001  CPU:  454.658
  Cycle:    118 Energy:     -7725.944892  Gnorm:      0.001004  CPU:  457.558
  Cycle:    119 Energy:     -7725.944922  Gnorm:      0.001035  CPU:  460.459
  Cycle:    120 Energy:     -7725.945013  Gnorm:      0.001762  CPU:  465.463
  ** Hessian calculated **
  Cycle:    121 Energy:     -7725.945037  Gnorm:      0.001234  CPU:  470.053
  Cycle:    122 Energy:     -7725.945058  Gnorm:      0.001218  CPU:  472.953
  Cycle:    123 Energy:     -7725.945083  Gnorm:      0.001178  CPU:  475.853
  Cycle:    124 Energy:     -7725.945169  Gnorm:      0.001102  CPU:  480.857
  Cycle:    125 Energy:     -7725.945264  Gnorm:      0.001413  CPU:  485.160
  Cycle:    126 Energy:     -7725.945356  Gnorm:      0.001592  CPU:  489.463
  Cycle:    127 Energy:     -7725.945389  Gnorm:      0.001499  CPU:  492.362
  Cycle:    128 Energy:     -7725.945467  Gnorm:      0.001725  CPU:  497.368
  Cycle:    129 Energy:     -7725.945582  Gnorm:      0.002146  CPU:  501.672
  Cycle:    130 Energy:     -7725.945750  Gnorm:      0.002819  CPU:  505.977
  ** Hessian calculated **
  Cycle:    131 Energy:     -7725.945808  Gnorm:      0.002257  CPU:  510.570
  Cycle:    132 Energy:     -7725.945861  Gnorm:      0.002139  CPU:  513.470
  Cycle:    133 Energy:     -7725.945924  Gnorm:      0.002009  CPU:  516.372
  Cycle:    134 Energy:     -7725.946005  Gnorm:      0.001780  CPU:  519.272
  Cycle:    135 Energy:     -7725.946203  Gnorm:      0.001918  CPU:  524.278
  Cycle:    136 Energy:     -7725.946274  Gnorm:      0.001228  CPU:  527.179
  Cycle:    137 Energy:     -7725.946301  Gnorm:      0.000983  CPU:  530.079
  Cycle:    138 Energy:     -7725.946324  Gnorm:      0.001005  CPU:  532.980
  Cycle:    139 Energy:     -7725.946393  Gnorm:      0.001386  CPU:  537.986
  Cycle:    140 Energy:     -7725.946486  Gnorm:      0.001828  CPU:  542.291
  ** Hessian calculated **
  Cycle:    141 Energy:     -7725.946514  Gnorm:      0.001394  CPU:  546.883
  Cycle:    142 Energy:     -7725.946540  Gnorm:      0.001342  CPU:  549.784
  Cycle:    143 Energy:     -7725.946569  Gnorm:      0.001283  CPU:  552.685
  Cycle:    144 Energy:     -7725.946673  Gnorm:      0.001228  CPU:  557.692
  Cycle:    145 Energy:     -7725.946780  Gnorm:      0.001263  CPU:  561.996
  Cycle:    146 Energy:     -7725.946844  Gnorm:      0.001299  CPU:  565.599
  Cycle:    147 Energy:     -7725.946876  Gnorm:      0.001344  CPU:  568.499
  Cycle:    148 Energy:     -7725.946944  Gnorm:      0.001595  CPU:  573.505
  Cycle:    149 Energy:     -7725.947047  Gnorm:      0.001978  CPU:  577.810
  Cycle:    150 Energy:     -7725.947198  Gnorm:      0.002515  CPU:  582.114
  ** Hessian calculated **
  Cycle:    151 Energy:     -7725.947246  Gnorm:      0.002174  CPU:  586.707
  Cycle:    152 Energy:     -7725.947293  Gnorm:      0.002066  CPU:  589.608
  Cycle:    153 Energy:     -7725.947348  Gnorm:      0.001948  CPU:  592.508
  Cycle:    154 Energy:     -7725.947419  Gnorm:      0.001735  CPU:  595.409
  Cycle:    155 Energy:     -7725.947624  Gnorm:      0.001546  CPU:  600.415
  Cycle:    156 Energy:     -7725.947687  Gnorm:      0.001230  CPU:  603.315
  Cycle:    157 Energy:     -7725.947723  Gnorm:      0.000988  CPU:  606.216
  Cycle:    158 Energy:     -7725.947750  Gnorm:      0.001029  CPU:  609.117
  Cycle:    159 Energy:     -7725.947813  Gnorm:      0.001427  CPU:  614.123
  Cycle:    160 Energy:     -7725.947900  Gnorm:      0.001684  CPU:  618.427
  ** Hessian calculated **
  Cycle:    161 Energy:     -7725.947926  Gnorm:      0.001413  CPU:  623.018
  Cycle:    162 Energy:     -7725.947950  Gnorm:      0.001352  CPU:  625.920
  Cycle:    163 Energy:     -7725.947978  Gnorm:      0.001295  CPU:  628.819
  Cycle:    164 Energy:     -7725.948015  Gnorm:      0.001205  CPU:  631.721
  Cycle:    165 Energy:     -7725.948144  Gnorm:      0.001145  CPU:  636.727
  Cycle:    166 Energy:     -7725.948254  Gnorm:      0.001432  CPU:  641.031
  Cycle:    167 Energy:     -7725.948303  Gnorm:      0.001456  CPU:  644.633
  Cycle:    168 Energy:     -7725.948337  Gnorm:      0.001469  CPU:  647.533
  Cycle:    169 Energy:     -7725.948415  Gnorm:      0.001824  CPU:  652.539
  Cycle:    170 Energy:     -7725.948527  Gnorm:      0.002285  CPU:  656.844
  ** Hessian calculated **
  Cycle:    171 Energy:     -7725.948567  Gnorm:      0.001984  CPU:  661.436
  Cycle:    172 Energy:     -7725.948605  Gnorm:      0.001873  CPU:  664.337
  Cycle:    173 Energy:     -7725.948650  Gnorm:      0.001779  CPU:  667.237
  Cycle:    174 Energy:     -7725.948709  Gnorm:      0.001605  CPU:  670.138
  Cycle:    175 Energy:     -7725.948884  Gnorm:      0.001781  CPU:  675.144
  Cycle:    176 Energy:     -7725.948968  Gnorm:      0.001141  CPU:  678.746
  Cycle:    177 Energy:     -7725.948992  Gnorm:      0.001039  CPU:  681.647
  Cycle:    178 Energy:     -7725.949016  Gnorm:      0.001059  CPU:  684.548
  Cycle:    179 Energy:     -7725.949093  Gnorm:      0.001442  CPU:  689.553
  Cycle:    180 Energy:     -7725.949198  Gnorm:      0.002021  CPU:  693.861
  ** Hessian calculated **
  Cycle:    181 Energy:     -7725.949231  Gnorm:      0.001520  CPU:  698.464
  Cycle:    182 Energy:     -7725.949260  Gnorm:      0.001453  CPU:  701.367
  Cycle:    183 Energy:     -7725.949294  Gnorm:      0.001385  CPU:  704.271
  Cycle:    184 Energy:     -7725.949412  Gnorm:      0.001190  CPU:  709.280
  Cycle:    185 Energy:     -7725.949528  Gnorm:      0.001155  CPU:  713.588
  Cycle:    186 Energy:     -7725.949583  Gnorm:      0.001206  CPU:  717.192
  Cycle:    187 Energy:     -7725.949616  Gnorm:      0.001255  CPU:  720.095
  Cycle:    188 Energy:     -7725.949673  Gnorm:      0.001639  CPU:  724.402
  Cycle:    189 Energy:     -7725.949767  Gnorm:      0.001883  CPU:  728.713
  Cycle:    190 Energy:     -7725.949906  Gnorm:      0.002397  CPU:  733.019
  ** Hessian calculated **
  Cycle:    191 Energy:     -7725.949951  Gnorm:      0.002124  CPU:  737.613
  Cycle:    192 Energy:     -7725.949994  Gnorm:      0.002008  CPU:  740.515
  Cycle:    193 Energy:     -7725.950044  Gnorm:      0.001897  CPU:  743.417
  Cycle:    194 Energy:     -7725.950110  Gnorm:      0.001716  CPU:  746.320
  Cycle:    195 Energy:     -7725.950308  Gnorm:      0.001778  CPU:  751.328
  Cycle:    196 Energy:     -7725.950392  Gnorm:      0.001604  CPU:  754.932
  Cycle:    197 Energy:     -7725.950422  Gnorm:      0.001177  CPU:  757.837
  Cycle:    198 Energy:     -7725.950445  Gnorm:      0.001080  CPU:  760.739
  Cycle:    199 Energy:     -7725.950472  Gnorm:      0.001092  CPU:  763.641
  Cycle:    200 Energy:     -7725.950572  Gnorm:      0.001610  CPU:  768.650
  ** Hessian calculated **
  Cycle:    201 Energy:     -7725.950594  Gnorm:      0.001251  CPU:  773.244
  Cycle:    202 Energy:     -7725.950615  Gnorm:      0.001222  CPU:  776.148
  Cycle:    203 Energy:     -7725.950639  Gnorm:      0.001186  CPU:  779.051
  Cycle:    204 Energy:     -7725.950672  Gnorm:      0.001124  CPU:  781.953
  Cycle:    205 Energy:     -7725.950787  Gnorm:      0.001305  CPU:  786.967
  Cycle:    206 Energy:     -7725.950898  Gnorm:      0.001694  CPU:  791.272
  Cycle:    207 Energy:     -7725.950953  Gnorm:      0.001551  CPU:  794.877
  Cycle:    208 Energy:     -7725.951014  Gnorm:      0.001921  CPU:  799.183
  Cycle:    209 Energy:     -7725.951102  Gnorm:      0.002266  CPU:  803.490
  Cycle:    210 Energy:     -7725.951242  Gnorm:      0.002639  CPU:  807.796
  ** Hessian calculated **
  Cycle:    211 Energy:     -7725.951295  Gnorm:      0.002253  CPU:  812.388
  Cycle:    212 Energy:     -7725.951346  Gnorm:      0.002124  CPU:  815.290
  Cycle:    213 Energy:     -7725.951405  Gnorm:      0.002007  CPU:  818.196
  Cycle:    214 Energy:     -7725.951482  Gnorm:      0.001778  CPU:  821.097
  Cycle:    215 Energy:     -7725.951691  Gnorm:      0.001813  CPU:  826.107
  Cycle:    216 Energy:     -7725.951772  Gnorm:      0.001406  CPU:  829.711
  Cycle:    217 Energy:     -7725.951795  Gnorm:      0.001153  CPU:  832.614
  Cycle:    218 Energy:     -7725.951817  Gnorm:      0.001073  CPU:  835.516
  Cycle:    219 Energy:     -7725.951888  Gnorm:      0.001390  CPU:  840.525
  Cycle:    220 Energy:     -7725.951984  Gnorm:      0.002107  CPU:  844.831
  ** Hessian calculated **
  Cycle:    221 Energy:     -7725.952018  Gnorm:      0.001426  CPU:  849.429
  Cycle:    222 Energy:     -7725.952045  Gnorm:      0.001380  CPU:  852.330
  Cycle:    223 Energy:     -7725.952076  Gnorm:      0.001328  CPU:  855.232
  Cycle:    224 Energy:     -7725.952183  Gnorm:      0.001187  CPU:  860.241
  Cycle:    225 Energy:     -7725.952285  Gnorm:      0.001603  CPU:  864.548
  Cycle:    226 Energy:     -7725.952352  Gnorm:      0.001380  CPU:  868.152
  Cycle:    227 Energy:     -7725.952374  Gnorm:      0.001362  CPU:  871.054
  Cycle:    228 Energy:     -7725.952430  Gnorm:      0.001549  CPU:  876.063
  Cycle:    229 Energy:     -7725.952517  Gnorm:      0.001736  CPU:  880.372
  Cycle:    230 Energy:     -7725.952677  Gnorm:      0.002175  CPU:  885.381
  ** Hessian calculated **
  Cycle:    231 Energy:     -7725.952714  Gnorm:      0.001911  CPU:  889.974
  Cycle:    232 Energy:     -7725.952748  Gnorm:      0.001815  CPU:  892.877
  Cycle:    233 Energy:     -7725.952789  Gnorm:      0.001718  CPU:  895.780
  Cycle:    234 Energy:     -7725.952842  Gnorm:      0.001568  CPU:  898.683
  Cycle:    235 Energy:     -7725.953010  Gnorm:      0.001621  CPU:  903.691
  Cycle:    236 Energy:     -7725.953093  Gnorm:      0.001434  CPU:  907.300
  Cycle:    237 Energy:     -7725.953126  Gnorm:      0.001159  CPU:  910.202
  Cycle:    238 Energy:     -7725.953151  Gnorm:      0.001102  CPU:  913.103
  Cycle:    239 Energy:     -7725.953219  Gnorm:      0.001429  CPU:  918.113
  Cycle:    240 Energy:     -7725.953313  Gnorm:      0.001830  CPU:  922.418
  ** Hessian calculated **
  Cycle:    241 Energy:     -7725.953343  Gnorm:      0.001494  CPU:  927.012
  Cycle:    242 Energy:     -7725.953372  Gnorm:      0.001436  CPU:  929.914
  Cycle:    243 Energy:     -7725.953405  Gnorm:      0.001369  CPU:  932.817
  Cycle:    244 Energy:     -7725.953518  Gnorm:      0.001297  CPU:  937.829
  Cycle:    245 Energy:     -7725.953628  Gnorm:      0.001432  CPU:  942.135
  Cycle:    246 Energy:     -7725.953687  Gnorm:      0.001370  CPU:  945.740
  Cycle:    247 Energy:     -7725.953711  Gnorm:      0.001329  CPU:  948.642
  Cycle:    248 Energy:     -7725.953770  Gnorm:      0.001487  CPU:  953.649
  Cycle:    249 Energy:     -7725.953859  Gnorm:      0.001751  CPU:  957.956
  Cycle:    250 Energy:     -7725.953992  Gnorm:      0.002228  CPU:  962.262
  ** Hessian calculated **
  Cycle:    251 Energy:     -7725.954029  Gnorm:      0.001891  CPU:  966.860
  Cycle:    252 Energy:     -7725.954065  Gnorm:      0.001797  CPU:  969.762
  Cycle:    253 Energy:     -7725.954106  Gnorm:      0.001700  CPU:  972.664
  Cycle:    254 Energy:     -7725.954160  Gnorm:      0.001543  CPU:  975.565
  Cycle:    255 Energy:     -7725.954329  Gnorm:      0.001549  CPU:  980.574
  Cycle:    256 Energy:     -7725.954402  Gnorm:      0.001586  CPU:  984.178
  Cycle:    257 Energy:     -7725.954435  Gnorm:      0.001230  CPU:  987.081
  Cycle:    258 Energy:     -7725.954460  Gnorm:      0.001137  CPU:  989.982
  Cycle:    259 Energy:     -7725.954526  Gnorm:      0.001470  CPU:  994.991
  Cycle:    260 Energy:     -7725.954620  Gnorm:      0.001890  CPU:  999.299
  ** Hessian calculated **
  Cycle:    261 Energy:     -7725.954651  Gnorm:      0.001479  CPU: 1003.890
  Cycle:    262 Energy:     -7725.954679  Gnorm:      0.001427  CPU: 1006.791
  Cycle:    263 Energy:     -7725.954713  Gnorm:      0.001366  CPU: 1009.693
  Cycle:    264 Energy:     -7725.954827  Gnorm:      0.001226  CPU: 1014.698
  Cycle:    265 Energy:     -7725.954934  Gnorm:      0.001558  CPU: 1019.006
  Cycle:    266 Energy:     -7725.954990  Gnorm:      0.001314  CPU: 1022.609
  Cycle:    267 Energy:     -7725.955012  Gnorm:      0.001317  CPU: 1025.510
  Cycle:    268 Energy:     -7725.955068  Gnorm:      0.001507  CPU: 1030.520
  Cycle:    269 Energy:     -7725.955153  Gnorm:      0.001682  CPU: 1034.824
  Cycle:    270 Energy:     -7725.955308  Gnorm:      0.002111  CPU: 1039.831
  ** Hessian calculated **
  Cycle:    271 Energy:     -7725.955342  Gnorm:      0.001886  CPU: 1044.422
  Cycle:    272 Energy:     -7725.955375  Gnorm:      0.001788  CPU: 1047.325
  Cycle:    273 Energy:     -7725.955414  Gnorm:      0.001702  CPU: 1050.225
  Cycle:    274 Energy:     -7725.955464  Gnorm:      0.001550  CPU: 1053.127
  Cycle:    275 Energy:     -7725.955628  Gnorm:      0.001524  CPU: 1058.135
  Cycle:    276 Energy:     -7725.955712  Gnorm:      0.001298  CPU: 1061.738
  Cycle:    277 Energy:     -7725.955748  Gnorm:      0.001110  CPU: 1064.640
  Cycle:    278 Energy:     -7725.955774  Gnorm:      0.001081  CPU: 1067.541
  Cycle:    279 Energy:     -7725.955841  Gnorm:      0.001354  CPU: 1072.547
  Cycle:    280 Energy:     -7725.955934  Gnorm:      0.001812  CPU: 1076.852
  ** Hessian calculated **
  Cycle:    281 Energy:     -7725.955962  Gnorm:      0.001509  CPU: 1081.442
  Cycle:    282 Energy:     -7725.955990  Gnorm:      0.001438  CPU: 1084.344
  Cycle:    283 Energy:     -7725.956021  Gnorm:      0.001373  CPU: 1087.247
  Cycle:    284 Energy:     -7725.956063  Gnorm:      0.001266  CPU: 1090.148
  Cycle:    285 Energy:     -7725.956199  Gnorm:      0.001431  CPU: 1095.153
  Cycle:    286 Energy:     -7725.956291  Gnorm:      0.001359  CPU: 1098.757
  Cycle:    287 Energy:     -7725.956324  Gnorm:      0.001218  CPU: 1101.657
  Cycle:    288 Energy:     -7725.956371  Gnorm:      0.001434  CPU: 1105.962
  Cycle:    289 Energy:     -7725.956440  Gnorm:      0.001804  CPU: 1110.265
  Cycle:    290 Energy:     -7725.956544  Gnorm:      0.002291  CPU: 1114.570
  ** Hessian calculated **
  Cycle:    291 Energy:     -7725.956584  Gnorm:      0.001915  CPU: 1119.164
  Cycle:    292 Energy:     -7725.956622  Gnorm:      0.001820  CPU: 1122.064
  Cycle:    293 Energy:     -7725.956665  Gnorm:      0.001720  CPU: 1124.964
  Cycle:    294 Energy:     -7725.956722  Gnorm:      0.001545  CPU: 1127.866
  Cycle:    295 Energy:     -7725.956897  Gnorm:      0.001401  CPU: 1132.871
  Cycle:    296 Energy:     -7725.956954  Gnorm:      0.001212  CPU: 1135.773
  Cycle:    297 Energy:     -7725.956989  Gnorm:      0.001035  CPU: 1138.676
  Cycle:    298 Energy:     -7725.957015  Gnorm:      0.001075  CPU: 1141.577
  Cycle:    299 Energy:     -7725.957081  Gnorm:      0.001427  CPU: 1146.585
  Cycle:    300 Energy:     -7725.957173  Gnorm:      0.001776  CPU: 1150.890
  ** Hessian calculated **
  Cycle:    301 Energy:     -7725.957202  Gnorm:      0.001506  CPU: 1155.481
  Cycle:    302 Energy:     -7725.957228  Gnorm:      0.001437  CPU: 1158.382
  Cycle:    303 Energy:     -7725.957260  Gnorm:      0.001368  CPU: 1161.282
  Cycle:    304 Energy:     -7725.957302  Gnorm:      0.001257  CPU: 1164.184
  Cycle:    305 Energy:     -7725.957439  Gnorm:      0.001287  CPU: 1169.191
  Cycle:    306 Energy:     -7725.957524  Gnorm:      0.001562  CPU: 1172.793
  Cycle:    307 Energy:     -7725.957572  Gnorm:      0.001352  CPU: 1176.397
  Cycle:    308 Energy:     -7725.957599  Gnorm:      0.001328  CPU: 1179.299
  Cycle:    309 Energy:     -7725.957669  Gnorm:      0.001614  CPU: 1184.305
  Cycle:    310 Energy:     -7725.957779  Gnorm:      0.001992  CPU: 1188.609
  ** Hessian calculated **
  Cycle:    311 Energy:     -7725.958069  Gnorm:      0.001992  CPU: 1194.604
  Cycle:    312 Energy:     -7725.958561  Gnorm:      0.001992  CPU: 1199.611
  Cycle:    313 Energy:     -7725.959320  Gnorm:      0.001991  CPU: 1204.617
  Cycle:    314 Energy:     -7725.960457  Gnorm:      0.001990  CPU: 1209.626
  Cycle:    315 Energy:     -7725.962129  Gnorm:      0.001987  CPU: 1214.686
  Cycle:    316 Energy:     -7725.964147  Gnorm:      0.001981  CPU: 1218.990
  Cycle:    317 Energy:     -7725.967417  Gnorm:      0.001968  CPU: 1223.996
  Cycle:    318 Energy:     -7725.972175  Gnorm:      0.001946  CPU: 1229.002
  Cycle:    319 Energy:     -7725.977648  Gnorm:      0.001908  CPU: 1233.306
  Cycle:    320 Energy:     -7725.986074  Gnorm:      0.001837  CPU: 1238.315
  ** Hessian calculated **
  Cycle:    321 Energy:     -7725.995859  Gnorm:      0.001732  CPU: 1244.309
  Cycle:    322 Energy:     -7726.010019  Gnorm:      0.001706  CPU: 1249.315
  Cycle:    323 Energy:     -7726.023536  Gnorm:      0.001613  CPU: 1253.620
  Cycle:    324 Energy:     -7726.035111  Gnorm:      0.001426  CPU: 1257.926
  Cycle:    325 Energy:     -7726.038070  Gnorm:      0.000982  CPU: 1262.230
  Cycle:    326 Energy:     -7726.038764  Gnorm:      0.000583  CPU: 1266.538
  Cycle:    327 Energy:     -7726.038935  Gnorm:      0.000297  CPU: 1270.843
  Cycle:    328 Energy:     -7726.038965  Gnorm:      0.000226  CPU: 1273.744
  Cycle:    329 Energy:     -7726.038979  Gnorm:      0.000143  CPU: 1276.647
  Cycle:    330 Energy:     -7726.038986  Gnorm:      0.000106  CPU: 1279.548
  ** Hessian calculated **
  Cycle:    331 Energy:     -7726.038987  Gnorm:      0.000056  CPU: 1284.139
  Cycle:    332 Energy:     -7726.038987  Gnorm:      0.000039  CPU: 1287.040
  Cycle:    333 Energy:     -7726.038987  Gnorm:      0.000031  CPU: 1289.942
  Cycle:    334 Energy:     -7726.038987  Gnorm:      0.000026  CPU: 1292.843


  **** Optimisation achieved ****


  Final energy =   -7726.03898663 eV
  Final Gnorm  =       0.00002347

  Components of energy : 

--------------------------------------------------------------------------------
  Interatomic potentials     =        2061.20364705 eV
  Three-body potentials      =           0.44898533 eV
  Monopole - monopole (real) =       -6611.27447152 eV
  Monopole - monopole (recip)=       -3169.96063594 eV
  Monopole - monopole (total)=       -9781.23510746 eV
  Neutralising energy        =          -6.45651155 eV
--------------------------------------------------------------------------------
  Total lattice energy       =       -7726.03898663 eV
--------------------------------------------------------------------------------
  Total lattice energy       =         -745444.6589 kJ/(mole unit cells)
--------------------------------------------------------------------------------

  Final fractional coordinates of atoms :

--------------------------------------------------------------------------------
   No.  Atomic        x           y          z          Radius
        Label       (Frac)      (Frac)     (Frac)       (Angs) 
--------------------------------------------------------------------------------
     1  Ge    c     0.699600    0.375700    0.033890    0.000000
     2  Si    c     0.598879    0.307922    0.365596    0.000000
     3  Si    c     0.655545    0.284143    0.698009    0.000000
     4  Si    c     0.272979    0.602281    0.530081    0.000000
     5  Si    c     0.365036    0.659658    0.863433    0.000000
     6  Si    c     0.301074    0.692187    0.198670    0.000000
     7  Si    c     0.354269    0.685221    0.299101    0.000000
     8  Si    c     0.312113    0.604677    0.963597    0.000000
     9  Si    c     0.278595    0.662845    0.630152    0.000000
    10  Si    c     0.607405    0.282643    0.799183    0.000000
    11  Si    c     0.653736    0.363744    0.466322    0.000000
    12  Si    c     0.672521    0.307360    0.133059    0.000000
    13  Si    c     0.518232    0.399613    0.966177    0.000000
    14  Si    c     0.561426    0.095690    0.302514    0.000000
    15  Si    c     0.865390    0.453816    0.632826    0.000000
    16  Si    c     0.444842    0.565710    0.464696    0.000000
    17  Si    c     0.401090    0.870142    0.798655    0.000000
    18  Si    c     0.093232    0.520350    0.131497    0.000000
    19  Si    c     0.393040    0.511525    0.362923    0.000000
    20  Si    c     0.102897    0.576751    0.027883    0.000000
    21  Si    c     0.446081    0.871786    0.696583    0.000000
    22  Si    c     0.569714    0.454476    0.863738    0.000000
    23  Si    c     0.864053    0.398900    0.531404    0.000000
    24  Si    c     0.509391    0.098979    0.200913    0.000000
    25  Si    c     0.288819    0.383546    0.848218    0.000000
    26  Si    c     0.580815    0.892490    0.184958    0.000000
    27  Si    c     0.071655    0.678981    0.515169    0.000000
    28  Si    c     0.674053    0.583998    0.349573    0.000000
    29  Si    c     0.376331    0.081428    0.684270    0.000000
    30  Si    c     0.886514    0.290371    0.012115    0.000000
    31  Si    c     0.374573    0.286356    0.479216    0.000000
    32  Si    c     0.878388    0.592137    0.145370    0.000000
    33  Si    c     0.684420    0.081445    0.811937    0.000000
    34  Si    c     0.589889    0.681494    0.979202    0.000000
    35  Si    c     0.077125    0.386298    0.647316    0.000000
    36  Si    c     0.278949    0.885743    0.315096    0.000000
    37  Si    c     0.239400    0.325452    0.948612    0.000000
    38  Si    c     0.637198    0.895010    0.285867    0.000000
    39  Si    c     0.067822    0.731355    0.615717    0.000000
    40  Si    c     0.724165    0.643299    0.450301    0.000000
    41  Si    c     0.325007    0.072211    0.785408    0.000000
    42  Si    c     0.889104    0.239102    0.115288    0.000000
    43  Si    c     0.317053    0.234151    0.378530    0.000000
    44  Ge    c     0.898761    0.658823    0.042038    0.000000
    45  Si    c     0.725472    0.075051    0.710733    0.000000
    46  Si    c     0.646147    0.732288    0.878472    0.000000
    47  Si    c     0.064457    0.321040    0.547109    0.000000
    48  Si    c     0.228586    0.898328    0.214400    0.000000
    49  Si    c     0.958728    0.113244    0.963844    0.000000
    50  Si    c     0.854109    0.831828    0.299140    0.000000
    51  Si    c     0.129320    0.009915    0.631122    0.000000
    52  Si    c     0.005009    0.861252    0.465269    0.000000
    53  Si    c     0.108065    0.132383    0.799778    0.000000
    54  Si    c     0.827359    0.960226    0.132921    0.000000
    55  Si    c     0.099111    0.953305    0.364437    0.000000
    56  Si    c     0.836284    0.875514    0.031230    0.000000
    57  Ge    c     0.008252    0.134512    0.697094    0.000000
    58  Si    c     0.863249    0.012178    0.863827    0.000000
    59  Si    c     0.127561    0.104782    0.530392    0.000000
    60  Si    c     0.948640    0.837569    0.198115    0.000000
    61  O2    c     0.905783    0.002937    0.001230    0.000000
    62  O2    c     0.977934    0.910618    0.331197    0.000000
    63  O3    c     0.042587    0.044676    0.661004    0.000000
    64  O2    c     0.047219    0.983490    0.497419    0.000000
    65  O2    c     0.988214    0.055978    0.833380    0.000000
    66  O2    c     0.909307    0.919837    0.165438    0.000000
    67  O2    c     0.315732    0.560003    0.330456    0.000000
    68  O2    c     0.400981    0.749139    0.663193    0.000000
    69  O2    c     0.231186    0.645002    0.997126    0.000000
    70  O2    c     0.646729    0.405427    0.831887    0.000000
    71  O2    c     0.561406    0.227077    0.170228    0.000000
    72  O2    c     0.736594    0.323501    0.499185    0.000000
    73  O3    c     0.561818    0.324397    0.998284    0.000000
    74  O2    c     0.740503    0.407269    0.665207    0.000000
    75  O2    c     0.638217    0.221396    0.334724    0.000000
    76  O2    c     0.394446    0.640496    0.496697    0.000000
    77  O2    c     0.216203    0.570094    0.165169    0.000000
    78  O2    c     0.326369    0.744732    0.830977    0.000000
    79  O2    c     0.113816    0.196891    0.968355    0.000000
    80  O2    c     0.763278    0.894152    0.305839    0.000000
    81  O2    c     0.069076    0.856469    0.635918    0.000000
    82  O2    c     0.850335    0.770589    0.470406    0.000000
    83  O2    c     0.200367    0.071406    0.806854    0.000000
    84  O2    c     0.889672    0.114973    0.136579    0.000000
    85  O2    c     0.190799    0.107080    0.358296    0.000000
    86  O3    c     0.919101    0.807448    0.025626    0.000000
    87  O3    c     0.845178    0.071701    0.688811    0.000000
    88  O2    c     0.772312    0.858324    0.857981    0.000000
    89  O2    c     0.062461    0.194085    0.527237    0.000000
    90  O2    c     0.103787    0.901788    0.194388    0.000000
    91  O2    c     0.904349    0.847316    0.248194    0.000000
    92  O2    c     0.121027    0.050430    0.580064    0.000000
    93  O2    c     0.911182    0.048325    0.915172    0.000000
    94  O3    c     0.049896    0.108685    0.749978    0.000000
    95  O2    c     0.835329    0.918449    0.082618    0.000000
    96  O2    c     0.045251    0.914842    0.414792    0.000000
    97  O2    c     0.900254    0.205335    0.972827    0.000000
    98  O2    c     0.772097    0.680180    0.310982    0.000000
    99  O2    c     0.279765    0.084753    0.646098    0.000000
   100  O2    c     0.072808    0.777684    0.477013    0.000000
   101  O2    c     0.191011    0.285752    0.809460    0.000000
   102  O2    c     0.676789    0.891569    0.146610    0.000000
   103  O2    c     0.180894    0.883471    0.353340    0.000000
   104  O2    c     0.686436    0.777951    0.018156    0.000000
   105  O3    c     0.085016    0.297393    0.686580    0.000000
   106  O2    c     0.783399    0.082432    0.850100    0.000000
   107  O2    c     0.278347    0.189075    0.517537    0.000000
   108  O2    c     0.881705    0.686817    0.185575    0.000000
   109  O2    c     0.298766    0.630695    0.248264    0.000000
   110  O2    c     0.334409    0.663075    0.579744    0.000000
   111  O2    c     0.306266    0.659625    0.913357    0.000000
   112  O2    c     0.660459    0.340805    0.748650    0.000000
   113  O3    c     0.609751    0.302247    0.085041    0.000000
   114  O2    c     0.655350    0.308485    0.416049    0.000000
   115  O2    c     0.360239    0.314204    0.966440    0.000000
   116  O2    c     0.648452    0.026883    0.304768    0.000000
   117  O2    c     0.935451    0.609868    0.634619    0.000000
   118  O2    c     0.601651    0.653402    0.467908    0.000000
   119  O2    c     0.315123    0.939570    0.802797    0.000000
   120  O2    c     0.019427    0.364539    0.133883    0.000000
   121  O2    c     0.305985    0.355233    0.359644    0.000000
   122  O3    c     0.043612    0.669402    0.026181    0.000000
   123  O2    c     0.601774    0.941995    0.693406    0.000000
   124  O2    c     0.655558    0.610757    0.859738    0.000000
   125  O2    c     0.931785    0.311094    0.528349    0.000000
   126  O2    c     0.352843    0.030022    0.196412    0.000000
   127  O3    c     0.751927    0.281017    0.004398    0.000000
   128  O2    c     0.673741    0.450186    0.342412    0.000000
   129  O2    c     0.510568    0.215817    0.676402    0.000000
   130  O2    c     0.203849    0.675952    0.507349    0.000000
   131  O2    c     0.290597    0.517775    0.839695    0.000000
   132  O2    c     0.444144    0.760841    0.176159    0.000000
   133  O2    c     0.278098    0.751388    0.321460    0.000000
   134  O2    c     0.456244    0.682920    0.985685    0.000000
   135  O2    c     0.212169    0.520805    0.652750    0.000000
   136  O2    c     0.683674    0.214302    0.820340    0.000000
   137  O2    c     0.509259    0.288457    0.487633    0.000000
   138  O2    c     0.747908    0.454986    0.152965    0.000000
   139  O1    c     0.765408    0.539861    0.017110    0.000000
   140  O2    c     0.442485    0.232901    0.359566    0.000000
   141  O2    c     0.728339    0.202546    0.691771    0.000000
   142  O2    c     0.191532    0.445797    0.527153    0.000000
   143  O2    c     0.521740    0.736127    0.859140    0.000000
   144  O2    c     0.224334    0.771235    0.194233    0.000000
   145  O2    c     0.510564    0.768531    0.304732    0.000000
   146  O2    c     0.236097    0.448723    0.969075    0.000000
   147  O2    c     0.195796    0.734847    0.634707    0.000000
   148  O2    c     0.451533    0.198553    0.804747    0.000000
   149  O2    c     0.726035    0.519587    0.470711    0.000000
   150  O2    c     0.764526    0.243010    0.132723    0.000000
   151  O2    c     0.216165    0.309229    0.894276    0.000000
   152  O2    c     0.654043    0.894163    0.231518    0.000000
   153  O2    c     0.068087    0.749184    0.561350    0.000000
   154  O2    c     0.744355    0.659657    0.395962    0.000000
   155  O2    c     0.303996    0.076434    0.731144    0.000000
   156  O2    c     0.893204    0.228809    0.060951    0.000000
   157  O2    c     0.299566    0.215249    0.432796    0.000000
   158  O3    c     0.882190    0.668124    0.100791    0.000000
   159  O2    c     0.753724    0.080379    0.765007    0.000000
   160  O2    c     0.665851    0.750482    0.932843    0.000000
   161  O2    c     0.066580    0.304789    0.601694    0.000000
   162  O2    c     0.209981    0.894133    0.268732    0.000000
   163  O2    c     0.570028    0.541475    0.988609    0.000000
   164  O2    c     0.419872    0.008975    0.325046    0.000000
   165  O2    c     0.951524    0.399588    0.656236    0.000000
   166  O2    c     0.387876    0.424856    0.487644    0.000000
   167  O2    c     0.545148    0.954739    0.820243    0.000000
   168  O2    c     0.002419    0.573416    0.149572    0.000000
   169  O2    c     0.534489    0.569541    0.339948    0.000000
   170  O2    c     0.005794    0.436892    0.006444    0.000000
   171  O2    c     0.387010    0.955233    0.674609    0.000000
   172  O2    c     0.427953    0.396435    0.840293    0.000000
   173  O2    c     0.945823    0.538810    0.507102    0.000000
   174  O2    c     0.569548    0.019337    0.177093    0.000000
   175  O2    c     0.560825    0.149632    0.251987    0.000000
   176  O2    c     0.811339    0.398722    0.582107    0.000000
   177  O2    c     0.571403    0.405355    0.914696    0.000000
   178  O2    c     0.394933    0.817120    0.747373    0.000000
   179  O2    c     0.142168    0.567689    0.080362    0.000000
   180  O2    c     0.392306    0.564735    0.413530    0.000000
   181  F     c     0.428199    0.888296    0.249061    0.000000
   182  F     c     0.073052    0.529066    0.580774    0.000000
   183  F     c     0.434599    0.534646    0.912850    0.000000
   184  F     c     0.529982    0.081103    0.747549    0.000000
   185  F     c     0.850998    0.441543    0.071254    0.000000
   186  F     c     0.523915    0.435526    0.413857    0.000000
   187  O2    s     0.903908    0.001094    0.000338    0.000000
   188  O2    s     0.977574    0.906517    0.331315    0.000000
   189  O3    s     0.049108    0.048653    0.660864    0.000000
   190  O2    s     0.051394    0.983276    0.497476    0.000000
   191  O2    s     0.987314    0.059497    0.833116    0.000000
   192  O2    s     0.904629    0.915300    0.165446    0.000000
   193  O2    s     0.327592    0.567994    0.330518    0.000000
   194  O2    s     0.392868    0.752772    0.663178    0.000000
   195  O2    s     0.225718    0.633621    0.996988    0.000000
   196  O2    s     0.634883    0.397749    0.831735    0.000000
   197  O2    s     0.567491    0.221920    0.169580    0.000000
   198  O2    s     0.741046    0.335380    0.499064    0.000000
   199  O3    s     0.566582    0.336138    0.997260    0.000000
   200  O2    s     0.744682    0.399528    0.665226    0.000000
   201  O2    s     0.626233    0.217161    0.334533    0.000000
   202  O2    s     0.387252    0.628828    0.496802    0.000000
   203  O2    s     0.211738    0.577173    0.164996    0.000000
   204  O2    s     0.338089    0.749115    0.830931    0.000000
   205  O2    s     0.109843    0.200925    0.965880    0.000000
   206  O2    s     0.759768    0.887671    0.303085    0.000000
   207  O2    s     0.075386    0.859503    0.633272    0.000000
   208  O2    s     0.853706    0.767036    0.467803    0.000000
   209  O2    s     0.203635    0.077874    0.803915    0.000000
   210  O2    s     0.883144    0.111813    0.134008    0.000000
   211  O2    s     0.194120    0.103885    0.361013    0.000000
   212  O3    s     0.909019    0.803180    0.027435    0.000000
   213  O3    s     0.846700    0.077279    0.691694    0.000000
   214  O2    s     0.769028    0.861764    0.860685    0.000000
   215  O2    s     0.069510    0.197673    0.529580    0.000000
   216  O2    s     0.100338    0.894667    0.196823    0.000000
   217  O2    s     0.903691    0.844480    0.248291    0.000000
   218  O2    s     0.122716    0.052184    0.580026    0.000000
   219  O2    s     0.911214    0.051659    0.914926    0.000000
   220  O3    s     0.052475    0.113510    0.750678    0.000000
   221  O2    s     0.834524    0.918611    0.082828    0.000000
   222  O2    s     0.046849    0.913181    0.414746    0.000000
   223  O2    s     0.905206    0.204416    0.976041    0.000000
   224  O2    s     0.770857    0.686522    0.313638    0.000000
   225  O2    s     0.273759    0.076502    0.648448    0.000000
   226  O2    s     0.065536    0.776475    0.479649    0.000000
   227  O2    s     0.192179    0.279592    0.812322    0.000000
   228  O2    s     0.682897    0.898971    0.149123    0.000000
   229  O2    s     0.182337    0.891050    0.350585    0.000000
   230  O2    s     0.692280    0.778281    0.015531    0.000000
   231  O3    s     0.077977    0.292620    0.683663    0.000000
   232  O2    s     0.781728    0.074866    0.847639    0.000000
   233  O2    s     0.272191    0.190188    0.514907    0.000000
   234  O2    s     0.888515    0.693396    0.182910    0.000000
   235  O2    s     0.304640    0.642556    0.248334    0.000000
   236  O2    s     0.322518    0.656883    0.579815    0.000000
   237  O2    s     0.312752    0.654040    0.913406    0.000000
   238  O2    s     0.654584    0.329125    0.748591    0.000000
   239  O3    s     0.622222    0.307651    0.086716    0.000000
   240  O2    s     0.649351    0.314117    0.415987    0.000000
   241  O2    s     0.362672    0.323973    0.964428    0.000000
   242  O2    s     0.638360    0.020197    0.302559    0.000000
   243  O2    s     0.942089    0.606451    0.632435    0.000000
   244  O2    s     0.598332    0.643336    0.465726    0.000000
   245  O2    s     0.325005    0.946362    0.800533    0.000000
   246  O2    s     0.013556    0.367701    0.131701    0.000000
   247  O2    s     0.316066    0.358676    0.361950    0.000000
   248  O3    s     0.038340    0.659318    0.027581    0.000000
   249  O2    s     0.598320    0.948664    0.695608    0.000000
   250  O2    s     0.645809    0.607529    0.862110    0.000000
   251  O2    s     0.938577    0.321116    0.530611    0.000000
   252  O2    s     0.355877    0.023270    0.198766    0.000000
   253  O3    s     0.762831    0.288563    0.007328    0.000000
   254  O2    s     0.666100    0.449591    0.345564    0.000000
   255  O2    s     0.511466    0.208801    0.679492    0.000000
   256  O2    s     0.197037    0.668722    0.510522    0.000000
   257  O2    s     0.297989    0.518183    0.843029    0.000000
   258  O2    s     0.443684    0.767546    0.179433    0.000000
   259  O2    s     0.285987    0.758676    0.318466    0.000000
   260  O2    s     0.455237    0.674687    0.982684    0.000000
   261  O2    s     0.204801    0.521448    0.649748    0.000000
   262  O2    s     0.675933    0.207461    0.817260    0.000000
   263  O2    s     0.509967    0.296028    0.484505    0.000000
   264  O2    s     0.754360    0.455075    0.150177    0.000000
   265  O1    s     0.772662    0.539502    0.020225    0.000000
   266  O2    s     0.445215    0.240912    0.362196    0.000000
[...]
     59 Si    c       0.000110      0.000047      0.000290      0.000000
     60 Si    c      -0.000084     -0.000530      0.000646      0.000000
     61 O2    c       0.000534     -0.000118     -0.000347      0.000000
     62 O2    c       0.000248      0.000077      0.000137      0.000000
     63 O3    c       0.000291      0.000124      0.000330      0.000000
     64 O2    c       0.000062     -0.000024      0.000086      0.000000
     65 O2    c       0.000306     -0.000044      0.000025      0.000000
     66 O2    c       0.000393     -0.000114      0.000436      0.000000
     67 O2    c       0.000382      0.000281      0.000434      0.000000
     68 O2    c       0.000077     -0.000053      0.000458      0.000000
     69 O2    c       0.000493      0.000116      0.000628      0.000000
     70 O2    c      -0.000075      0.000244     -0.000481      0.000000
     71 O2    c       0.000080     -0.000218      0.001070      0.000000
     72 O2    c       0.000072      0.000199     -0.000255      0.000000
     73 O3    c       0.000346     -0.000380      0.001211      0.000000
     74 O2    c       0.000077     -0.000099     -0.000436      0.000000
     75 O2    c       0.000013      0.000143      0.000040      0.000000
     76 O2    c       0.000294     -0.000107      0.000335      0.000000
     77 O2    c       0.000195      0.000168      0.000537      0.000000
     78 O2    c       0.000316      0.000262      0.000312      0.000000
     79 O2    c       0.001115     -0.000049     -0.000867      0.000000
     80 O2    c       0.000186      0.000196     -0.000403      0.000000
     81 O2    c       0.000098      0.000142     -0.000270      0.000000
     82 O2    c       0.000401     -0.000028     -0.000087      0.000000
     83 O2    c       0.000162      0.000146     -0.000226      0.000000
     84 O2    c      -0.000042      0.000379      0.000749      0.000000
     85 O2    c       0.000218      0.000011      0.000257      0.000000
     86 O3    c       0.002355     -0.001383     -0.000632      0.000000
     87 O3    c       0.000093     -0.000170      0.000293      0.000000
     88 O2    c       0.000024      0.000269      0.000733      0.000000
     89 O2    c       0.000364      0.000051      0.000234      0.000000
     90 O2    c       0.000665      0.000131      0.000352      0.000000
     91 O2    c       0.000247      0.000373      0.001192      0.000000
     92 O2    c       0.000079      0.000122      0.000437      0.000000
     93 O2    c      -0.000002     -0.000156     -0.001513      0.000000
     94 O3    c       0.000094      0.000140      0.000442      0.000000
     95 O2    c      -0.000294      0.000794      0.001963      0.000000
     96 O2    c       0.000129      0.000054      0.000447      0.000000
     97 O2    c      -0.001233      0.001173      0.000221      0.000000
     98 O2    c       0.000174      0.000227      0.000181      0.000000
     99 O2    c       0.000004      0.000030      0.000253      0.000000
    100 O2    c      -0.000037      0.000150      0.000592      0.000000
    101 O2    c       0.000181      0.000188      0.000066      0.000000
    102 O2    c       0.000144      0.000162      0.000483      0.000000
    103 O2    c       0.000174      0.000278     -0.000207      0.000000
    104 O2    c      -0.001494      0.000282      0.001291      0.000000
    105 O3    c       0.000025     -0.000069     -0.000253      0.000000
    106 O2    c       0.000052     -0.000042     -0.000266      0.000000
    107 O2    c      -0.000012      0.000136     -0.000387      0.000000
    108 O2    c       0.000556     -0.000407     -0.000137      0.000000
    109 O2    c       0.000116      0.000431     -0.000049      0.000000
    110 O2    c       0.000146     -0.000097      0.000466      0.000000
    111 O2    c       0.000546      0.000008     -0.000226      0.000000
    112 O2    c      -0.000107     -0.000038      0.000045      0.000000
    113 O3    c      -0.000195     -0.000031      0.004243      0.000000
    114 O2    c       0.000090      0.000042      0.000438      0.000000
    115 O2    c      -0.000588      0.000527     -0.000598      0.000000
    116 O2    c       0.000315      0.000134      0.000246      0.000000
    117 O2    c       0.000024      0.000017     -0.000067      0.000000
    118 O2    c       0.000230      0.000000      0.000012      0.000000
    119 O2    c       0.000196      0.000202     -0.000058      0.000000
    120 O2    c       0.000830      0.000096      0.001842      0.000000
    121 O2    c       0.000300      0.000145      0.000470      0.000000
    122 O3    c       0.001312      0.000884     -0.001376      0.000000
    123 O2    c      -0.000193      0.000020      0.000317      0.000000
    124 O2    c       0.000178     -0.000080      0.000383      0.000000
    125 O2    c       0.000184      0.000285      0.000249      0.000000
    126 O2    c       0.000382     -0.000067      0.000637      0.000000
    127 O3    c       0.001202     -0.000364      0.000078      0.000000
    128 O2    c      -0.000034      0.000283      0.000415      0.000000
    129 O2    c      -0.000026     -0.000087      0.000284      0.000000
    130 O2    c       0.000014      0.000065      0.000285      0.000000
    131 O2    c       0.000363     -0.000149      0.000588      0.000000
    132 O2    c       0.000195      0.000150      0.000544      0.000000
    133 O2    c       0.000461      0.000281     -0.000285      0.000000
    134 O2    c       0.000725     -0.000208      0.000120      0.000000
    135 O2    c       0.000013      0.000204     -0.000474      0.000000
    136 O2    c       0.000069     -0.000062     -0.000503      0.000000
    137 O2    c       0.000083      0.000162     -0.000254      0.000000
    138 O2    c      -0.000097      0.000638      0.001692      0.000000
    139 O1    c      -0.001225     -0.000234     -0.000668      0.000000
    140 O2    c      -0.000031      0.000212      0.000351      0.000000
    141 O2    c      -0.000123     -0.000202      0.000192      0.000000
    142 O2    c       0.000003      0.000179      0.000658      0.000000
    143 O2    c       0.000141      0.000133      0.000545      0.000000
    144 O2    c       0.000709      0.000021      0.000640      0.000000
    145 O2    c       0.000361      0.000138      0.000097      0.000000
    146 O2    c       0.000547     -0.000133     -0.000363      0.000000
    147 O2    c       0.000007      0.000089      0.000168      0.000000
    148 O2    c       0.000157      0.000100     -0.000288      0.000000
    149 O2    c       0.000027      0.000150     -0.000202      0.000000
    150 O2    c       0.000499     -0.000459      0.002092      0.000000
    151 O2    c       0.000371      0.000127      0.000135      0.000000
    152 O2    c       0.000329      0.000031      0.000343      0.000000
    153 O2    c      -0.000006      0.000106     -0.000071      0.000000
    154 O2    c       0.000111      0.000030      0.000531      0.000000
    155 O2    c       0.000193      0.000100     -0.000072      0.000000
    156 O2    c       0.000667     -0.000483     -0.001741      0.000000
    157 O2    c       0.000193      0.000105     -0.000054      0.000000
    158 O3    c       0.000645      0.002240      0.006886      0.000000
    159 O2    c      -0.000226      0.000074      0.000349      0.000000
    160 O2    c       0.000129      0.000109     -0.000450      0.000000
    161 O2    c       0.000095      0.000268     -0.000403      0.000000
    162 O2    c       0.000421      0.000220     -0.000531      0.000000
    163 O2    c       0.000182     -0.000140     -0.000477      0.000000
    164 O2    c       0.000296      0.000157     -0.000230      0.000000
    165 O2    c       0.000059      0.000082     -0.000435      0.000000
    166 O2    c       0.000192      0.000058     -0.000205      0.000000
    167 O2    c       0.000225      0.000056     -0.000255      0.000000
    168 O2    c       0.000821      0.000121      0.002104      0.000000
    169 O2    c       0.000102      0.000069      0.000742      0.000000
    170 O2    c       0.000920     -0.000276     -0.001101      0.000000
    171 O2    c       0.000130      0.000115      0.000562      0.000000
    172 O2    c      -0.000132      0.000258      0.000273      0.000000
    173 O2    c       0.000130     -0.000100      0.000322      0.000000
    174 O2    c       0.000316      0.000185      0.000150      0.000000
    175 O2    c       0.000130      0.000292      0.000018      0.000000
    176 O2    c       0.000111      0.000047     -0.000208      0.000000
    177 O2    c      -0.000238      0.000688     -0.001219      0.000000
    178 O2    c       0.000177      0.000177      0.000143      0.000000
    179 O2    c       0.001079      0.000079      0.001410      0.000000
    180 O2    c       0.000348     -0.000023     -0.000184      0.000000
    181 F     c      -0.000147      0.000001     -0.000039      0.000000
    182 F     c       0.000087     -0.000143     -0.000057      0.000000
    183 F     c       0.000072     -0.000175      0.000405      0.000000
    184 F     c       0.000073     -0.000091     -0.000185      0.000000
    185 F     c      -0.002144     -0.000163     -0.004517      0.000000
    186 F     c       0.000007      0.000010     -0.000023      0.000000
    187 O2    s       0.001636     -0.000659      0.000597      0.000000
    188 O2    s       0.000401      0.000161      0.000692      0.000000
    189 O3    s       0.000242      0.000017      0.000021      0.000000
    190 O2    s       0.000268     -0.000005      0.000221      0.000000
    191 O2    s       0.000206      0.000290     -0.000440      0.000000
    192 O2    s       0.000348     -0.000370      0.000376      0.000000
    193 O2    s       0.000408      0.000266      0.000161      0.000000
    194 O2    s       0.000050      0.000185      0.000789      0.000000
    195 O2    s       0.000528     -0.000069      0.000605      0.000000
    196 O2    s       0.000055      0.000115     -0.000301      0.000000
    197 O2    s       0.001268      0.000324      0.000750      0.000000
    198 O2    s       0.000063      0.000233     -0.000363      0.000000
    199 O3    s       0.000846     -0.000119      0.001695      0.000000
    200 O2    s       0.000430     -0.000111     -0.000649      0.000000
    201 O2    s       0.000109      0.000320      0.000429      0.000000
    202 O2    s       0.000267     -0.000065      0.000072      0.000000
    203 O2    s       0.000664      0.000283      0.000828      0.000000
    204 O2    s       0.000258      0.000257     -0.000009      0.000000
    205 O2    s       0.001481      0.000754     -0.001313      0.000000
    206 O2    s       0.000064      0.000064     -0.000469      0.000000
    207 O2    s       0.000153      0.000047     -0.000337      0.000000
    208 O2    s       0.000737      0.000147     -0.000089      0.000000
    209 O2    s       0.000197     -0.000041      0.000019      0.000000
    210 O2    s       0.000287      0.000685      0.001378      0.000000
    211 O2    s       0.000384      0.000076      0.000564      0.000000
    212 O3    s       0.001721     -0.001462     -0.001147      0.000000
    213 O3    s       0.000157      0.000047      0.000343      0.000000
    214 O2    s       0.000373      0.000661      0.000207      0.000000
    215 O2    s       0.000305      0.000034      0.000268      0.000000
    216 O2    s       0.000692      0.000149      0.000379      0.000000
    217 O2    s       0.000090      0.000411      0.000923      0.000000
    218 O2    s       0.000219      0.000058      0.000274      0.000000
    219 O2    s       0.000008      0.000160     -0.000697      0.000000
    220 O3    s      -0.000189      0.000416      0.000585      0.000000
    221 O2    s       0.000347      0.000349      0.001874      0.000000
    222 O2    s       0.000315      0.000009      0.000263      0.000000
    223 O2    s      -0.000654      0.000810      0.000645      0.000000
    224 O2    s       0.000342      0.000424     -0.000135      0.000000
    225 O2    s       0.000087     -0.000137      0.000211      0.000000
    226 O2    s       0.000052      0.000078      0.000591      0.000000
    227 O2    s      -0.000084      0.000467      0.000413      0.000000
    228 O2    s       0.000199      0.000260      0.001017      0.000000
    229 O2    s       0.000138      0.000164     -0.000214      0.000000
    230 O2    s      -0.000646     -0.000259      0.001792      0.000000
    231 O3    s      -0.000201      0.000150      0.000073      0.000000
    232 O2    s       0.000144     -0.000107     -0.000572      0.000000
    233 O2    s       0.000153      0.000103     -0.000275      0.000000
    234 O2    s       0.000605     -0.000014      0.000114      0.000000
    235 O2    s       0.000263      0.000456      0.000255      0.000000
    236 O2    s      -0.000053      0.000047      0.000178      0.000000
    237 O2    s       0.000617     -0.000016     -0.000714      0.000000
    238 O2    s       0.000156     -0.000286     -0.000068      0.000000
    239 O3    s      -0.000112      0.000113      0.002984      0.000000
    240 O2    s       0.000120      0.000180      0.000457      0.000000
    241 O2    s       0.000255     -0.000004     -0.000198      0.000000
    242 O2    s       0.000158      0.000032      0.000350      0.000000
    243 O2    s       0.000182     -0.000146     -0.000036      0.000000
    244 O2    s       0.000278     -0.000079      0.000015      0.000000
    245 O2    s       0.000140      0.000010     -0.000227      0.000000
    246 O2    s       0.001099      0.000858      0.002133      0.000000
    247 O2    s       0.000548      0.000194      0.000655      0.000000
    248 O3    s       0.000564     -0.000069     -0.001674      0.000000
    249 O2    s      -0.000281      0.000151      0.000554      0.000000
    250 O2    s       0.000351      0.000051     -0.000021      0.000000
    251 O2    s       0.000141      0.000322      0.000501      0.000000
    252 O2    s       0.000971      0.000220      0.000401      0.000000
    253 O3    s       0.001821     -0.000974     -0.000307      0.000000
    254 O2    s       0.000039      0.000462      0.000417      0.000000
    255 O2    s       0.000326     -0.000191      0.000404      0.000000
    256 O2    s       0.000039      0.000127      0.000458      0.000000
    257 O2    s       0.000425     -0.000055      0.000879      0.000000
    258 O2    s       0.000379      0.000281      0.000682      0.000000
    259 O2    s       0.000285      0.000108     -0.000311      0.000000
    260 O2    s       0.000301     -0.000027      0.000367      0.000000
    261 O2    s      -0.000056      0.000505     -0.000599      0.000000
    262 O2    s      -0.000008      0.000011     -0.000886      0.000000
    263 O2    s      -0.000007      0.000193     -0.000310      0.000000
    264 O2    s       0.000711      0.000301      0.003442      0.000000
    265 O1    s      -0.001105      0.001864     -0.002816      0.000000
    266 O2    s      -0.000039      0.000379      0.000650      0.000000
    267 O2    s      -0.000034     -0.000030      0.000389      0.000000
    268 O2    s       0.000033      0.000483      0.000692      0.000000
    269 O2    s       0.000100      0.000210      0.000458      0.000000
    270 O2    s       0.000576      0.000057      0.000713      0.000000
    271 O2    s       0.000575      0.000379      0.000057      0.000000
    272 O2    s       0.000400      0.000008     -0.000148      0.000000
    273 O2    s      -0.000026     -0.000011      0.000076      0.000000
    274 O2    s       0.000449     -0.000063     -0.000360      0.000000
    275 O2    s       0.000011      0.000202     -0.000408      0.000000
    276 O2    s       0.000468     -0.000066      0.003895      0.000000
    277 O2    s       0.000104      0.000419     -0.000101      0.000000
    278 O2    s       0.000412     -0.000020      0.000155      0.000000
    279 O2    s       0.000225     -0.000010     -0.000107      0.000000
    280 O2    s       0.000154     -0.000031      0.000313      0.000000
    281 O2    s       0.000411     -0.000224     -0.000033      0.000000
    282 O2    s       0.000722      0.000191     -0.001504      0.000000
    283 O2    s       0.000430      0.000130      0.000061      0.000000
    284 O3    s       0.000440      0.002189      0.008378      0.000000
    285 O2    s      -0.000294      0.000183      0.000067      0.000000
    286 O2    s       0.000547     -0.000268     -0.000608      0.000000
    287 O2    s      -0.000158      0.000416     -0.000214      0.000000
    288 O2    s       0.000462      0.000007     -0.000112      0.000000
    289 O2    s       0.000614     -0.000447     -0.000429      0.000000
    290 O2    s       0.000771      0.000458     -0.000414      0.000000
    291 O2    s       0.000033      0.000041     -0.000523      0.000000
    292 O2    s       0.000334      0.000031     -0.000243      0.000000
    293 O2    s       0.000412      0.000306     -0.000395      0.000000
    294 O2    s       0.000331     -0.000469      0.001823      0.000000
    295 O2    s       0.000140      0.000057      0.001013      0.000000
    296 O2    s       0.001823      0.000403      0.000993      0.000000
    297 O2    s       0.000046      0.000030      0.000873      0.000000
    298 O2    s      -0.000045      0.000371      0.000028      0.000000
    299 O2    s       0.000216     -0.000203      0.000506      0.000000
    300 O2    s       0.000225      0.000078      0.000285      0.000000
    301 O2    s       0.000077      0.000097     -0.000201      0.000000
    302 O2    s       0.000360     -0.000007     -0.000062      0.000000
    303 O2    s       0.000191      0.000049     -0.001138      0.000000
    304 O2    s       0.000055      0.000218      0.000429      0.000000
    305 O2    s       0.001032     -0.000332      0.000743      0.000000
    306 O2    s       0.000474     -0.000148     -0.000200      0.000000
    307 F     s      -0.000022      0.000137     -0.000058      0.000000
    308 F     s       0.000115     -0.000123     -0.000006      0.000000
    309 F     s      -0.000027      0.000102      0.000325      0.000000
    310 F     s       0.000098     -0.000092     -0.000180      0.000000
    311 F     s      -0.003054     -0.000812     -0.006208      0.000000
    312 F     s       0.000061      0.000009     -0.000040      0.000000
--------------------------------------------------------------------------------
  Maximum abs         0.003054      0.002240      0.008378      0.000000
--------------------------------------------------------------------------------


  Time to end of optimisation =    1295.7472 seconds


  Peak dynamic memory used =      19.13 MB 


  Timing analysis for GULP :

--------------------------------------------------------------------------------
  Task / Subroutine                                          Time (Seconds)
--------------------------------------------------------------------------------
  Calculation of reciprocal space energy and derivatives         29.9723
  Calculation of real space energy and derivatives             1136.3320
  Calculation of three-body energy and derivatives              115.0750
  Calculation of matrix inversion                                12.6571
  Global summation overhead                                       0.0021
--------------------------------------------------------------------------------
  Total CPU time                                               1295.7473
--------------------------------------------------------------------------------


  Dump file written as out.res                                                 
  CIF file written as out.cif                                                 


  Job Finished at 08:54.32 11th November   2016                               

