********************************************************************************
*                       GENERAL UTILITY LATTICE PROGRAM                        *
*                                 Julian Gale                                  *
*                      Nanochemistry Research Institute                        *
*                           Department of Chemistry                            *
*                    Curtin University, Western Australia                      *
********************************************************************************
* Version = 4.2.0 * Last modified =  20th January 2014                         *
********************************************************************************
*  optimise     - perform optimisation run                                     *
*  conp         - constant pressure calculation                                *
*  qok          - running with non charge neutral cell is OK                   *
********************************************************************************

  Job Started  at 11:34.06 12th November   2016                               

  Number of CPUs =     1


  Total number of configurations input =   1

********************************************************************************
*  Input for Configuration =   1                                               *
********************************************************************************

  Formula = Ge3Si57O120F6                                               

  Number of irreducible atoms/shells =     312


  Total number atoms/shells =     312

  Dimensionality = 3               :  Bulk   


  Charge on solid   =  -6.000000 =>neutralising background added


  Cartesian lattice vectors (Angstroms) :

       11.967934    0.000000    0.000000
       -6.026141   10.385866    0.000000
       -0.179125   -0.218229   29.473153

  Cell parameters (Angstroms/Degrees):

  a =      11.9679    alpha =  90.1922
  b =      12.0075    beta  =  90.3482
  c =      29.4745    gamma = 120.1234

  Initial cell volume =        3663.434913 Angs**3

  Temperature of configuration =  0.000     K 

  Pressure of configuration =         0.000 GPa 

  Fractional coordinates of asymmetric unit :

--------------------------------------------------------------------------------
   No.  Atomic       x           y          z         Charge      Occupancy
        Label      (Frac)      (Frac)     (Frac)        (e)         (Frac)  
--------------------------------------------------------------------------------
      1 Ge    c    0.699600    0.375700    0.033890     4.00000    1.000000    
      2 Si    c    0.614952 *  0.318581 *  0.366233 *   4.00000    1.000000    
      3 Si    c    0.678280 *  0.299197 *  0.697785 *   4.00000    1.000000    
      4 Si    c    0.293304 *  0.621525 *  0.528993 *   4.00000    1.000000    
      5 Si    c    0.368673 *  0.671610 *  0.861137 *   4.00000    1.000000    
      6 Si    c    0.313590 *  0.699620 *  0.195457 *   4.00000    1.000000    
      7 Si    c    0.363080 *  0.691855 *  0.296424 *   4.00000    1.000000    
      8 Si    c    0.315104 *  0.622518 *  0.961602 *   4.00000    1.000000    
      9 Si    c    0.299008 *  0.678686 *  0.629834 *   4.00000    1.000000    
     10 Si    c    0.619182 *  0.297876 *  0.797775 *   4.00000    1.000000    
     11 Si    c    0.672931 *  0.382941 *  0.466163 *   4.00000    1.000000    
     12 Si    c    0.681238 *  0.314660 *  0.132327 *   4.00000    1.000000    
     13 Si    c    0.527840 *  0.419090 *  0.966584 *   4.00000    1.000000    
     14 Si    c    0.571069 *  0.105356 *  0.302119 *   4.00000    1.000000    
     15 Si    c    0.887821 *  0.472484 *  0.632992 *   4.00000    1.000000    
     16 Si    c    0.464024 *  0.584710 *  0.463025 *   4.00000    1.000000    
     17 Si    c    0.413771 *  0.883582 *  0.796424 *   4.00000    1.000000    
     18 Si    c    0.102851 *  0.529916 *  0.127820 *   4.00000    1.000000    
     19 Si    c    0.407915 *  0.524861 *  0.361425 *   4.00000    1.000000    
     20 Si    c    0.098603 *  0.580234 *  0.024561 *   4.00000    1.000000    
     21 Si    c    0.471964 *  0.889445 *  0.695015 *   4.00000    1.000000    
     22 Si    c    0.575030 *  0.463850 *  0.863988 *   4.00000    1.000000    
     23 Si    c    0.883890 *  0.419216 *  0.531256 *   4.00000    1.000000    
     24 Si    c    0.522834 *  0.108835 *  0.200606 *   4.00000    1.000000    
     25 Si    c    0.294129 *  0.394386 *  0.849142 *   4.00000    1.000000    
     26 Si    c    0.594462 *  0.901060 *  0.184333 *   4.00000    1.000000    
     27 Si    c    0.091416 *  0.698377 *  0.516142 *   4.00000    1.000000    
     28 Si    c    0.687504 *  0.592117 *  0.348171 *   4.00000    1.000000    
     29 Si    c    0.400087 *  0.097395 *  0.680650 *   4.00000    1.000000    
     30 Si    c    0.886154 *  0.291880 *  0.009643 *   4.00000    1.000000    
     31 Si    c    0.393676 *  0.305912 *  0.479802 *   4.00000    1.000000    
     32 Si    c    0.887704 *  0.599925 *  0.141792 *   4.00000    1.000000    
     33 Si    c    0.693632 *  0.095953 *  0.812685 *   4.00000    1.000000    
     34 Si    c    0.593957 *  0.701045 *  0.976418 *   4.00000    1.000000    
     35 Si    c    0.098017 *  0.401476 *  0.645312 *   4.00000    1.000000    
     36 Si    c    0.289252 *  0.894330 *  0.312414 *   4.00000    1.000000    
     37 Si    c    0.247842 *  0.343592 *  0.949725 *   4.00000    1.000000    
     38 Si    c    0.645007 *  0.902838 *  0.285498 *   4.00000    1.000000    
     39 Si    c    0.088932 *  0.750595 *  0.616886 *   4.00000    1.000000    
     40 Si    c    0.743219 *  0.661846 *  0.448012 *   4.00000    1.000000    
     41 Si    c    0.339722 *  0.086722 *  0.780959 *   4.00000    1.000000    
     42 Si    c    0.897597 *  0.247943 *  0.112783 *   4.00000    1.000000    
     43 Si    c    0.334904 *  0.249109 *  0.379241 *   4.00000    1.000000    
     44 Si    c    0.894276 *  0.659838 *  0.039301 *   4.00000    1.000000    
     45 Si    c    0.750552 *  0.090879 *  0.712692 *   4.00000    1.000000    
     46 Si    c    0.648701 *  0.742143 *  0.875635 *   4.00000    1.000000    
     47 Si    c    0.084998 *  0.341294 *  0.544607 *   4.00000    1.000000    
     48 Si    c    0.242414 *  0.907395 *  0.211646 *   4.00000    1.000000    
     49 Si    c    0.973043 *  0.121449 *  0.963962 *   4.00000    1.000000    
     50 Ge    c    0.867658 *  0.842012 *  0.297830 *   4.00000    1.000000    
     51 Si    c    0.150883 *  0.030572 *  0.630369 *   4.00000    1.000000    
     52 Si    c    0.024073 *  0.878586 *  0.464955 *   4.00000    1.000000    
     53 Si    c    0.121813 *  0.147244 *  0.795854 *   4.00000    1.000000    
     54 Si    c    0.840179 *  0.971180 *  0.130626 *   4.00000    1.000000    
     55 Si    c    0.117226 *  0.968647 *  0.364128 *   4.00000    1.000000    
     56 Si    c    0.841808 *  0.882249 *  0.029037 *   4.00000    1.000000    
     57 Si    c    0.030773 *  0.153600 *  0.695085 *   4.00000    1.000000    
     58 Ge    c    0.874605 *  0.022730 *  0.861657 *   4.00000    1.000000    
     59 Si    c    0.146490 *  0.123465 *  0.529875 *   4.00000    1.000000    
     60 Si    c    0.964922 *  0.850568 *  0.193938 *   4.00000    1.000000    
     61 O2    c    0.928357 *  0.008807 *  0.000407 *   0.87073    1.000000    
     62 O3    c    0.997888 *  0.934352 *  0.332070 *   1.33043    1.000000    
     63 O2    c    0.069702 *  0.073399 *  0.661524 *   0.87073    1.000000    
     64 O2    c    0.066748 *  0.002017 *  0.496839 *   0.87073    1.000000    
     65 O3    c    0.998658 *  0.059214 *  0.825115 *   1.33043    1.000000    
     66 O2    c    0.927619 *  0.934887 *  0.161644 *   0.87073    1.000000    
     67 O2    c    0.327317 *  0.568411 *  0.328322 *   0.87073    1.000000    
     68 O2    c    0.424335 *  0.764959 *  0.661861 *   0.87073    1.000000    
     69 O2    c    0.225665 *  0.657625 *  0.993487 *   0.87073    1.000000    
     70 O2    c    0.653747 *  0.417413 *  0.831696 *   0.87073    1.000000    
     71 O2    c    0.574434 *  0.237594 *  0.170780 *   0.87073    1.000000    
     72 O2    c    0.755766 *  0.344232 *  0.499477 *   0.87073    1.000000    
     73 O3    c    0.565558 *  0.339279 *  0.999100 *   1.33043    1.000000    
     74 O2    c    0.763706 *  0.422937 *  0.665736 *   0.87073    1.000000    
     75 O2    c    0.650460 *  0.228854 *  0.335254 *   0.87073    1.000000    
     76 O2    c    0.414296 *  0.660648 *  0.495239 *   0.87073    1.000000    
     77 O2    c    0.228371 *  0.580201 *  0.160564 *   0.87073    1.000000    
     78 O2    c    0.333008 *  0.756872 *  0.827542 *   0.87073    1.000000    
     79 O2    c    0.125720 *  0.217675 *  0.971496 *   0.87073    1.000000    
     80 O3    c    0.768014 *  0.904492 *  0.307236 *   1.33043    1.000000    
     81 O2    c    0.089298 *  0.877091 *  0.636710 *   0.87073    1.000000    
     82 O2    c    0.868972 *  0.789373 *  0.468272 *   0.87073    1.000000    
     83 O2    c    0.214616 *  0.086559 *  0.801093 *   0.87073    1.000000    
     84 O2    c    0.901249 *  0.125501 *  0.134035 *   0.87073    1.000000    
     85 O2    c    0.210905 *  0.121836 *  0.358991 *   0.87073    1.000000    
     86 O2    c    0.909735 *  0.796419 *  0.023583 *   0.87073    1.000000    
     87 O2    c    0.875971 *  0.090984 *  0.691945 *   0.87073    1.000000    
     88 O3    c    0.773316 *  0.860309 *  0.853646 *   1.33043    1.000000    
     89 O2    c    0.082095 *  0.213255 *  0.524897 *   0.87073    1.000000    
     90 O2    c    0.119242 *  0.910321 *  0.189936 *   0.87073    1.000000    
     91 O3    c    0.924456 *  0.864184 *  0.243605 *   1.33043    1.000000    
     92 O2    c    0.135781 *  0.067759 *  0.579639 *   0.87073    1.000000    
     93 O3    c    0.941593 *  0.058097 *  0.915010 *   1.33043    1.000000    
     94 O2    c    0.076325 *  0.141252 *  0.744476 *   0.87073    1.000000    
     95 O2    c    0.843475 *  0.925433 *  0.080417 *   0.87073    1.000000    
     96 O2    c    0.067202 *  0.929651 *  0.414756 *   0.87073    1.000000    
     97 O2    c    0.899332 *  0.201459 *  0.971727 *   0.87073    1.000000    
     98 O3    c    0.783514 *  0.680034 *  0.308691 *   1.33043    1.000000    
     99 O2    c    0.303340 *  0.100540 *  0.642226 *   0.87073    1.000000    
    100 O2    c    0.091497 *  0.795827 *  0.478102 *   0.87073    1.000000    
    101 O2    c    0.196480 *  0.296791 *  0.810680 *   0.87073    1.000000    
    102 O2    c    0.691258 *  0.901030 *  0.146146 *   0.87073    1.000000    
    103 O2    c    0.191735 *  0.892246 *  0.350737 *   0.87073    1.000000    
    104 O2    c    0.691819 *  0.802810 *  0.014202 *   0.87073    1.000000    
    105 O2    c    0.100375 *  0.304841 *  0.683123 *   0.87073    1.000000    
    106 O3    c    0.789273 *  0.100585 *  0.852201 *   1.33043    1.000000    
    107 O2    c    0.298153 *  0.209078 *  0.518216 *   0.87073    1.000000    
    108 O2    c    0.893166 *  0.699435 *  0.180301 *   0.87073    1.000000    
    109 O2    c    0.309669 *  0.637671 *  0.245124 *   0.87073    1.000000    
    110 O2    c    0.353582 *  0.678534 *  0.579180 *   0.87073    1.000000    
    111 O2    c    0.311133 *  0.675749 *  0.910994 *   0.87073    1.000000    
    112 O2    c    0.676848 *  0.356710 *  0.747876 *   0.87073    1.000000    
    113 O3    c    0.611083 *  0.302184 *  0.085091 *   1.33043    1.000000    
    114 O2    c    0.672760 *  0.322028 *  0.416623 *   0.87073    1.000000    
    115 O2    c    0.370384 *  0.335578 *  0.967435 *   0.87073    1.000000    
    116 O2    c    0.656244 *  0.035227 *  0.303904 *   0.87073    1.000000    
    117 O2    c    0.957344 *  0.628698 *  0.635734 *   0.87073    1.000000    
    118 O2    c    0.620684 *  0.672560 *  0.465631 *   0.87073    1.000000    
    119 O2    c    0.328027 *  0.953829 *  0.798751 *   0.87073    1.000000    
    120 O2    c    0.029954 *  0.374265 *  0.129659 *   0.87073    1.000000    
    121 O2    c    0.322528 *  0.368621 *  0.359616 *   0.87073    1.000000    
    122 O2    c    0.027596 *  0.664715 *  0.023587 *   0.87073    1.000000    
    123 O2    c    0.628553 *  0.959231 *  0.692998 *   0.87073    1.000000    
    124 O2    c    0.658462 *  0.618668 *  0.859381 *   0.87073    1.000000    
    125 O2    c    0.951434 *  0.331088 *  0.526890 *   0.87073    1.000000    
    126 O2    c    0.366803 *  0.039404 *  0.194918 *   0.87073    1.000000    
    127 O3    c    0.751292 *  0.282406 *  0.001457 *   1.33043    1.000000    
    128 O2    c    0.689072 *  0.458709 *  0.342408 *   0.87073    1.000000    
    129 O2    c    0.535591 *  0.230567 *  0.674168 *   0.87073    1.000000    
    130 O2    c    0.224076 *  0.696532 *  0.507522 *   0.87073    1.000000    
    131 O2    c    0.293987 *  0.527321 *  0.839298 *   0.87073    1.000000    
    132 O2    c    0.458138 *  0.769602 *  0.174416 *   0.87073    1.000000    
    133 O2    c    0.286375 *  0.758625 *  0.318319 *   0.87073    1.000000    
    134 O2    c    0.459315 *  0.701389 *  0.983889 *   0.87073    1.000000    
    135 O2    c    0.232448 *  0.536039 *  0.652168 *   0.87073    1.000000    
    136 O2    c    0.694125 *  0.229818 *  0.819792 *   0.87073    1.000000    
    137 O2    c    0.529424 *  0.310001 *  0.487985 *   0.87073    1.000000    
    138 O2    c    0.756846 *  0.464720 *  0.150425 *   0.87073    1.000000    
    139 O3    c    0.768851 *  0.545052 *  0.018137 *   1.33043    1.000000    
    140 O2    c    0.459146 *  0.245060 *  0.360725 *   0.87073    1.000000    
    141 O2    c    0.754078 *  0.218980 *  0.694023 *   0.87073    1.000000    
    142 O2    c    0.210723 *  0.465412 *  0.524273 *   0.87073    1.000000    
    143 O2    c    0.524372 *  0.745516 *  0.855826 *   0.87073    1.000000    
    144 O2    c    0.238388 *  0.780104 *  0.191453 *   0.87073    1.000000    
    145 O2    c    0.518274 *  0.775089 *  0.303009 *   0.87073    1.000000    
    146 O2    c    0.242524 *  0.467702 *  0.968370 *   0.87073    1.000000    
    147 O2    c    0.216478 *  0.751764 *  0.635482 *   0.87073    1.000000    
    148 O2    c    0.463445 *  0.213631 *  0.801187 *   0.87073    1.000000    
    149 O2    c    0.746416 *  0.539108 *  0.468720 *   0.87073    1.000000    
    150 O2    c    0.774709 *  0.251497 *  0.132656 *   0.87073    1.000000    
    151 O2    c    0.221648 *  0.322801 *  0.895444 *   0.87073    1.000000    
    152 O2    c    0.665441 *  0.899713 *  0.231103 *   0.87073    1.000000    
    153 O2    c    0.088687 *  0.768819 *  0.562620 *   0.87073    1.000000    
    154 O2    c    0.761737 *  0.676303 *  0.393407 *   0.87073    1.000000    
    155 O2    c    0.323827 *  0.090164 *  0.726593 *   0.87073    1.000000    
    156 O2    c    0.894030 *  0.231470 *  0.058530 *   0.87073    1.000000    
    157 O2    c    0.318536 *  0.233797 *  0.433537 *   0.87073    1.000000    
    158 O2    c    0.887716 *  0.666249 *  0.094676 *   0.87073    1.000000    
    159 O2    c    0.768073 *  0.089746 *  0.767284 *   0.87073    1.000000    
    160 O2    c    0.668267 *  0.769695 *  0.929952 *   0.87073    1.000000    
    161 O2    c    0.090382 *  0.325801 *  0.598789 *   0.87073    1.000000    
    162 O2    c    0.220125 *  0.902233 *  0.265909 *   0.87073    1.000000    
    163 O2    c    0.580345 *  0.563625 *  0.986827 *   0.87073    1.000000    
    164 O2    c    0.428486 *  0.018280 *  0.323424 *   0.87073    1.000000    
    165 O2    c    0.973854 *  0.416528 *  0.655099 *   0.87073    1.000000    
    166 O2    c    0.408032 *  0.445540 *  0.486960 *   0.87073    1.000000    
    167 O2    c    0.554471 *  0.968844 *  0.820414 *   0.87073    1.000000    
    168 O2    c    0.011343 *  0.581124 *  0.147555 *   0.87073    1.000000    
    169 O2    c    0.548660 *  0.580080 *  0.338294 *   0.87073    1.000000    
    170 O2    c    0.007217 *  0.437906 *  0.003742 *   0.87073    1.000000    
    171 O2    c    0.414801 *  0.972874 *  0.671472 *   0.87073    1.000000    
    172 O2    c    0.431811 *  0.403555 *  0.841661 *   0.87073    1.000000    
    173 O2    c    0.965082 *  0.559214 *  0.507579 *   0.87073    1.000000    
    174 O2    c    0.584495 *  0.029135 *  0.177319 *   0.87073    1.000000    
    175 O2    c    0.571462 *  0.160384 *  0.251869 *   0.87073    1.000000    
    176 O2    c    0.832586 *  0.418871 *  0.582197 *   0.87073    1.000000    
    177 O2    c    0.579075 *  0.418269 *  0.915272 *   0.87073    1.000000    
    178 O2    c    0.416835 *  0.833974 *  0.745220 *   0.87073    1.000000    
    179 O2    c    0.145920 *  0.576586 *  0.076289 *   0.87073    1.000000    
    180 O2    c    0.409677 *  0.581368 *  0.411909 *   0.87073    1.000000    
    181 F     c    0.439792 *  0.897470 *  0.247706 *   0.56000    1.000000    
    182 F     c    0.093875 *  0.548813 *  0.580087 *   0.56000    1.000000    
    183 F     c    0.440887 *  0.550630 *  0.912214 *   0.56000    1.000000    
    184 F     c    0.550083 *  0.096246 *  0.746478 *   0.56000    1.000000    
    185 F     c    0.849077 *  0.433682 *  0.069362 *   0.56000    1.000000    
    186 F     c    0.544324 *  0.453768 *  0.412847 *   0.56000    1.000000    
    187 O2    s    0.923401 *  0.006887 *  0.999621 *  -2.87073    1.000000    
    188 O3    s    0.999424 *  0.929961 *  0.332549 *  -3.33043    1.000000    
    189 O2    s    0.074471 *  0.077483 *  0.661748 *  -2.87073    1.000000    
    190 O2    s    0.070847 *  0.001755 *  0.496962 *  -2.87073    1.000000    
    191 O3    s    0.001263 *  0.065618 *  0.825112 *  -3.33043    1.000000    
    192 O2    s    0.922003 *  0.929710 *  0.161725 *  -2.87073    1.000000    
    193 O2    s    0.339050 *  0.576608 *  0.328387 *  -2.87073    1.000000    
    194 O2    s    0.416269 *  0.768747 *  0.661925 *  -2.87073    1.000000    
    195 O2    s    0.221302 *  0.646069 *  0.993559 *  -2.87073    1.000000    
    196 O2    s    0.642098 *  0.409687 *  0.831451 *  -2.87073    1.000000    
    197 O2    s    0.580172 *  0.232024 *  0.169900 *  -2.87073    1.000000    
    198 O2    s    0.760333 *  0.356018 *  0.499265 *  -2.87073    1.000000    
    199 O3    s    0.571404 *  0.350461 *  0.998200 *  -3.33043    1.000000    
    200 O2    s    0.767861 *  0.415458 *  0.665621 *  -2.87073    1.000000    
    201 O2    s    0.638543 *  0.225238 *  0.335002 *  -2.87073    1.000000    
    202 O2    s    0.407120 *  0.648852 *  0.495362 *  -2.87073    1.000000    
    203 O2    s    0.223790 *  0.586882 *  0.160645 *  -2.87073    1.000000    
    204 O2    s    0.344884 *  0.761246 *  0.827749 *  -2.87073    1.000000    
    205 O2    s    0.121943 *  0.220355 *  0.968470 *  -2.87073    1.000000    
    206 O3    s    0.763683 *  0.899157 *  0.304263 *  -3.33043    1.000000    
    207 O2    s    0.095755 *  0.880199 *  0.634022 *  -2.87073    1.000000    
    208 O2    s    0.872425 *  0.785671 *  0.465853 *  -2.87073    1.000000    
    209 O2    s    0.218057 *  0.093062 *  0.798407 *  -2.87073    1.000000    
    210 O2    s    0.894448 *  0.122023 *  0.131490 *  -2.87073    1.000000    
    211 O2    s    0.214141 *  0.119034 *  0.361685 *  -2.87073    1.000000    
    212 O2    s    0.900861 *  0.791647 *  0.025761 *  -2.87073    1.000000    
    213 O2    s    0.879512 *  0.097644 *  0.694395 *  -2.87073    1.000000    
    214 O3    s    0.769238 *  0.861977 *  0.856502 *  -3.33043    1.000000    
    215 O2    s    0.089196 *  0.216894 *  0.527416 *  -2.87073    1.000000    
    216 O2    s    0.115787 *  0.903694 *  0.192597 *  -2.87073    1.000000    
    217 O3    s    0.923884 *  0.860736 *  0.242933 *  -3.33043    1.000000    
    218 O2    s    0.138692 *  0.069918 *  0.579681 *  -2.87073    1.000000    
    219 O3    s    0.939203 *  0.061847 *  0.915680 *  -3.33043    1.000000    
    220 O2    s    0.076138 *  0.143375 *  0.744508 *  -2.87073    1.000000    
    221 O2    s    0.842911 *  0.925935 *  0.080497 *  -2.87073    1.000000    
    222 O2    s    0.067936 *  0.928219 *  0.414762 *  -2.87073    1.000000    
    223 O2    s    0.905748 *  0.202414 *  0.974827 *  -2.87073    1.000000    
    224 O3    s    0.781377 *  0.685112 *  0.311538 *  -3.33043    1.000000    
    225 O2    s    0.297028 *  0.092839 *  0.644853 *  -2.87073    1.000000    
    226 O2    s    0.084243 *  0.794669 *  0.480613 *  -2.87073    1.000000    
    227 O2    s    0.198576 *  0.290883 *  0.813092 *  -2.87073    1.000000    
    228 O2    s    0.697053 *  0.908501 *  0.148471 *  -2.87073    1.000000    
    229 O2    s    0.193995 *  0.900420 *  0.348160 *  -2.87073    1.000000    
    230 O2    s    0.697928 *  0.800965 *  0.011940 *  -2.87073    1.000000    
    231 O2    s    0.092764 *  0.298819 *  0.680476 *  -2.87073    1.000000    
    232 O3    s    0.787160 *  0.093744 *  0.849208 *  -3.33043    1.000000    
    233 O2    s    0.291958 *  0.210027 *  0.515482 *  -2.87073    1.000000    
    234 O2    s    0.900075 *  0.704935 *  0.177763 *  -2.87073    1.000000    
    235 O2    s    0.315365 *  0.649289 *  0.245233 *  -2.87073    1.000000    
    236 O2    s    0.341910 *  0.672727 *  0.579190 *  -2.87073    1.000000    
    237 O2    s    0.317274 *  0.669954 *  0.911120 *  -2.87073    1.000000    
    238 O2    s    0.671161 *  0.344918 *  0.747830 *  -2.87073    1.000000    
    239 O3    s    0.624103 *  0.308261 *  0.086596 *  -3.33043    1.000000    
    240 O2    s    0.666796 *  0.327906 *  0.416458 *  -2.87073    1.000000    
    241 O2    s    0.372607 *  0.344949 *  0.965347 *  -2.87073    1.000000    
    242 O2    s    0.645978 *  0.028687 *  0.301751 *  -2.87073    1.000000    
    243 O2    s    0.963927 *  0.625397 *  0.633481 *  -2.87073    1.000000    
    244 O2    s    0.617329 *  0.662413 *  0.463512 *  -2.87073    1.000000    
    245 O2    s    0.338133 *  0.960542 *  0.796625 *  -2.87073    1.000000    
    246 O2    s    0.023868 *  0.377427 *  0.127721 *  -2.87073    1.000000    
    247 O2    s    0.332628 *  0.372305 *  0.361856 *  -2.87073    1.000000    
    248 O2    s    0.021832 *  0.655344 *  0.025256 *  -2.87073    1.000000    
    249 O2    s    0.625110 *  0.965754 *  0.695270 *  -2.87073    1.000000    
    250 O2    s    0.648528 *  0.615331 *  0.861614 *  -2.87073    1.000000    
    251 O2    s    0.958409 *  0.341182 *  0.529187 *  -2.87073    1.000000    
    252 O2    s    0.369706 *  0.032535 *  0.197290 *  -2.87073    1.000000    
    253 O3    s    0.762207 *  0.289518 *  0.004518 *  -3.33043    1.000000    
    254 O2    s    0.681147 *  0.458074 *  0.345546 *  -2.87073    1.000000    
    255 O2    s    0.535965 *  0.223599 *  0.677292 *  -2.87073    1.000000    
    256 O2    s    0.217250 *  0.689008 *  0.510667 *  -2.87073    1.000000    
    257 O2    s    0.301670 *  0.528367 *  0.842602 *  -2.87073    1.000000    
    258 O2    s    0.457242 *  0.775907 *  0.177643 *  -2.87073    1.000000    
    259 O2    s    0.294522 *  0.765874 *  0.315410 *  -2.87073    1.000000    
    260 O2    s    0.458241 *  0.693298 *  0.980819 *  -2.87073    1.000000    
    261 O2    s    0.225138 *  0.536520 *  0.649121 *  -2.87073    1.000000    
    262 O2    s    0.686222 *  0.222771 *  0.816686 *  -2.87073    1.000000    
    263 O2    s    0.529855 *  0.317123 *  0.484829 *  -2.87073    1.000000    
    264 O2    s    0.763404 *  0.464536 *  0.147720 *  -2.87073    1.000000    
    265 O3    s    0.778589 *  0.547349 *  0.021387 *  -3.33043    1.000000    
    266 O2    s    0.462067 *  0.253348 *  0.363289 *  -2.87073    1.000000    
    267 O2    s    0.745697 *  0.213512 *  0.696403 *  -2.87073    1.000000    
    268 O2    s    0.205668 *  0.468241 *  0.526915 *  -2.87073    1.000000    
    269 O2    s    0.521343 *  0.737297 *  0.858492 *  -2.87073    1.000000    
    270 O2    s    0.246765 *  0.785312 *  0.194017 *  -2.87073    1.000000    
    271 O2    s    0.515468 *  0.780134 *  0.300437 *  -2.87073    1.000000    
    272 O2    s    0.250708 *  0.470688 *  0.965715 *  -2.87073    1.000000    
    273 O2    s    0.211093 *  0.743952 *  0.632906 *  -2.87073    1.000000    
    274 O2    s    0.466482 *  0.208596 *  0.798622 *  -2.87073    1.000000    
    275 O2    s    0.738273 *  0.535983 *  0.466235 *  -2.87073    1.000000    
    276 O2    s    0.778922 *  0.257528 *  0.130428 *  -2.87073    1.000000    
    277 O2    s    0.231780 *  0.332354 *  0.896245 *  -2.87073    1.000000    
    278 O2    s    0.655939 *  0.900106 *  0.231771 *  -2.87073    1.000000    
    279 O2    s    0.088993 *  0.759434 *  0.563470 *  -2.87073    1.000000    
    280 O2    s    0.752411 *  0.666463 *  0.394481 *  -2.87073    1.000000    
    281 O2    s    0.333571 *  0.090543 *  0.727486 *  -2.87073    1.000000    
    282 O2    s    0.893626 *  0.239176 *  0.059595 *  -2.87073    1.000000    
    283 O2    s    0.328199 *  0.243052 *  0.432626 *  -2.87073    1.000000    
    284 O2    s    0.888305 *  0.658253 *  0.094407 *  -2.87073    1.000000    
    285 O2    s    0.758879 *  0.090411 *  0.766167 *  -2.87073    1.000000    
    286 O2    s    0.658619 *  0.759877 *  0.929182 *  -2.87073    1.000000    
    287 O2    s    0.090603 *  0.335396 *  0.597872 *  -2.87073    1.000000    
    288 O2    s    0.229520 *  0.901929 *  0.265017 *  -2.87073    1.000000    
    289 O2    s    0.576244 *  0.564016 *  0.983608 *  -2.87073    1.000000    
    290 O2    s    0.428456 *  0.013890 *  0.319986 *  -2.87073    1.000000    
    291 O2    s    0.978384 *  0.420969 *  0.651707 *  -2.87073    1.000000    
    292 O2    s    0.412501 *  0.444956 *  0.483674 *  -2.87073    1.000000    
    293 O2    s    0.554629 *  0.973650 *  0.817083 *  -2.87073    1.000000    
    294 O2    s    0.007858 *  0.577530 *  0.144823 *  -2.87073    1.000000    
    295 O2    s    0.548703 *  0.575464 *  0.341746 *  -2.87073    1.000000    
    296 O2    s    0.004554 *  0.438367 *  0.006584 *  -2.87073    1.000000    
    297 O2    s    0.419313 *  0.977797 *  0.674897 *  -2.87073    1.000000    
    298 O2    s    0.431906 *  0.409005 *  0.844809 *  -2.87073    1.000000    
    299 O2    s    0.970416 *  0.559630 *  0.510975 *  -2.87073    1.000000    
    300 O2    s    0.579028 *  0.023538 *  0.180481 *  -2.87073    1.000000    
    301 O2    s    0.566248 *  0.149156 *  0.251733 *  -2.87073    1.000000    
    302 O2    s    0.843657 *  0.424456 *  0.582146 *  -2.87073    1.000000    
    303 O2    s    0.573582 *  0.423187 *  0.914946 *  -2.87073    1.000000    
    304 O2    s    0.422228 *  0.844829 *  0.745302 *  -2.87073    1.000000    
    305 O2    s    0.136606 *  0.572012 *  0.076537 *  -2.87073    1.000000    
    306 O2    s    0.415067 *  0.575917 *  0.411957 *  -2.87073    1.000000    
    307 F     s    0.439486 *  0.897071 *  0.247630 *  -1.56000    1.000000    
    308 F     s    0.094181 *  0.548914 *  0.580013 *  -1.56000    1.000000    
    309 F     s    0.440266 *  0.551243 *  0.912116 *  -1.56000    1.000000    
    310 F     s    0.550502 *  0.096672 *  0.746461 *  -1.56000    1.000000    
    311 F     s    0.838382 *  0.429551 *  0.066982 *  -1.56000    1.000000    
    312 F     s    0.544782 *  0.453809 *  0.412702 *  -1.56000    1.000000    
--------------------------------------------------------------------------------



********************************************************************************
*  General input information                                                   *
********************************************************************************

  Species output for all configurations : 

--------------------------------------------------------------------------------
  Species    Type    Atomic    Atomic    Charge       Radii (Angs)     Library
                     Number     Mass       (e)     Cova   Ionic  VDW   Symbol
--------------------------------------------------------------------------------
    Si       Core       14      28.09   4.000000   1.200  0.000  2.100          
    O1       Core        8      16.00   1.733957   0.730  0.000  1.360          
    O1       Shell       8       0.00  -3.733957   0.730  0.000  1.360          
    O2       Core        8      16.00   0.870733   0.730  0.000  1.360          
    O2       Shell       8       0.00  -2.870733   0.730  0.000  1.360          
    O3       Core        8      16.00   1.330431   0.730  0.000  1.360          
    O3       Shell       8       0.00  -3.330431   0.730  0.000  1.360          
    F        Core        9      19.00   0.560000   0.710  0.000  1.300          
    F        Shell       9       0.00  -1.560000   0.710  0.000  1.300          
    Ge       Core       32      72.61   4.000000   1.170  0.000  1.750          
--------------------------------------------------------------------------------


  Lattice summation method               =    Ewald          (3-D)
                                         =    Parry          (2-D)
                                         =    Saunders et al (1-D)
  Accuracy factor for lattice sums       =   12.000


  Time limit = Infinity

  Maximum range for interatomic potentials =        16.000000 Angstroms

  Taper potentials to zero over   1.0000 Angstroms using polynomial

  General interatomic potentials :

--------------------------------------------------------------------------------
Atom  Types   Potential         A         B         C         D     Cutoffs(Ang)
  1     2                                                            Min    Max 
--------------------------------------------------------------------------------
Si   c O1   s Buckingham    0.132E+04 0.318      10.1      0.00     0.000 16.000
Si   c O2   s Buckingham    0.132E+04 0.318      10.1      0.00     0.000 16.000
Si   c O3   s Buckingham    0.132E+04 0.318      10.1      0.00     0.000 16.000
Ge   c O1   s Buckingham    0.150E+04 0.326      16.8      0.00     0.000 16.000
Ge   c O2   s Buckingham    0.150E+04 0.326      16.8      0.00     0.000 16.000
Ge   c O3   s Buckingham    0.150E+04 0.326      16.8      0.00     0.000 16.000
O1   s O1   s Buckingham    0.228E+05 0.149      10.9      0.00     0.000 16.000
O1   s O2   s Buckingham    0.228E+05 0.149      10.9      0.00     0.000 16.000
O1   s O3   s Buckingham    0.228E+05 0.149      10.9      0.00     0.000 16.000
O2   s O2   s Buckingham    0.228E+05 0.149      10.9      0.00     0.000 16.000
O2   s O3   s Buckingham    0.228E+05 0.149      10.9      0.00     0.000 16.000
O3   s O3   s Buckingham    0.228E+05 0.149      10.9      0.00     0.000 16.000
Si   c F    s Buckingham     977.     0.282      0.00      0.00     0.000 16.000
Ge   c F    s Buckingham     681.     0.320      0.00      0.00     0.000 16.000
F    s F    s Buckingham     540.     0.262      0.00      0.00     0.000 16.000
O1   s F    s Buckingham    0.168E+04 0.268      0.00      0.00     0.000 16.000
O2   s F    s Buckingham    0.168E+04 0.268      0.00      0.00     0.000 16.000
O3   s F    s Buckingham    0.168E+04 0.268      0.00      0.00     0.000 16.000
O2   c O2   s Spring (c-s)   76.0      0.00      0.00      0.00     0.000  0.800
O3   c O3   s Spring (c-s)   128.      0.00      0.00      0.00     0.000  0.800
O1   c O1   s Spring (c-s)   180.      0.00      0.00      0.00     0.000  0.800
F    c F    s Spring (c-s)   33.5      0.00      0.00      0.00     0.000  0.800
--------------------------------------------------------------------------------

  General Three-body potentials :

  Harmonic form:

--------------------------------------------------------------------------------
Atom    Atom    Atom           Force Constants            Theta     Cutoffs  
  1       2       3     (eVrad**-2/eVrad**-3/eVrad**-4)   (deg)  1-2  1-3  2-3
--------------------------------------------------------------------------------
Si    c O1    s O1    s  1.261        0.0000    0.0000   109.470 0.00 0.00 0.00
                                                                 1.90 1.90 3.50
Si    c O1    s O2    s  1.261        0.0000    0.0000   109.470 0.00 0.00 0.00
                                                                 1.90 1.90 3.50
Si    c O2    s O2    s  1.261        0.0000    0.0000   109.470 0.00 0.00 0.00
                                                                 1.90 1.90 3.50
--------------------------------------------------------------------------------

********************************************************************************
*  Output for configuration   1                                                *
********************************************************************************


  Components of energy : 

--------------------------------------------------------------------------------
  Interatomic potentials     =        2060.81985776 eV
  Three-body potentials      =           0.46294405 eV
  Monopole - monopole (real) =       -6611.43579312 eV
  Monopole - monopole (recip)=       -3169.43823279 eV
  Monopole - monopole (total)=       -9780.87402592 eV
  Neutralising energy        =          -6.45613275 eV
--------------------------------------------------------------------------------
  Total lattice energy       =       -7726.04735686 eV
--------------------------------------------------------------------------------
  Total lattice energy       =         -745445.4665 kJ/(mole unit cells)
--------------------------------------------------------------------------------


  Number of variables =      939

  Maximum number of calculations  =          5000
  Maximum Hessian update interval =            10
  Maximum step size               =   0.100000000
  Maximum parameter tolerance     =   0.000010000
  Maximum function  tolerance     =   0.000010000
  Maximum gradient  tolerance     =   0.001000000
  Maximum gradient  component     =   0.010000000

  Symmetry not applied to optimisation

  Cell parameters to be optimised using strains

  Newton-Raphson optimiser to be used

  BFGS hessian update to be used

  Dumpfile to be written after every cycle

  Start of bulk optimisation :

  Cycle:      0 Energy:     -7726.047357  Gnorm:      0.000526  CPU:    2.009
  ** Hessian calculated **
  Cycle:      1 Energy:     -7726.060641  Gnorm:      0.000489  CPU:    6.577
  Cycle:      2 Energy:     -7726.076301  Gnorm:      0.000575  CPU:   10.769
  Cycle:      3 Energy:     -7726.093013  Gnorm:      0.000931  CPU:   14.961
  Cycle:      4 Energy:     -7726.101537  Gnorm:      0.001049  CPU:   19.152
  Cycle:      5 Energy:     -7726.103650  Gnorm:      0.000727  CPU:   23.344
  Cycle:      6 Energy:     -7726.104182  Gnorm:      0.000424  CPU:   27.537
  Cycle:      7 Energy:     -7726.104316  Gnorm:      0.000230  CPU:   31.728
  Cycle:      8 Energy:     -7726.104339  Gnorm:      0.000164  CPU:   34.560
  Cycle:      9 Energy:     -7726.104351  Gnorm:      0.000116  CPU:   37.392
  Cycle:     10 Energy:     -7726.104356  Gnorm:      0.000082  CPU:   40.223
  ** Hessian calculated **
  Cycle:     11 Energy:     -7726.104356  Gnorm:      0.000042  CPU:   44.740
  Cycle:     12 Energy:     -7726.104356  Gnorm:      0.000031  CPU:   47.572


  **** Optimisation achieved ****


  Final energy =   -7726.10435632 eV
  Final Gnorm  =       0.00002324

  Components of energy : 

--------------------------------------------------------------------------------
  Interatomic potentials     =        2060.95323602 eV
  Three-body potentials      =           0.45193680 eV
  Monopole - monopole (real) =       -6612.95696564 eV
  Monopole - monopole (recip)=       -3168.09915603 eV
  Monopole - monopole (total)=       -9781.05612168 eV
  Neutralising energy        =          -6.45340745 eV
--------------------------------------------------------------------------------
  Total lattice energy       =       -7726.10435632 eV
--------------------------------------------------------------------------------
  Total lattice energy       =         -745450.9661 kJ/(mole unit cells)
--------------------------------------------------------------------------------

  Final fractional coordinates of atoms :

--------------------------------------------------------------------------------
   No.  Atomic        x           y          z          Radius
        Label       (Frac)      (Frac)     (Frac)       (Angs) 
--------------------------------------------------------------------------------
     1  Ge    c     0.699600    0.375700    0.033890    0.000000
     2  Si    c     0.593448    0.304512    0.366471    0.000000
     3  Si    c     0.658188    0.282225    0.697602    0.000000
     4  Si    c     0.272592    0.606095    0.529841    0.000000
     5  Si    c     0.354365    0.658564    0.862085    0.000000
     6  Si    c     0.297860    0.688336    0.196782    0.000000
     7  Si    c     0.344920    0.680146    0.297836    0.000000
     8  Si    c     0.305588    0.610322    0.962890    0.000000
     9  Si    c     0.278307    0.663045    0.630714    0.000000
    10  Si    c     0.601402    0.283022    0.797700    0.000000
    11  Si    c     0.651748    0.367188    0.466460    0.000000
    12  Si    c     0.668086    0.304733    0.131997    0.000000
    13  Si    c     0.519023    0.407750    0.966503    0.000000
    14  Si    c     0.551857    0.093215    0.301985    0.000000
    15  Si    c     0.867356    0.456520    0.632972    0.000000
    16  Si    c     0.443409    0.569001    0.464185    0.000000
    17  Si    c     0.396115    0.869463    0.797359    0.000000
    18  Si    c     0.089338    0.517904    0.129521    0.000000
    19  Si    c     0.387108    0.510740    0.362607    0.000000
    20  Si    c     0.092096    0.573210    0.026392    0.000000
    21  Si    c     0.452259    0.873312    0.695845    0.000000
    22  Si    c     0.561129    0.451669    0.863553    0.000000
    23  Si    c     0.863435    0.403673    0.531255    0.000000
    24  Si    c     0.506192    0.097506    0.200146    0.000000
    25  Si    c     0.280317    0.381870    0.849500    0.000000
    26  Si    c     0.577808    0.889206    0.185032    0.000000
    27  Si    c     0.070954    0.682805    0.516630    0.000000
    28  Si    c     0.666284    0.578398    0.348682    0.000000
    29  Si    c     0.380165    0.080923    0.681016    0.000000
    30  Si    c     0.880473    0.285806    0.010038    0.000000
    31  Si    c     0.372859    0.290030    0.480512    0.000000
    32  Si    c     0.875241    0.589035    0.143089    0.000000
    33  Si    c     0.675849    0.081187    0.813338    0.000000
    34  Si    c     0.584805    0.689405    0.976481    0.000000
    35  Si    c     0.077236    0.385572    0.645684    0.000000
    36  Si    c     0.270489    0.882477    0.312875    0.000000
    37  Si    c     0.238780    0.331878    0.950413    0.000000
    38  Si    c     0.626255    0.890841    0.286370    0.000000
    39  Si    c     0.068123    0.734649    0.617357    0.000000
    40  Si    c     0.722388    0.646494    0.448667    0.000000
    41  Si    c     0.322032    0.072293    0.781488    0.000000
    42  Si    c     0.884373    0.237080    0.113329    0.000000
    43  Si    c     0.313820    0.234930    0.379921    0.000000
    44  Si    c     0.891278    0.657264    0.040819    0.000000
    45  Si    c     0.730779    0.074349    0.713153    0.000000
    46  Si    c     0.634623    0.729419    0.875388    0.000000
    47  Si    c     0.064493    0.325750    0.544971    0.000000
    48  Si    c     0.226082    0.895746    0.211833    0.000000
    49  Si    c     0.963167    0.112294    0.964361    0.000000
    50  Ge    c     0.847728    0.828576    0.298409    0.000000
    51  Si    c     0.130532    0.014505    0.631092    0.000000
    52  Si    c     0.003269    0.863164    0.465608    0.000000
    53  Si    c     0.105837    0.135080    0.796580    0.000000
    54  Si    c     0.823768    0.959213    0.131457    0.000000
    55  Si    c     0.096975    0.954834    0.364803    0.000000
    56  Si    c     0.831395    0.873807    0.029923    0.000000
    57  Si    c     0.011293    0.138140    0.695909    0.000000
    58  Ge    c     0.858710    0.010489    0.862581    0.000000
    59  Si    c     0.125531    0.107540    0.530512    0.000000
    60  Si    c     0.948457    0.838107    0.194892    0.000000
    61  O2    c     0.916156    0.001495    0.001715    0.000000
    62  O3    c     0.977154    0.919471    0.332991    0.000000
    63  O2    c     0.050729    0.057680    0.662767    0.000000
    64  O2    c     0.045319    0.985902    0.497704    0.000000
    65  O3    c     0.983781    0.048785    0.826469    0.000000
    66  O2    c     0.910037    0.921468    0.162475    0.000000
    67  O2    c     0.307630    0.556332    0.329782    0.000000
    68  O2    c     0.403310    0.748486    0.662868    0.000000
    69  O2    c     0.219707    0.648139    0.995537    0.000000
    70  O2    c     0.637997    0.404009    0.830952    0.000000
    71  O2    c     0.558827    0.225620    0.169698    0.000000
    72  O2    c     0.735485    0.328738    0.499493    0.000000
    73  O3    c     0.563556    0.333791    0.998829    0.000000
    74  O2    c     0.742795    0.405988    0.665465    0.000000
    75  O2    c     0.629990    0.216451    0.335121    0.000000
    76  O2    c     0.394121    0.645087    0.496400    0.000000
    77  O2    c     0.213577    0.567320    0.162617    0.000000
    78  O2    c     0.316676    0.743315    0.828926    0.000000
    79  O2    c     0.116341    0.204740    0.971629    0.000000
    80  O3    c     0.749280    0.892252    0.307955    0.000000
    81  O2    c     0.068331    0.860910    0.637200    0.000000
    82  O2    c     0.848283    0.773654    0.468792    0.000000
    83  O2    c     0.197490    0.073103    0.801594    0.000000
    84  O2    c     0.885677    0.113507    0.134741    0.000000
    85  O2    c     0.189658    0.108087    0.359724    0.000000
    86  O2    c     0.905918    0.793735    0.025610    0.000000
    87  O2    c     0.856478    0.074415    0.692748    0.000000
    88  O3    c     0.758733    0.848552    0.853550    0.000000
    89  O2    c     0.061817    0.197915    0.525314    0.000000
    90  O2    c     0.102635    0.898670    0.190355    0.000000
    91  O3    c     0.907131    0.851268    0.244494    0.000000
    92  O2    c     0.114645    0.052460    0.580484    0.000000
    93  O3    c     0.926003    0.045980    0.915960    0.000000
    94  O2    c     0.058015    0.128334    0.745452    0.000000
    95  O2    c     0.826621    0.913994    0.081169    0.000000
    96  O2    c     0.047102    0.915001    0.415465    0.000000
    97  O2    c     0.894451    0.197059    0.971856    0.000000
    98  O3    c     0.761879    0.666546    0.309109    0.000000
    99  O2    c     0.282911    0.083424    0.642648    0.000000
   100  O2    c     0.070883    0.780501    0.478623    0.000000
   101  O2    c     0.181965    0.284630    0.811214    0.000000
   102  O2    c     0.675037    0.889490    0.146998    0.000000
   103  O2    c     0.172600    0.879914    0.351079    0.000000
   104  O2    c     0.683144    0.790787    0.014017    0.000000
   105  O2    c     0.079754    0.288917    0.683504    0.000000
   106  O3    c     0.771890    0.086784    0.852912    0.000000
   107  O2    c     0.277099    0.192401    0.518792    0.000000
   108  O2    c     0.878219    0.686901    0.181686    0.000000
   109  O2    c     0.292902    0.626301    0.246525    0.000000
   110  O2    c     0.332617    0.663039    0.580009    0.000000
   111  O2    c     0.299027    0.662763    0.912334    0.000000
   112  O2    c     0.657616    0.340394    0.747539    0.000000
   113  O3    c     0.604692    0.298385    0.084165    0.000000
   114  O2    c     0.651047    0.306786    0.416823    0.000000
   115  O2    c     0.361479    0.323857    0.968066    0.000000
   116  O2    c     0.637304    0.023423    0.304235    0.000000
   117  O2    c     0.936426    0.612547    0.635980    0.000000
   118  O2    c     0.599933    0.656667    0.466600    0.000000
   119  O2    c     0.310104    0.939426    0.799597    0.000000
   120  O2    c     0.016107    0.362326    0.130985    0.000000
   121  O2    c     0.301292    0.354673    0.360477    0.000000
   122  O2    c     0.024056    0.660766    0.025446    0.000000
   123  O2    c     0.608741    0.942699    0.693637    0.000000
   124  O2    c     0.644651    0.606477    0.858781    0.000000
   125  O2    c     0.931269    0.315810    0.527050    0.000000
   126  O2    c     0.350154    0.027532    0.194637    0.000000
   127  O3    c     0.747855    0.279994    0.001441    0.000000
   128  O2    c     0.667468    0.444966    0.342847    0.000000
   129  O2    c     0.515559    0.213618    0.674091    0.000000
   130  O2    c     0.203693    0.681206    0.508084    0.000000
   131  O2    c     0.279218    0.514570    0.840266    0.000000
   132  O2    c     0.441862    0.757764    0.175350    0.000000
   133  O2    c     0.268012    0.747132    0.319230    0.000000
   134  O2    c     0.450224    0.689125    0.984513    0.000000
   135  O2    c     0.211309    0.519981    0.652758    0.000000
   136  O2    c     0.676304    0.215067    0.819865    0.000000
   137  O2    c     0.508558    0.293920    0.488513    0.000000
   138  O2    c     0.743951    0.454028    0.150893    0.000000
   139  O3    c     0.767106    0.543551    0.018445    0.000000
   140  O2    c     0.437754    0.230954    0.361078    0.000000
   141  O2    c     0.733908    0.201914    0.693994    0.000000
   142  O2    c     0.190282    0.450162    0.524887    0.000000
   143  O2    c     0.509751    0.732475    0.856031    0.000000
   144  O2    c     0.222191    0.768368    0.191928    0.000000
   145  O2    c     0.499927    0.763657    0.304446    0.000000
   146  O2    c     0.233236    0.455404    0.969595    0.000000
   147  O2    c     0.195385    0.735667    0.636161    0.000000
   148  O2    c     0.445868    0.199040    0.801527    0.000000
   149  O2    c     0.725224    0.523210    0.469079    0.000000
   150  O2    c     0.760931    0.240763    0.132387    0.000000
   151  O2    c     0.210694    0.310675    0.896238    0.000000
   152  O2    c     0.647596    0.887308    0.232029    0.000000
   153  O2    c     0.068119    0.753152    0.563066    0.000000
   154  O2    c     0.740215    0.661484    0.394026    0.000000
   155  O2    c     0.305069    0.074942    0.727119    0.000000
   156  O2    c     0.884691    0.223251    0.059014    0.000000
   157  O2    c     0.297589    0.218686    0.434232    0.000000
   158  O2    c     0.879482    0.658595    0.096079    0.000000
   159  O2    c     0.748866    0.073989    0.767757    0.000000
   160  O2    c     0.656562    0.757802    0.929626    0.000000
   161  O2    c     0.069618    0.310133    0.599183    0.000000
   162  O2    c     0.202768    0.890485    0.266052    0.000000
   163  O2    c     0.571857    0.552380    0.986573    0.000000
   164  O2    c     0.409525    0.006522    0.323436    0.000000
   165  O2    c     0.953035    0.400428    0.655327    0.000000
   166  O2    c     0.387408    0.429559    0.488037    0.000000
   167  O2    c     0.536643    0.954777    0.821277    0.000000
   168  O2    c     0.997830    0.568964    0.149277    0.000000
   169  O2    c     0.527360    0.566106    0.339161    0.000000
   170  O2    c     0.001097    0.432205    0.004929    0.000000
   171  O2    c     0.394665    0.956247    0.672136    0.000000
   172  O2    c     0.417984    0.391964    0.841368    0.000000
   173  O2    c     0.944851    0.543955    0.507752    0.000000
   174  O2    c     0.567863    0.017164    0.177604    0.000000
   175  O2    c     0.553228    0.148425    0.251564    0.000000
   176  O2    c     0.812245    0.403269    0.582193    0.000000
   177  O2    c     0.566707    0.406011    0.914681    0.000000
   178  O2    c     0.398164    0.818696    0.746275    0.000000
   179  O2    c     0.135752    0.566784    0.078349    0.000000
   180  O2    c     0.388775    0.566256    0.413167    0.000000
   181  F     c     0.422174    0.885129    0.248125    0.000000
   182  F     c     0.073087    0.533377    0.580427    0.000000
   183  F     c     0.429263    0.538110    0.912531    0.000000
   184  F     c     0.530446    0.080103    0.746768    0.000000
   185  F     c     0.844414    0.429125    0.070263    0.000000
   186  F     c     0.522295    0.438147    0.413582    0.000000
   187  O2    s     0.911595    0.999134    0.000796    0.000000
   188  O3    s     0.978856    0.915329    0.333422    0.000000
   189  O2    s     0.055288    0.061749    0.662885    0.000000
   190  O2    s     0.049531    0.985746    0.497779    0.000000
   191  O3    s     0.986183    0.054887    0.826365    0.000000
   192  O2    s     0.904649    0.916567    0.162563    0.000000
   193  O2    s     0.319435    0.564392    0.329812    0.000000
   194  O2    s     0.395422    0.752375    0.662896    0.000000
   195  O2    s     0.214821    0.636521    0.995536    0.000000
   196  O2    s     0.626310    0.396250    0.830806    0.000000
   197  O2    s     0.564616    0.220311    0.168988    0.000000
   198  O2    s     0.739940    0.340475    0.499310    0.000000
   199  O3    s     0.568346    0.344873    0.997789    0.000000
   200  O2    s     0.747099    0.398585    0.665382    0.000000
   201  O2    s     0.618078    0.212667    0.334900    0.000000
   202  O2    s     0.386854    0.633284    0.496488    0.000000
   203  O2    s     0.208963    0.574252    0.162571    0.000000
   204  O2    s     0.328618    0.747684    0.829045    0.000000
   205  O2    s     0.112451    0.207844    0.968701    0.000000
   206  O3    s     0.744868    0.886857    0.304989    0.000000
   207  O2    s     0.074864    0.864059    0.634538    0.000000
   208  O2    s     0.851681    0.770009    0.466402    0.000000
   209  O2    s     0.200987    0.079651    0.798935    0.000000
   210  O2    s     0.879033    0.110141    0.132191    0.000000
   211  O2    s     0.192994    0.105213    0.362400    0.000000
   212  O2    s     0.896509    0.788172    0.027624    0.000000
   213  O2    s     0.859982    0.081177    0.695160    0.000000
   214  O3    s     0.754612    0.850093    0.856472    0.000000
   215  O2    s     0.068816    0.201476    0.527847    0.000000
   216  O2    s     0.099210    0.891973    0.193043    0.000000
   217  O3    s     0.906429    0.847840    0.243803    0.000000
   218  O2    s     0.117664    0.054457    0.580488    0.000000
   219  O3    s     0.924238    0.050054    0.916599    0.000000
   220  O2    s     0.057967    0.130244    0.745442    0.000000
   221  O2    s     0.826855    0.914770    0.081263    0.000000
   222  O2    s     0.047740    0.913578    0.415467    0.000000
   223  O2    s     0.900259    0.197424    0.975048    0.000000
   224  O3    s     0.759908    0.671586    0.311980    0.000000
   225  O2    s     0.276656    0.075899    0.645297    0.000000
   226  O2    s     0.063622    0.779320    0.481143    0.000000
   227  O2    s     0.183994    0.278719    0.813625    0.000000
   228  O2    s     0.680787    0.896896    0.149304    0.000000
   229  O2    s     0.174808    0.888002    0.348544    0.000000
   230  O2    s     0.689155    0.789399    0.011885    0.000000
   231  O2    s     0.072219    0.282924    0.680892    0.000000
   232  O3    s     0.769872    0.079993    0.849942    0.000000
   233  O2    s     0.270943    0.193502    0.516084    0.000000
   234  O2    s     0.885221    0.692554    0.179092    0.000000
   235  O2    s     0.298626    0.637999    0.246637    0.000000
   236  O2    s     0.320995    0.657230    0.580030    0.000000
   237  O2    s     0.305218    0.657033    0.912407    0.000000
   238  O2    s     0.651949    0.328606    0.747540    0.000000
   239  O3    s     0.617397    0.303938    0.086048    0.000000
   240  O2    s     0.645163    0.312735    0.416680    0.000000
   241  O2    s     0.363605    0.333148    0.965935    0.000000
   242  O2    s     0.627055    0.016810    0.302088    0.000000
   243  O2    s     0.943073    0.609298    0.633724    0.000000
   244  O2    s     0.596615    0.646611    0.464469    0.000000
   245  O2    s     0.320242    0.946140    0.797452    0.000000
   246  O2    s     0.010145    0.365619    0.129006    0.000000
   247  O2    s     0.311444    0.358328    0.362726    0.000000
   248  O2    s     0.017940    0.651340    0.027082    0.000000
   249  O2    s     0.605324    0.949231    0.695900    0.000000
   250  O2    s     0.634729    0.603147    0.861062    0.000000
   251  O2    s     0.938169    0.325837    0.529348    0.000000
   252  O2    s     0.353127    0.020822    0.197024    0.000000
   253  O3    s     0.758945    0.286914    0.004563    0.000000
   254  O2    s     0.659592    0.444327    0.345975    0.000000
   255  O2    s     0.515916    0.206678    0.677248    0.000000
   256  O2    s     0.196834    0.673658    0.511246    0.000000
   257  O2    s     0.287050    0.515595    0.843506    0.000000
   258  O2    s     0.441059    0.764195    0.178594    0.000000
   259  O2    s     0.276159    0.754334    0.316324    0.000000
   260  O2    s     0.449076    0.681071    0.981442    0.000000
   261  O2    s     0.204101    0.520549    0.649717    0.000000
   262  O2    s     0.668406    0.207988    0.816804    0.000000
   263  O2    s     0.508976    0.301084    0.485361    0.000000
   264  O2    s     0.750655    0.454080    0.148222    0.000000
   265  O3    s     0.776502    0.545218    0.021835    0.000000
   266  O2    s     0.440705    0.239236    0.363662    0.000000
   267  O2    s     0.725593    0.196501    0.696407    0.000000
   268  O2    s     0.185170    0.452905    0.527527    0.000000
   269  O2    s     0.506854    0.724310    0.858722    0.000000
   270  O2    s     0.230557    0.773677    0.194538    0.000000
   271  O2    s     0.497102    0.768606    0.301817    0.000000
   272  O2    s     0.241387    0.458468    0.966904    0.000000
   273  O2    s     0.190102    0.727913    0.633585    0.000000
   274  O2    s     0.448871    0.194006    0.798946    0.000000
   275  O2    s     0.717131    0.520181    0.466618    0.000000
   276  O2    s     0.765337    0.246823    0.130245    0.000000
   277  O2    s     0.220754    0.320263    0.896967    0.000000
   278  O2    s     0.638128    0.887800    0.232650    0.000000
   279  O2    s     0.068414    0.743758    0.563933    0.000000
   280  O2    s     0.730986    0.651690    0.395087    0.000000
   281  O2    s     0.314808    0.075276    0.727991    0.000000
   282  O2    s     0.884244    0.230870    0.060072    0.000000
   283  O2    s     0.307254    0.227960    0.433315    0.000000
   284  O2    s     0.880145    0.650810    0.095725    0.000000
   285  O2    s     0.739731    0.074680    0.766674    0.000000
   286  O2    s     0.646910    0.747914    0.928936    0.000000
   287  O2    s     0.069866    0.319722    0.598256    0.000000
   288  O2    s     0.212167    0.890183    0.265220    0.000000
   289  O2    s     0.567692    0.552946    0.983403    0.000000
   290  O2    s     0.409462    0.002056    0.320027    0.000000
   291  O2    s     0.957632    0.404900    0.651926    0.000000
   292  O2    s     0.391857    0.429019    0.484726    0.000000
   293  O2    s     0.536876    0.959549    0.817933    0.000000
   294  O2    s     0.994399    0.565534    0.146496    0.000000
   295  O2    s     0.527506    0.561509    0.342608    0.000000
   296  O2    s     0.998495    0.432580    0.007777    0.000000
   297  O2    s     0.399245    0.961230    0.675545    0.000000
   298  O2    s     0.418024    0.397250    0.844569    0.000000
   299  O2    s     0.950109    0.544271    0.511163    0.000000
   300  O2    s     0.562379    0.011690    0.180744    0.000000
   301  O2    s     0.548104    0.137298    0.251419    0.000000
   302  O2    s     0.823318    0.408834    0.582132    0.000000
   303  O2    s     0.561389    0.411062    0.914379    0.000000
   304  O2    s     0.403561    0.829579    0.746310    0.000000
   305  O2    s     0.126409    0.562267    0.078486    0.000000
   306  O2    s     0.394219    0.560820    0.413185    0.000000
   307  F     s     0.421860    0.884647    0.248031    0.000000
   308  F     s     0.073376    0.533502    0.580342    0.000000
   309  F     s     0.428657    0.538705    0.912432    0.000000
   310  F     s     0.530783    0.080477    0.746732    0.000000
   311  F     s     0.833527    0.425220    0.067634    0.000000
   312  F     s     0.522655    0.438119    0.413444    0.000000
--------------------------------------------------------------------------------

  Final Cartesian lattice vectors (Angstroms) :

       11.976884    0.005932   -0.002573
       -6.025500   10.391499    0.016198
       -0.185705   -0.176211   29.463798


  Final cell parameters and derivatives :

--------------------------------------------------------------------------------
       a           11.976885 Angstrom     dE/de1(xx)     0.001331 eV/strain
       b           12.012084 Angstrom     dE/de2(yy)     0.000765 eV/strain
       c           29.464910 Angstrom     dE/de3(zz)     0.001766 eV/strain
       alpha       90.038024 Degrees      dE/de4(yz)    -0.000255 eV/strain
       beta        90.373594 Degrees      dE/de5(xz)    -0.000009 eV/strain
       gamma      120.078871 Degrees      dE/de6(xy)     0.000376 eV/strain
--------------------------------------------------------------------------------

  Primitive cell volume =          3668.078116 Angs**3

  Density of cell =      1.744263 g/cm**3

  Non-primitive cell volume =          3668.078116 Angs**3


  Final internal derivatives :

--------------------------------------------------------------------------------
   No.  Atomic          a             b             c           Radius
        Label          (eV)          (eV)          (eV)        (eV/Angs)
--------------------------------------------------------------------------------
      1 Ge    c       0.000000      0.000000      0.000000      0.000000
      2 Si    c       0.000000      0.000291      0.000395      0.000000
      3 Si    c       0.000139     -0.000045     -0.000323      0.000000
      4 Si    c       0.000112      0.000106      0.000150      0.000000
      5 Si    c      -0.000133      0.000318     -0.000481      0.000000
      6 Si    c       0.000313      0.000205      0.000351      0.000000
      7 Si    c       0.000385      0.000229     -0.000267      0.000000
      8 Si    c       0.000140      0.000242     -0.000158      0.000000
      9 Si    c       0.000004      0.000143     -0.000165      0.000000
     10 Si    c      -0.000005     -0.000409     -0.000504      0.000000
     11 Si    c       0.000056      0.000069      0.000034      0.000000
     12 Si    c       0.001122     -0.000270      0.006555      0.000000
     13 Si    c      -0.000991      0.001032     -0.003457      0.000000
     14 Si    c       0.000009      0.000050     -0.000170      0.000000
     15 Si    c       0.000079     -0.000218     -0.000039      0.000000
     16 Si    c       0.000268      0.000053     -0.000111      0.000000
     17 Si    c       0.000122      0.000192      0.000152      0.000000
     18 Si    c      -0.000092      0.000607      0.000915      0.000000
     19 Si    c       0.000392      0.000153      0.000217      0.000000
     20 Si    c      -0.000739      0.000084     -0.000082      0.000000
     21 Si    c       0.000074      0.000143      0.000307      0.000000
     22 Si    c       0.000347     -0.000142     -0.001463      0.000000
     23 Si    c       0.000091     -0.000001      0.000172      0.000000
     24 Si    c      -0.000108     -0.000297      0.000839      0.000000
     25 Si    c      -0.000047     -0.000021     -0.000762      0.000000
     26 Si    c       0.000149     -0.000005     -0.000031      0.000000
     27 Si    c       0.000215      0.000050      0.000141      0.000000
     28 Si    c       0.000244      0.000294     -0.000127      0.000000
     29 Si    c       0.000132     -0.000082      0.000117      0.000000
     30 Si    c      -0.000118      0.000959     -0.000218      0.000000
     31 Si    c       0.000145     -0.000084     -0.000013      0.000000
     32 Si    c       0.000820      0.000119      0.000632      0.000000
     33 Si    c      -0.000194     -0.000029     -0.000170      0.000000
     34 Si    c       0.000053      0.000297     -0.000262      0.000000
     35 Si    c      -0.000095      0.000042     -0.000177      0.000000
     36 Si    c       0.000237      0.000246     -0.000118      0.000000
     37 Si    c      -0.000386      0.000021      0.000010      0.000000
     38 Si    c       0.000119      0.000030     -0.000248      0.000000
     39 Si    c       0.000205     -0.000234     -0.000335      0.000000
     40 Si    c       0.000170      0.000145     -0.000203      0.000000
     41 Si    c       0.000285     -0.000071      0.000157      0.000000
     42 Si    c       0.000285      0.000408      0.000683      0.000000
     43 Si    c       0.000251      0.000020      0.000270      0.000000
     44 Si    c       0.000246     -0.001120     -0.003378      0.000000
     45 Si    c      -0.000027      0.000007      0.000025      0.000000
     46 Si    c       0.000105      0.000231     -0.000302      0.000000
     47 Si    c       0.000012      0.000169      0.000297      0.000000
     48 Si    c       0.000129      0.000040     -0.000157      0.000000
     49 Si    c       0.000208      0.000465      0.001164      0.000000
     50 Ge    c       0.000171      0.000140      0.000179      0.000000
     51 Si    c       0.000221     -0.000005     -0.000295      0.000000
     52 Si    c       0.000144      0.000000     -0.000314      0.000000
     53 Si    c       0.000098      0.000148      0.000587      0.000000
     54 Si    c       0.000083     -0.000037      0.002064      0.000000
     55 Si    c       0.000182      0.000095      0.000429      0.000000
     56 Si    c       0.000470      0.000250     -0.000098      0.000000
     57 Si    c      -0.000125      0.000123     -0.000238      0.000000
     58 Ge    c       0.000245      0.000581     -0.000813      0.000000
     59 Si    c       0.000289      0.000046      0.000115      0.000000
     60 Si    c       0.000154      0.000205     -0.000426      0.000000
     61 O2    c       0.000992     -0.000645      0.001030      0.000000
     62 O3    c       0.000363      0.000165      0.000119      0.000000
     63 O2    c      -0.000008     -0.000036     -0.000057      0.000000
     64 O2    c       0.000248      0.000017      0.000110      0.000000
     65 O3    c      -0.000219     -0.000183     -0.000344      0.000000
     66 O2    c       0.000258      0.000083     -0.000096      0.000000
     67 O2    c       0.000301      0.000162     -0.000243      0.000000
     68 O2    c      -0.000189      0.000055     -0.000138      0.000000
     69 O2    c      -0.000241      0.000701     -0.000037      0.000000
     70 O2    c       0.000161      0.000174      0.000477      0.000000
     71 O2    c      -0.000345     -0.000468      0.002014      0.000000
     72 O2    c       0.000280      0.000164      0.000167      0.000000
     73 O3    c      -0.000648     -0.002440      0.002753      0.000000
     74 O2    c       0.000278     -0.000209      0.000071      0.000000
     75 O2    c       0.000150      0.000070     -0.000186      0.000000
     76 O2    c       0.000100     -0.000077      0.000023      0.000000
     77 O2    c       0.000092      0.000012     -0.000445      0.000000
     78 O2    c      -0.000028      0.000296     -0.000527      0.000000
     79 O2    c       0.001545      0.000074      0.000578      0.000000
     80 O3    c       0.000079      0.000196     -0.000319      0.000000
     81 O2    c       0.000169     -0.000187     -0.000214      0.000000
     82 O2    c       0.000375     -0.000042     -0.000203      0.000000
     83 O2    c       0.000365     -0.000103     -0.000130      0.000000
     84 O2    c       0.000223     -0.000293      0.000711      0.000000
     85 O2    c       0.000277      0.000133      0.000199      0.000000
     86 O2    c       0.002947     -0.002251     -0.002379      0.000000
     87 O2    c      -0.000035      0.000069      0.000113      0.000000
     88 O3    c       0.000005     -0.000232      0.000074      0.000000
     89 O2    c       0.000240      0.000054      0.000230      0.000000
     90 O2    c       0.000224      0.000013      0.000152      0.000000
     91 O3    c       0.000248      0.000078     -0.001303      0.000000
     92 O2    c       0.000101      0.000045     -0.000166      0.000000
     93 O3    c       0.000425     -0.001207     -0.008078      0.000000
     94 O2    c       0.000011      0.000024      0.000052      0.000000
     95 O2    c       0.000125      0.000777      0.006560      0.000000
     96 O2    c       0.000212     -0.000036      0.000131      0.000000
     97 O2    c      -0.002075      0.001634     -0.000149      0.000000
     98 O3    c       0.000046     -0.000096      0.000684      0.000000
     99 O2    c       0.000054     -0.000146      0.000167      0.000000
    100 O2    c       0.000047      0.000035      0.000374      0.000000
    101 O2    c       0.000010      0.000269     -0.000021      0.000000
    102 O2    c       0.000272      0.000159      0.000283      0.000000
    103 O2    c       0.000393      0.000091     -0.000251      0.000000
    104 O2    c      -0.002734      0.000505     -0.000634      0.000000
    105 O2    c      -0.000084      0.000130     -0.000347      0.000000
    106 O3    c      -0.000153      0.000182     -0.000158      0.000000
    107 O2    c       0.000076      0.000105     -0.000395      0.000000
    108 O2    c       0.000113      0.000260      0.000872      0.000000
    109 O2    c       0.000166      0.000200      0.000147      0.000000
    110 O2    c      -0.000177      0.000026      0.000137      0.000000
    111 O2    c      -0.000105      0.000231     -0.000341      0.000000
    112 O2    c       0.000200     -0.000147     -0.000301      0.000000
    113 O3    c      -0.002577     -0.000695     -0.002282      0.000000
    114 O2    c       0.000032      0.000210     -0.000073      0.000000
    115 O2    c      -0.000752     -0.000155      0.000400      0.000000
    116 O2    c       0.000147      0.000232     -0.000074      0.000000
    117 O2    c       0.000294     -0.000102     -0.000229      0.000000
    118 O2    c       0.000122     -0.000072     -0.000164      0.000000
    119 O2    c       0.000228      0.000052     -0.000240      0.000000
    120 O2    c       0.000099      0.000609      0.000546      0.000000
    121 O2    c       0.000327      0.000024      0.000162      0.000000
    122 O2    c       0.000439      0.000551     -0.000475      0.000000
    123 O2    c      -0.000132      0.000148      0.000198      0.000000
    124 O2    c       0.000205     -0.000124     -0.000114      0.000000
    125 O2    c       0.000271      0.000145      0.000320      0.000000
    126 O2    c       0.000241     -0.000099      0.000121      0.000000
    127 O3    c      -0.000116     -0.000427     -0.000601      0.000000
    128 O2    c       0.000044      0.000199      0.000245      0.000000
    129 O2    c       0.000183     -0.000198      0.000364      0.000000
    130 O2    c       0.000032     -0.000085      0.000506      0.000000
    131 O2    c      -0.000071      0.000357     -0.000310      0.000000
    132 O2    c       0.000140      0.000273      0.000363      0.000000
    133 O2    c       0.000254      0.000255     -0.000255      0.000000
    134 O2    c       0.000111      0.000228      0.000336      0.000000
    135 O2    c      -0.000139      0.000043     -0.000270      0.000000
    136 O2    c       0.000042      0.000091     -0.000248      0.000000
    137 O2    c       0.000260      0.000190     -0.000417      0.000000
    138 O2    c       0.000317      0.000148      0.001176      0.000000
    139 O3    c      -0.001140     -0.001513     -0.002013      0.000000
    140 O2    c       0.000312      0.000205      0.000176      0.000000
    141 O2    c      -0.000075     -0.000006      0.000271      0.000000
    142 O2    c      -0.000041      0.000047      0.000312      0.000000
    143 O2    c       0.000095      0.000094     -0.000252      0.000000
    144 O2    c       0.000158      0.000285      0.000069      0.000000
    145 O2    c       0.000177      0.000156     -0.000157      0.000000
    146 O2    c      -0.000050      0.000294      0.000056      0.000000
    147 O2    c       0.000013     -0.000151     -0.000270      0.000000
    148 O2    c       0.000299     -0.000149     -0.000113      0.000000
    149 O2    c       0.000095      0.000027     -0.000162      0.000000
    150 O2    c       0.000054     -0.000043      0.000799      0.000000
    151 O2    c      -0.000047      0.000127      0.000469      0.000000
    152 O2    c       0.000111      0.000149      0.000019      0.000000
    153 O2    c       0.000185     -0.000225      0.000280      0.000000
    154 O2    c       0.000052     -0.000059      0.000189      0.000000
    155 O2    c       0.000252     -0.000118      0.000284      0.000000
    156 O2    c      -0.000097      0.000048     -0.001137      0.000000
    157 O2    c       0.000299      0.000185     -0.000238      0.000000
    158 O2    c       0.000338      0.000540      0.001682      0.000000
    159 O2    c      -0.000057      0.000101     -0.000206      0.000000
    160 O2    c       0.000245     -0.000006     -0.000062      0.000000
    161 O2    c      -0.000003      0.000187     -0.000307      0.000000
    162 O2    c       0.000317      0.000041     -0.000194      0.000000
    163 O2    c       0.000302      0.000298      0.000456      0.000000
    164 O2    c       0.000305      0.000099     -0.000315      0.000000
    165 O2    c       0.000194     -0.000009     -0.000435      0.000000
    166 O2    c       0.000218      0.000196     -0.000329      0.000000
    167 O2    c       0.000036      0.000150     -0.000305      0.000000
    168 O2    c       0.000496     -0.000124      0.000004      0.000000
    169 O2    c       0.000246     -0.000015      0.000461      0.000000
    170 O2    c       0.000047      0.000050     -0.000373      0.000000
    171 O2    c       0.000113     -0.000047      0.000318      0.000000
    172 O2    c       0.000486     -0.000146     -0.000151      0.000000
    173 O2    c       0.000218     -0.000039      0.000406      0.000000
    174 O2    c       0.000236     -0.000003      0.000006      0.000000
    175 O2    c       0.000221      0.000043      0.000129      0.000000
    176 O2    c       0.000336     -0.000023     -0.000075      0.000000
    177 O2    c       0.000669     -0.000117     -0.003109      0.000000
    178 O2    c       0.000038      0.000162     -0.000194      0.000000
    179 O2    c       0.000102      0.000418      0.000529      0.000000
    180 O2    c       0.000312     -0.000041      0.000227      0.000000
    181 F     c       0.000218      0.000126     -0.000087      0.000000
    182 F     c       0.000084     -0.000024      0.000004      0.000000
    183 F     c       0.000103      0.000085      0.000172      0.000000
    184 F     c       0.000061      0.000022     -0.000052      0.000000
    185 F     c       0.000423     -0.000059     -0.000823      0.000000
    186 F     c       0.000206      0.000109     -0.000011      0.000000
    187 O2    s       0.000805      0.000115      0.000558      0.000000
    188 O3    s       0.000379      0.000148      0.000259      0.000000
    189 O2    s       0.000054     -0.000017     -0.000224      0.000000
    190 O2    s       0.000405      0.000012     -0.000046      0.000000
    191 O3    s       0.000198     -0.000118     -0.000350      0.000000
    192 O2    s       0.000030      0.000354      0.000702      0.000000
    193 O2    s       0.000531      0.000241     -0.000112      0.000000
    194 O2    s      -0.000050      0.000051     -0.000149      0.000000
    195 O2    s       0.000396     -0.000248     -0.000605      0.000000
    196 O2    s      -0.000028      0.000261     -0.000162      0.000000
    197 O2    s      -0.000172     -0.000056      0.003026      0.000000
    198 O2    s       0.000163      0.000201      0.000038      0.000000
    199 O3    s       0.000477      0.001744      0.001031      0.000000
    200 O2    s       0.000194     -0.000286     -0.000081      0.000000
    201 O2    s       0.000050      0.000141      0.000069      0.000000
    202 O2    s       0.000226     -0.000038     -0.000005      0.000000
    203 O2    s       0.000483     -0.000135     -0.000015      0.000000
    204 O2    s       0.000153      0.000186     -0.000539      0.000000
    205 O2    s       0.001679      0.000689     -0.000079      0.000000
    206 O3    s       0.000082      0.000257     -0.000561      0.000000
    207 O2    s       0.000238     -0.000101     -0.000655      0.000000
    208 O2    s       0.000339     -0.000007     -0.000545      0.000000
    209 O2    s       0.000296      0.000130     -0.000390      0.000000
    210 O2    s       0.000225     -0.000070      0.000820      0.000000
    211 O2    s       0.000329      0.000091      0.000555      0.000000
    212 O2    s       0.001960     -0.001192     -0.003574      0.000000
    213 O2    s      -0.000050     -0.000048      0.000087      0.000000
    214 O3    s       0.000357     -0.000127      0.000384      0.000000
    215 O2    s       0.000312      0.000041      0.000542      0.000000
    216 O2    s       0.000204      0.000197      0.001110      0.000000
    217 O3    s       0.000528      0.000167     -0.000046      0.000000
    218 O2    s       0.000234      0.000101     -0.000111      0.000000
    219 O3    s       0.000494     -0.001058     -0.003065      0.000000
    220 O2    s       0.000192     -0.000069     -0.000185      0.000000
    221 O2    s      -0.000405      0.001830      0.004150      0.000000
    222 O2    s       0.000254      0.000005      0.000119      0.000000
    223 O2    s      -0.001406      0.001372      0.000688      0.000000
    224 O3    s       0.000149      0.000030      0.001061      0.000000
    225 O2    s       0.000087     -0.000112      0.000308      0.000000
    226 O2    s       0.000149      0.000037      0.000353      0.000000
    227 O2    s       0.000389      0.000105      0.000243      0.000000
    228 O2    s       0.000125      0.000250      0.000708      0.000000
    229 O2    s       0.000344      0.000155     -0.000203      0.000000
    230 O2    s      -0.002824      0.000548     -0.001674      0.000000
    231 O2    s      -0.000053      0.000039     -0.000791      0.000000
    232 O3    s       0.000018      0.000318     -0.000822      0.000000
    233 O2    s       0.000124      0.000137     -0.000354      0.000000
    234 O2    s       0.000370      0.000235      0.001263      0.000000
    235 O2    s       0.000455      0.000274     -0.000118      0.000000
    236 O2    s       0.000022     -0.000059      0.000098      0.000000
    237 O2    s       0.000659     -0.000381     -0.000539      0.000000
    238 O2    s       0.000093     -0.000073     -0.000524      0.000000
    239 O3    s       0.000895      0.000684     -0.000593      0.000000
    240 O2    s       0.000030      0.000303      0.000073      0.000000
    241 O2    s      -0.001044      0.001307     -0.001416      0.000000
    242 O2    s       0.000145      0.000149     -0.000132      0.000000
    243 O2    s       0.000226     -0.000156     -0.000534      0.000000
    244 O2    s       0.000206      0.000048     -0.000276      0.000000
    245 O2    s       0.000236      0.000138     -0.000488      0.000000
    246 O2    s       0.001022     -0.000401      0.000792      0.000000
    247 O2    s       0.000507      0.000008      0.000456      0.000000
    248 O2    s       0.000090      0.000111     -0.001428      0.000000
    249 O2    s       0.000023      0.000071      0.000310      0.000000
    250 O2    s      -0.000208      0.000130      0.000736      0.000000
    251 O2    s       0.000179      0.000090      0.000404      0.000000
    252 O2    s       0.000338      0.000125      0.001041      0.000000
    253 O3    s       0.000349      0.000085     -0.000403      0.000000
    254 O2    s       0.000113      0.000255      0.000505      0.000000
    255 O2    s       0.000138     -0.000058      0.000350      0.000000
    256 O2    s       0.000098     -0.000006      0.000508      0.000000
    257 O2    s       0.000315     -0.000048     -0.000039      0.000000
    258 O2    s       0.000398      0.000121      0.000845      0.000000
    259 O2    s       0.000437      0.000199     -0.000337      0.000000
    260 O2    s       0.000657     -0.000519     -0.000429      0.000000
    261 O2    s      -0.000003     -0.000012     -0.000628      0.000000
    262 O2    s       0.000112     -0.000174     -0.000649      0.000000
    263 O2    s       0.000108      0.000144     -0.000394      0.000000
    264 O2    s      -0.000300      0.000265      0.000400      0.000000
    265 O3    s       0.000086     -0.000757      0.001788      0.000000
    266 O2    s       0.000171      0.000269      0.000579      0.000000
    267 O2    s      -0.000045     -0.000028      0.000214      0.000000
    268 O2    s       0.000121      0.000081      0.000577      0.000000
    269 O2    s       0.000435     -0.000318      0.000313      0.000000
    270 O2    s       0.000396      0.000279      0.000895      0.000000
    271 O2    s       0.000139      0.000184     -0.000311      0.000000
    272 O2    s       0.000685     -0.000120     -0.000970      0.000000
    273 O2    s       0.000042     -0.000098     -0.000658      0.000000
    274 O2    s       0.000035     -0.000047     -0.000599      0.000000
    275 O2    s       0.000143      0.000084     -0.000303      0.000000
    276 O2    s       0.000099     -0.000437      0.001640      0.000000
    277 O2    s       0.000347      0.000014      0.000946      0.000000
    278 O2    s       0.000062      0.000225     -0.000036      0.000000
    279 O2    s       0.000293     -0.000225      0.000070      0.000000
    280 O2    s       0.000147      0.000019      0.000113      0.000000
    281 O2    s       0.000245      0.000005      0.000167      0.000000
    282 O2    s       0.000744     -0.000640      0.000106      0.000000
    283 O2    s       0.000447      0.000173     -0.000121      0.000000
    284 O2    s      -0.000257      0.000406      0.001614      0.000000
    285 O2    s      -0.000114      0.000064      0.000024      0.000000
    286 O2    s       0.000011     -0.000376     -0.000322      0.000000
    287 O2    s       0.000082      0.000133     -0.000118      0.000000
    288 O2    s       0.000609      0.000219     -0.000054      0.000000
    289 O2    s      -0.000514      0.000084     -0.001160      0.000000
    290 O2    s       0.000276      0.000162     -0.000501      0.000000
    291 O2    s       0.000109     -0.000078     -0.000741      0.000000
    292 O2    s       0.000299      0.000116     -0.000455      0.000000
    293 O2    s       0.000159      0.000139     -0.000529      0.000000
    294 O2    s       0.000448      0.000015      0.000942      0.000000
    295 O2    s       0.000347      0.000074      0.000743      0.000000
    296 O2    s       0.000563     -0.000492     -0.000430      0.000000
    297 O2    s       0.000138     -0.000016      0.000375      0.000000
    298 O2    s       0.000119      0.000196      0.000506      0.000000
    299 O2    s       0.000313     -0.000059      0.000593      0.000000
    300 O2    s       0.000335     -0.000054      0.000652      0.000000
    301 O2    s       0.000237     -0.000059      0.000236      0.000000
    302 O2    s       0.000313     -0.000045     -0.000037      0.000000
    303 O2    s      -0.000493      0.001365     -0.001927      0.000000
    304 O2    s       0.000216      0.000163     -0.000064      0.000000
    305 O2    s       0.000824     -0.000567      0.000685      0.000000
    306 O2    s       0.000519      0.000018      0.000146      0.000000
    307 F     s       0.000297      0.000120     -0.000008      0.000000
    308 F     s       0.000087     -0.000057     -0.000021      0.000000
    309 F     s       0.000382     -0.000151      0.000425      0.000000
    310 F     s       0.000075      0.000060     -0.000170      0.000000
    311 F     s      -0.000617      0.000267     -0.001170      0.000000
    312 F     s       0.000216      0.000089      0.000044      0.000000
--------------------------------------------------------------------------------
  Maximum abs         0.002947      0.002440      0.008078      0.000000
--------------------------------------------------------------------------------


  Time to end of optimisation =      50.4072 seconds


  Peak dynamic memory used =      19.13 MB 


  Timing analysis for GULP :

--------------------------------------------------------------------------------
  Task / Subroutine                                          Time (Seconds)
--------------------------------------------------------------------------------
  Calculation of reciprocal space energy and derivatives          1.3515
  Calculation of real space energy and derivatives               43.8032
  Calculation of three-body energy and derivatives                4.4202
  Calculation of matrix inversion                                 0.7438
--------------------------------------------------------------------------------
  Total CPU time                                                 50.4072
--------------------------------------------------------------------------------


  Dump file written as out.res                                                 
  CIF file written as out.cif                                                 


  Job Finished at 11:34.57 12th November   2016                               

