********************************************************************************
*                       GENERAL UTILITY LATTICE PROGRAM                        *
*                                 Julian Gale                                  *
*                      Nanochemistry Research Institute                        *
*                           Department of Chemistry                            *
*                    Curtin University, Western Australia                      *
********************************************************************************
* Version = 4.2.0 * Last modified =  20th January 2014                         *
********************************************************************************
*  optimise     - perform optimisation run                                     *
*  conp         - constant pressure calculation                                *
*  qok          - running with non charge neutral cell is OK                   *
********************************************************************************

  Job Started  at 18:21.11 12th November   2016                               

  Number of CPUs =     1


  Total number of configurations input =   1

********************************************************************************
*  Input for Configuration =   1                                               *
********************************************************************************

  Formula = Ge3Si57O120F6                                               

  Number of irreducible atoms/shells =     312


  Total number atoms/shells =     312

  Dimensionality = 3               :  Bulk   


  Charge on solid   =  -6.000000 =>neutralising background added


  Cartesian lattice vectors (Angstroms) :

       11.969301    0.000000    0.000000
       -6.025017   10.390367    0.000000
       -0.162496   -0.243735   29.462160

  Cell parameters (Angstroms/Degrees):

  a =      11.9693    alpha =  90.2515
  b =      12.0109    beta  =  90.3160
  c =      29.4636    gamma = 120.1080

  Initial cell volume =        3664.074330 Angs**3

  Temperature of configuration =  0.000     K 

  Pressure of configuration =         0.000 GPa 

  Fractional coordinates of asymmetric unit :

--------------------------------------------------------------------------------
   No.  Atomic       x           y          z         Charge      Occupancy
        Label      (Frac)      (Frac)     (Frac)        (e)         (Frac)  
--------------------------------------------------------------------------------
      1 Ge    c    0.699600    0.375700    0.033890     4.00000    1.000000    
      2 Si    c    0.622310 *  0.323906 *  0.364808 *   4.00000    1.000000    
      3 Si    c    0.676447 *  0.300979 *  0.697910 *   4.00000    1.000000    
      4 Si    c    0.289898 *  0.618757 *  0.529162 *   4.00000    1.000000    
      5 Si    c    0.376414 *  0.675674 *  0.862514 *   4.00000    1.000000    
      6 Si    c    0.312967 *  0.703127 *  0.195511 *   4.00000    1.000000    
      7 Si    c    0.371453 *  0.695274 *  0.295304 *   4.00000    1.000000    
      8 Si    c    0.315093 *  0.617933 *  0.961964 *   4.00000    1.000000    
      9 Si    c    0.295557 *  0.677669 *  0.629723 *   4.00000    1.000000    
     10 Si    c    0.626638 *  0.299338 *  0.799081 *   4.00000    1.000000    
     11 Si    c    0.671218 *  0.378557 *  0.465903 *   4.00000    1.000000    
     12 Si    c    0.679405 *  0.314775 *  0.132532 *   4.00000    1.000000    
     13 Si    c    0.526134 *  0.415093 *  0.966445 *   4.00000    1.000000    
     14 Si    c    0.579106 *  0.108795 *  0.301631 *   4.00000    1.000000    
     15 Si    c    0.885357 *  0.472285 *  0.632908 *   4.00000    1.000000    
     16 Si    c    0.461031 *  0.581112 *  0.463228 *   4.00000    1.000000    
     17 Si    c    0.421207 *  0.885433 *  0.796889 *   4.00000    1.000000    
     18 Si    c    0.101859 *  0.530433 *  0.128220 *   4.00000    1.000000    
     19 Si    c    0.415646 *  0.529850 *  0.361099 *   4.00000    1.000000    
     20 Si    c    0.098793 *  0.578800 *  0.024909 *   4.00000    1.000000    
     21 Si    c    0.468977 *  0.889428 *  0.694911 *   4.00000    1.000000    
     22 Si    c    0.582754 *  0.467721 *  0.864268 *   4.00000    1.000000    
     23 Si    c    0.881732 *  0.416594 *  0.531187 *   4.00000    1.000000    
     24 Si    c    0.520340 *  0.109824 *  0.200592 *   4.00000    1.000000    
     25 Si    c    0.303489 *  0.400681 *  0.847333 *   4.00000    1.000000    
     26 Si    c    0.592723 *  0.904353 *  0.181690 *   4.00000    1.000000    
     27 Si    c    0.088600 *  0.695998 *  0.515326 *   4.00000    1.000000    
     28 Si    c    0.696716 *  0.599965 *  0.349909 *   4.00000    1.000000    
     29 Si    c    0.397358 *  0.099108 *  0.683402 *   4.00000    1.000000    
     30 Si    c    0.885687 *  0.290961 *  0.010766 *   4.00000    1.000000    
     31 Si    c    0.391321 *  0.300860 *  0.477027 *   4.00000    1.000000    
     32 Si    c    0.886097 *  0.599766 *  0.141224 *   4.00000    1.000000    
     33 Si    c    0.702362 *  0.096833 *  0.810944 *   4.00000    1.000000    
     34 Si    c    0.593181 *  0.695807 *  0.979192 *   4.00000    1.000000    
     35 Si    c    0.095288 *  0.400787 *  0.646110 *   4.00000    1.000000    
     36 Si    c    0.298761 *  0.896656 *  0.314405 *   4.00000    1.000000    
     37 Si    c    0.247123 *  0.338945 *  0.946958 *   4.00000    1.000000    
     38 Si    c    0.651994 *  0.906462 *  0.282268 *   4.00000    1.000000    
     39 Si    c    0.086269 *  0.750010 *  0.616085 *   4.00000    1.000000    
     40 Si    c    0.740776 *  0.657556 *  0.450954 *   4.00000    1.000000    
     41 Si    c    0.345966 *  0.088355 *  0.784415 *   4.00000    1.000000    
     42 Si    c    0.896696 *  0.248437 *  0.113993 *   4.00000    1.000000    
     43 Si    c    0.341103 *  0.252894 *  0.375856 *   4.00000    1.000000    
     44 Si    c    0.895034 *  0.659325 *  0.038697 *   4.00000    1.000000    
     45 Si    c    0.748198 *  0.092261 *  0.709851 *   4.00000    1.000000    
     46 Si    c    0.655238 *  0.744864 *  0.878891 *   4.00000    1.000000    
     47 Si    c    0.082857 *  0.338953 *  0.545404 *   4.00000    1.000000    
     48 Si    c    0.240641 *  0.909659 *  0.214637 *   4.00000    1.000000    
     49 Si    c    0.969413 *  0.119529 *  0.962999 *   4.00000    1.000000    
     50 Si    c    0.869024 *  0.843731 *  0.296554 *   4.00000    1.000000    
     51 Si    c    0.150236 *  0.030711 *  0.630383 *   4.00000    1.000000    
     52 Si    c    0.018658 *  0.875521 *  0.465751 *   4.00000    1.000000    
     53 Ge    c    0.122993 *  0.147573 *  0.796928 *   4.00000    1.000000    
     54 Si    c    0.840514 *  0.972278 *  0.130671 *   4.00000    1.000000    
     55 Ge    c    0.118159 *  0.968663 *  0.362915 *   4.00000    1.000000    
     56 Si    c    0.842972 *  0.881560 *  0.029276 *   4.00000    1.000000    
     57 Si    c    0.025804 *  0.150926 *  0.694009 *   4.00000    1.000000    
     58 Si    c    0.875459 *  0.021391 *  0.862556 *   4.00000    1.000000    
     59 Si    c    0.146194 *  0.122072 *  0.529602 *   4.00000    1.000000    
     60 Si    c    0.960234 *  0.848115 *  0.195144 *   4.00000    1.000000    
     61 O2    c    0.925030 *  0.004714 *  0.998398 *   0.87073    1.000000    
     62 O3    c    0.994807 *  0.932323 *  0.325226 *   1.33043    1.000000    
     63 O2    c    0.065618 *  0.073197 *  0.659475 *   0.87073    1.000000    
     64 O2    c    0.063041 *  0.998886 *  0.497877 *   0.87073    1.000000    
     65 O3    c    0.993489 *  0.054827 *  0.830645 *   1.33043    1.000000    
     66 O2    c    0.923525 *  0.933976 *  0.163481 *   0.87073    1.000000    
     67 O2    c    0.336708 *  0.572825 *  0.327218 *   0.87073    1.000000    
     68 O2    c    0.420601 *  0.765256 *  0.661647 *   0.87073    1.000000    
     69 O2    c    0.225860 *  0.653194 *  0.993819 *   0.87073    1.000000    
     70 O2    c    0.662708 *  0.420277 *  0.832810 *   0.87073    1.000000    
     71 O2    c    0.571257 *  0.238655 *  0.170771 *   0.87073    1.000000    
     72 O2    c    0.753704 *  0.339488 *  0.499348 *   0.87073    1.000000    
     73 O3    c    0.564791 *  0.336110 *  0.998950 *   1.33043    1.000000    
     74 O2    c    0.761176 *  0.424597 *  0.665646 *   0.87073    1.000000    
     75 O2    c    0.659527 *  0.234789 *  0.333850 *   0.87073    1.000000    
     76 O2    c    0.410609 *  0.656162 *  0.495491 *   0.87073    1.000000    
     77 O2    c    0.227191 *  0.583195 *  0.160995 *   0.87073    1.000000    
     78 O2    c    0.341921 *  0.761010 *  0.828862 *   0.87073    1.000000    
     79 O2    c    0.123371 *  0.211734 *  0.967555 *   0.87073    1.000000    
     80 O2    c    0.775912 *  0.903791 *  0.302607 *   0.87073    1.000000    
     81 O2    c    0.087670 *  0.876940 *  0.635940 *   0.87073    1.000000    
     82 O2    c    0.864786 *  0.783658 *  0.472561 *   0.87073    1.000000    
     83 O3    c    0.221875 *  0.084015 *  0.805979 *   1.33043    1.000000    
     84 O2    c    0.901144 *  0.126375 *  0.135243 *   0.87073    1.000000    
     85 O3    c    0.217632 *  0.130823 *  0.354227 *   1.33043    1.000000    
     86 O2    c    0.911476 *  0.796424 *  0.023184 *   0.87073    1.000000    
     87 O2    c    0.871949 *  0.092167 *  0.687878 *   0.87073    1.000000    
     88 O2    c    0.780512 *  0.868282 *  0.858253 *   0.87073    1.000000    
     89 O2    c    0.081121 *  0.211435 *  0.525845 *   0.87073    1.000000    
     90 O2    c    0.115325 *  0.911857 *  0.194389 *   0.87073    1.000000    
     91 O2    c    0.908822 *  0.847753 *  0.244696 *   0.87073    1.000000    
     92 O2    c    0.144048 *  0.070414 *  0.579324 *   0.87073    1.000000    
     93 O2    c    0.929005 *  0.060045 *  0.913332 *   0.87073    1.000000    
     94 O3    c    0.062272 *  0.125519 *  0.742865 *   1.33043    1.000000    
     95 O2    c    0.853159 *  0.931237 *  0.080456 *   0.87073    1.000000    
     96 O3    c    0.051126 *  0.928444 *  0.415514 *   1.33043    1.000000    
     97 O2    c    0.899264 *  0.200856 *  0.973132 *   0.87073    1.000000    
     98 O2    c    0.795937 *  0.694950 *  0.311899 *   0.87073    1.000000    
     99 O2    c    0.300227 *  0.101727 *  0.645274 *   0.87073    1.000000    
    100 O2    c    0.089030 *  0.793479 *  0.476945 *   0.87073    1.000000    
    101 O3    c    0.208422 *  0.309816 *  0.807508 *   1.33043    1.000000    
    102 O2    c    0.688959 *  0.903447 *  0.143170 *   0.87073    1.000000    
    103 O3    c    0.204358 *  0.891302 *  0.353910 *   1.33043    1.000000    
    104 O2    c    0.690745 *  0.797370 *  0.017337 *   0.87073    1.000000    
    105 O2    c    0.097728 *  0.304323 *  0.684214 *   0.87073    1.000000    
    106 O2    c    0.800503 *  0.097381 *  0.849234 *   0.87073    1.000000    
    107 O2    c    0.295472 *  0.204320 *  0.515179 *   0.87073    1.000000    
    108 O2    c    0.892182 *  0.699742 *  0.179376 *   0.87073    1.000000    
    109 O2    c    0.314147 *  0.640552 *  0.244456 *   0.87073    1.000000    
    110 O2    c    0.350761 *  0.676911 *  0.579209 *   0.87073    1.000000    
    111 O2    c    0.315675 *  0.676697 *  0.912029 *   0.87073    1.000000    
    112 O2    c    0.680370 *  0.357654 *  0.748734 *   0.87073    1.000000    
    113 O3    c    0.610550 *  0.302301 *  0.085045 *   1.33043    1.000000    
    114 O2    c    0.676371 *  0.323887 *  0.415622 *   0.87073    1.000000    
    115 O2    c    0.368572 *  0.330318 *  0.965825 *   0.87073    1.000000    
    116 O2    c    0.664783 *  0.038318 *  0.302354 *   0.87073    1.000000    
    117 O2    c    0.954872 *  0.628503 *  0.635144 *   0.87073    1.000000    
    118 O2    c    0.617314 *  0.667672 *  0.467493 *   0.87073    1.000000    
    119 O2    c    0.335885 *  0.955138 *  0.800446 *   0.87073    1.000000    
    120 O2    c    0.029184 *  0.374938 *  0.130683 *   0.87073    1.000000    
    121 O2    c    0.330555 *  0.374568 *  0.357925 *   0.87073    1.000000    
    122 O2    c    0.028851 *  0.664284 *  0.023558 *   0.87073    1.000000    
    123 O2    c    0.625183 *  0.960171 *  0.691265 *   0.87073    1.000000    
    124 O2    c    0.666811 *  0.623497 *  0.860904 *   0.87073    1.000000    
    125 O2    c    0.949484 *  0.328544 *  0.527403 *   0.87073    1.000000    
    126 O2    c    0.363823 *  0.041265 *  0.196720 *   0.87073    1.000000    
    127 O3    c    0.751041 *  0.281284 *  0.002111 *   1.33043    1.000000    
    128 O2    c    0.697852 *  0.466468 *  0.342431 *   0.87073    1.000000    
    129 O2    c    0.531971 *  0.232731 *  0.675862 *   0.87073    1.000000    
    130 O2    c    0.221288 *  0.693760 *  0.507110 *   0.87073    1.000000    
    131 O2    c    0.302991 *  0.533740 *  0.839265 *   0.87073    1.000000    
    132 O2    c    0.455673 *  0.773247 *  0.172905 *   0.87073    1.000000    
    133 O2    c    0.296271 *  0.761217 *  0.318588 *   0.87073    1.000000    
    134 O2    c    0.457714 *  0.694791 *  0.985601 *   0.87073    1.000000    
    135 O2    c    0.229571 *  0.535731 *  0.652627 *   0.87073    1.000000    
    136 O2    c    0.702924 *  0.230514 *  0.819803 *   0.87073    1.000000    
    137 O2    c    0.526069 *  0.303342 *  0.486227 *   0.87073    1.000000    
    138 O2    c    0.755213 *  0.465153 *  0.150246 *   0.87073    1.000000    
    139 O3    c    0.770182 *  0.544427 *  0.017221 *   1.33043    1.000000    
    140 O2    c    0.466916 *  0.250372 *  0.357720 *   0.87073    1.000000    
    141 O2    c    0.750128 *  0.219581 *  0.691560 *   0.87073    1.000000    
    142 O2    c    0.208303 *  0.462731 *  0.524886 *   0.87073    1.000000    
    143 O2    c    0.532441 *  0.749822 *  0.858792 *   0.87073    1.000000    
    144 O2    c    0.235627 *  0.782077 *  0.193901 *   0.87073    1.000000    
    145 O2    c    0.527053 *  0.778643 *  0.300263 *   0.87073    1.000000    
    146 O2    c    0.240360 *  0.462166 *  0.966109 *   0.87073    1.000000    
    147 O2    c    0.213707 *  0.751433 *  0.634851 *   0.87073    1.000000    
    148 O2    c    0.471346 *  0.215126 *  0.804225 *   0.87073    1.000000    
    149 O2    c    0.742415 *  0.533892 *  0.471140 *   0.87073    1.000000    
    150 O2    c    0.773701 *  0.252335 *  0.133636 *   0.87073    1.000000    
    151 O2    c    0.226912 *  0.320487 *  0.892300 *   0.87073    1.000000    
    152 O2    c    0.667673 *  0.906981 *  0.227834 *   0.87073    1.000000    
    153 O2    c    0.085466 *  0.766855 *  0.561712 *   0.87073    1.000000    
    154 O2    c    0.765610 *  0.674982 *  0.396746 *   0.87073    1.000000    
    155 O2    c    0.324938 *  0.095378 *  0.730121 *   0.87073    1.000000    
    156 O2    c    0.893191 *  0.231105 *  0.059767 *   0.87073    1.000000    
    157 O2    c    0.319593 *  0.228834 *  0.430120 *   0.87073    1.000000    
    158 O2    c    0.885943 *  0.665412 *  0.093990 *   0.87073    1.000000    
    159 O2    c    0.772127 *  0.094670 *  0.764123 *   0.87073    1.000000    
    160 O2    c    0.670453 *  0.764369 *  0.933309 *   0.87073    1.000000    
    161 O2    c    0.087702 *  0.324517 *  0.599686 *   0.87073    1.000000    
    162 O2    c    0.224842 *  0.907801 *  0.269288 *   0.87073    1.000000    
    163 O2    c    0.576124 *  0.556921 *  0.988955 *   0.87073    1.000000    
    164 O2    c    0.438903 *  0.021073 *  0.324586 *   0.87073    1.000000    
    165 O2    c    0.971623 *  0.417129 *  0.655524 *   0.87073    1.000000    
    166 O2    c    0.402420 *  0.439010 *  0.484874 *   0.87073    1.000000    
    167 O2    c    0.564098 *  0.970028 *  0.819226 *   0.87073    1.000000    
    168 O2    c    0.010118 *  0.581990 *  0.147227 *   0.87073    1.000000    
    169 O2    c    0.558601 *  0.588177 *  0.339588 *   0.87073    1.000000    
    170 O2    c    0.006997 *  0.436318 *  0.004561 *   0.87073    1.000000    
    171 O2    c    0.409050 *  0.972942 *  0.673632 *   0.87073    1.000000    
    172 O2    c    0.441909 *  0.410473 *  0.840190 *   0.87073    1.000000    
    173 O2    c    0.962975 *  0.556041 *  0.507038 *   0.87073    1.000000    
    174 O2    c    0.579308 *  0.030416 *  0.175078 *   0.87073    1.000000    
    175 O2    c    0.574756 *  0.161456 *  0.251416 *   0.87073    1.000000    
    176 O2    c    0.830649 *  0.417685 *  0.582102 *   0.87073    1.000000    
    177 O2    c    0.581946 *  0.419336 *  0.915485 *   0.87073    1.000000    
    178 O2    c    0.419424 *  0.833874 *  0.745553 *   0.87073    1.000000    
    179 O2    c    0.145855 *  0.575862 *  0.076681 *   0.87073    1.000000    
    180 O2    c    0.412365 *  0.583380 *  0.411669 *   0.87073    1.000000    
    181 F     c    0.441322 *  0.900625 *  0.247534 *   0.56000    1.000000    
    182 F     c    0.092067 *  0.547761 *  0.580037 *   0.56000    1.000000    
    183 F     c    0.442424 *  0.547681 *  0.912306 *   0.56000    1.000000    
    184 F     c    0.550680 *  0.098112 *  0.746698 *   0.56000    1.000000    
    185 F     c    0.848687 *  0.433946 *  0.069653 *   0.56000    1.000000    
    186 F     c    0.544520 *  0.451406 *  0.412777 *   0.56000    1.000000    
    187 O2    s    0.920679 *  0.003647 *  0.997929 *  -2.87073    1.000000    
    188 O3    s    0.991655 *  0.925734 *  0.325344 *  -3.33043    1.000000    
    189 O2    s    0.070839 *  0.076927 *  0.659961 *  -2.87073    1.000000    
    190 O2    s    0.067464 *  0.999028 *  0.497885 *  -2.87073    1.000000    
    191 O3    s    0.991897 *  0.059261 *  0.831184 *  -3.33043    1.000000    
    192 O2    s    0.918475 *  0.928786 *  0.163354 *  -2.87073    1.000000    
    193 O2    s    0.348375 *  0.581167 *  0.327348 *  -2.87073    1.000000    
    194 O2    s    0.412625 *  0.768941 *  0.661749 *  -2.87073    1.000000    
    195 O2    s    0.221388 *  0.641821 *  0.993908 *  -2.87073    1.000000    
    196 O2    s    0.650963 *  0.412675 *  0.832519 *  -2.87073    1.000000    
    197 O2    s    0.577161 *  0.233025 *  0.169918 *  -2.87073    1.000000    
    198 O2    s    0.758232 *  0.351420 *  0.499124 *  -2.87073    1.000000    
    199 O3    s    0.570499 *  0.347421 *  0.998039 *  -3.33043    1.000000    
    200 O2    s    0.765349 *  0.416987 *  0.665559 *  -2.87073    1.000000    
    201 O2    s    0.647522 *  0.230864 *  0.333677 *  -2.87073    1.000000    
    202 O2    s    0.403524 *  0.644552 *  0.495585 *  -2.87073    1.000000    
    203 O2    s    0.222589 *  0.589704 *  0.161022 *  -2.87073    1.000000    
    204 O2    s    0.353720 *  0.765166 *  0.829006 *  -2.87073    1.000000    
    205 O2    s    0.119342 *  0.214747 *  0.964978 *  -2.87073    1.000000    
    206 O2    s    0.772546 *  0.897660 *  0.299807 *  -2.87073    1.000000    
    207 O2    s    0.094115 *  0.879997 *  0.633326 *  -2.87073    1.000000    
    208 O2    s    0.868065 *  0.780202 *  0.469631 *  -2.87073    1.000000    
    209 O3    s    0.226246 *  0.089702 *  0.803074 *  -3.33043    1.000000    
    210 O2    s    0.894325 *  0.122880 *  0.132588 *  -2.87073    1.000000    
    211 O3    s    0.221870 *  0.129730 *  0.357115 *  -3.33043    1.000000    
    212 O2    s    0.902446 *  0.791532 *  0.025407 *  -2.87073    1.000000    
    213 O2    s    0.875290 *  0.098391 *  0.690783 *  -2.87073    1.000000    
    214 O2    s    0.777410 *  0.871670 *  0.860893 *  -2.87073    1.000000    
    215 O2    s    0.088181 *  0.215099 *  0.528230 *  -2.87073    1.000000    
    216 O2    s    0.111764 *  0.904855 *  0.196540 *  -2.87073    1.000000    
    217 O2    s    0.910326 *  0.847353 *  0.244773 *  -2.87073    1.000000    
    218 O2    s    0.144977 *  0.071845 *  0.579408 *  -2.87073    1.000000    
    219 O2    s    0.927646 *  0.062573 *  0.913369 *  -2.87073    1.000000    
    220 O3    s    0.063582 *  0.130229 *  0.742232 *  -3.33043    1.000000    
    221 O2    s    0.850560 *  0.930453 *  0.080557 *  -2.87073    1.000000    
    222 O3    s    0.053580 *  0.926349 *  0.416234 *  -3.33043    1.000000    
    223 O2    s    0.905532 *  0.201579 *  0.976046 *  -2.87073    1.000000    
    224 O2    s    0.793493 *  0.700914 *  0.314194 *  -2.87073    1.000000    
    225 O2    s    0.294128 *  0.093848 *  0.647594 *  -2.87073    1.000000    
    226 O2    s    0.081684 *  0.792213 *  0.479622 *  -2.87073    1.000000    
    227 O3    s    0.210359 *  0.304917 *  0.810432 *  -3.33043    1.000000    
    228 O2    s    0.695016 *  0.910754 *  0.145798 *  -2.87073    1.000000    
    229 O3    s    0.206441 *  0.898108 *  0.350829 *  -3.33043    1.000000    
    230 O2    s    0.697018 *  0.796071 *  0.014774 *  -2.87073    1.000000    
    231 O2    s    0.090128 *  0.298371 *  0.681380 *  -2.87073    1.000000    
    232 O2    s    0.798289 *  0.089374 *  0.846682 *  -2.87073    1.000000    
    233 O2    s    0.289445 *  0.205606 *  0.512721 *  -2.87073    1.000000    
    234 O2    s    0.898898 *  0.705208 *  0.177035 *  -2.87073    1.000000    
    235 O2    s    0.319769 *  0.652376 *  0.244598 *  -2.87073    1.000000    
    236 O2    s    0.338957 *  0.671044 *  0.579218 *  -2.87073    1.000000    
    237 O2    s    0.321706 *  0.670634 *  0.912119 *  -2.87073    1.000000    
    238 O2    s    0.674565 *  0.346041 *  0.748656 *  -2.87073    1.000000    
    239 O3    s    0.623488 *  0.308375 *  0.086601 *  -3.33043    1.000000    
    240 O2    s    0.670285 *  0.329470 *  0.415496 *  -2.87073    1.000000    
    241 O2    s    0.370990 *  0.339818 *  0.963779 *  -2.87073    1.000000    
    242 O2    s    0.654586 *  0.031830 *  0.300172 *  -2.87073    1.000000    
    243 O2    s    0.961449 *  0.625178 *  0.632919 *  -2.87073    1.000000    
    244 O2    s    0.614154 *  0.657655 *  0.465295 *  -2.87073    1.000000    
    245 O2    s    0.346038 *  0.961928 *  0.798340 *  -2.87073    1.000000    
    246 O2    s    0.023086 *  0.378087 *  0.128704 *  -2.87073    1.000000    
    247 O2    s    0.340691 *  0.378196 *  0.360169 *  -2.87073    1.000000    
    248 O2    s    0.022938 *  0.654822 *  0.025207 *  -2.87073    1.000000    
    249 O2    s    0.621930 *  0.966745 *  0.693611 *  -2.87073    1.000000    
    250 O2    s    0.656879 *  0.620131 *  0.863152 *  -2.87073    1.000000    
    251 O2    s    0.956429 *  0.338650 *  0.529671 *  -2.87073    1.000000    
    252 O2    s    0.366941 *  0.034465 *  0.199006 *  -2.87073    1.000000    
    253 O3    s    0.761996 *  0.288541 *  0.005199 *  -3.33043    1.000000    
    254 O2    s    0.689992 *  0.465669 *  0.345533 *  -2.87073    1.000000    
    255 O2    s    0.532802 *  0.225832 *  0.678946 *  -2.87073    1.000000    
    256 O2    s    0.214400 *  0.686319 *  0.510256 *  -2.87073    1.000000    
    257 O2    s    0.310742 *  0.534607 *  0.842598 *  -2.87073    1.000000    
    258 O2    s    0.455217 *  0.779652 *  0.176169 *  -2.87073    1.000000    
    259 O2    s    0.304391 *  0.768643 *  0.315656 *  -2.87073    1.000000    
    260 O2    s    0.457053 *  0.687068 *  0.982511 *  -2.87073    1.000000    
    261 O2    s    0.222229 *  0.536072 *  0.649573 *  -2.87073    1.000000    
    262 O2    s    0.695046 *  0.223662 *  0.816712 *  -2.87073    1.000000    
    263 O2    s    0.526949 *  0.310892 *  0.483111 *  -2.87073    1.000000    
    264 O2    s    0.761786 *  0.464894 *  0.147531 *  -2.87073    1.000000    
    265 O3    s    0.779747 *  0.546749 *  0.020551 *  -3.33043    1.000000    
    266 O2    s    0.469763 *  0.258429 *  0.360370 *  -2.87073    1.000000    
    267 O2    s    0.742095 *  0.214246 *  0.694178 *  -2.87073    1.000000    
    268 O2    s    0.203193 *  0.465647 *  0.527514 *  -2.87073    1.000000    
    269 O2    s    0.529351 *  0.741351 *  0.861362 *  -2.87073    1.000000    
    270 O2    s    0.244268 *  0.787394 *  0.196255 *  -2.87073    1.000000    
    271 O2    s    0.524166 *  0.783877 *  0.297778 *  -2.87073    1.000000    
    272 O2    s    0.248885 *  0.465410 *  0.963685 *  -2.87073    1.000000    
    273 O2    s    0.208283 *  0.743476 *  0.632298 *  -2.87073    1.000000    
    274 O2    s    0.474293 *  0.210285 *  0.801559 *  -2.87073    1.000000    
    275 O2    s    0.734635 *  0.531002 *  0.468417 *  -2.87073    1.000000    
    276 O2    s    0.777902 *  0.258207 *  0.131367 *  -2.87073    1.000000    
    277 O2    s    0.236588 *  0.330317 *  0.893384 *  -2.87073    1.000000    
    278 O2    s    0.658069 *  0.906661 *  0.228727 *  -2.87073    1.000000    
    279 O2    s    0.085863 *  0.757593 *  0.562573 *  -2.87073    1.000000    
    280 O2    s    0.755895 *  0.665370 *  0.397504 *  -2.87073    1.000000    
    281 O2    s    0.334602 *  0.095107 *  0.730774 *  -2.87073    1.000000    
    282 O2    s    0.892810 *  0.238867 *  0.060811 *  -2.87073    1.000000    
    283 O2    s    0.329221 *  0.238703 *  0.429429 *  -2.87073    1.000000    
    284 O2    s    0.886784 *  0.657502 *  0.093730 *  -2.87073    1.000000    
    285 O2    s    0.762482 *  0.094672 *  0.763301 *  -2.87073    1.000000    
    286 O2    s    0.660761 *  0.755130 *  0.932345 *  -2.87073    1.000000    
    287 O2    s    0.087967 *  0.334044 *  0.598748 *  -2.87073    1.000000    
    288 O2    s    0.233768 *  0.906956 *  0.268097 *  -2.87073    1.000000    
    289 O2    s    0.572702 *  0.557965 *  0.985600 *  -2.87073    1.000000    
    290 O2    s    0.438703 *  0.016887 *  0.321098 *  -2.87073    1.000000    
    291 O2    s    0.976087 *  0.421321 *  0.652145 *  -2.87073    1.000000    
    292 O2    s    0.407551 *  0.439058 *  0.481732 *  -2.87073    1.000000    
    293 O2    s    0.564054 *  0.975027 *  0.815972 *  -2.87073    1.000000    
    294 O2    s    0.006622 *  0.578217 *  0.144521 *  -2.87073    1.000000    
    295 O2    s    0.558489 *  0.583188 *  0.342954 *  -2.87073    1.000000    
    296 O2    s    0.004367 *  0.436917 *  0.007414 *  -2.87073    1.000000    
    297 O2    s    0.414205 *  0.977907 *  0.676903 *  -2.87073    1.000000    
    298 O2    s    0.441793 *  0.415504 *  0.843449 *  -2.87073    1.000000    
    299 O2    s    0.968236 *  0.556644 *  0.510423 *  -2.87073    1.000000    
    300 O2    s    0.574532 *  0.024877 *  0.178399 *  -2.87073    1.000000    
    301 O2    s    0.569430 *  0.150437 *  0.251333 *  -2.87073    1.000000    
    302 O2    s    0.841616 *  0.423210 *  0.582056 *  -2.87073    1.000000    
    303 O2    s    0.576498 *  0.424062 *  0.915127 *  -2.87073    1.000000    
    304 O2    s    0.424740 *  0.844925 *  0.745603 *  -2.87073    1.000000    
    305 O2    s    0.136428 *  0.571335 *  0.076913 *  -2.87073    1.000000    
    306 O2    s    0.417695 *  0.577670 *  0.411758 *  -2.87073    1.000000    
    307 F     s    0.440858 *  0.900218 *  0.247476 *  -1.56000    1.000000    
    308 F     s    0.092508 *  0.547933 *  0.579961 *  -1.56000    1.000000    
    309 F     s    0.441601 *  0.548068 *  0.912156 *  -1.56000    1.000000    
    310 F     s    0.550916 *  0.098554 *  0.746652 *  -1.56000    1.000000    
    311 F     s    0.838098 *  0.429852 *  0.067253 *  -1.56000    1.000000    
    312 F     s    0.544732 *  0.451199 *  0.412681 *  -1.56000    1.000000    
--------------------------------------------------------------------------------



********************************************************************************
*  General input information                                                   *
********************************************************************************

  Species output for all configurations : 

--------------------------------------------------------------------------------
  Species    Type    Atomic    Atomic    Charge       Radii (Angs)     Library
                     Number     Mass       (e)     Cova   Ionic  VDW   Symbol
--------------------------------------------------------------------------------
    Si       Core       14      28.09   4.000000   1.200  0.000  2.100          
    O1       Core        8      16.00   1.733957   0.730  0.000  1.360          
    O1       Shell       8       0.00  -3.733957   0.730  0.000  1.360          
    O2       Core        8      16.00   0.870733   0.730  0.000  1.360          
    O2       Shell       8       0.00  -2.870733   0.730  0.000  1.360          
    O3       Core        8      16.00   1.330431   0.730  0.000  1.360          
    O3       Shell       8       0.00  -3.330431   0.730  0.000  1.360          
    F        Core        9      19.00   0.560000   0.710  0.000  1.300          
    F        Shell       9       0.00  -1.560000   0.710  0.000  1.300          
    Ge       Core       32      72.61   4.000000   1.170  0.000  1.750          
--------------------------------------------------------------------------------


  Lattice summation method               =    Ewald          (3-D)
                                         =    Parry          (2-D)
                                         =    Saunders et al (1-D)
  Accuracy factor for lattice sums       =   12.000


  Time limit = Infinity

  Maximum range for interatomic potentials =        16.000000 Angstroms

  Taper potentials to zero over   1.0000 Angstroms using polynomial

  General interatomic potentials :

--------------------------------------------------------------------------------
Atom  Types   Potential         A         B         C         D     Cutoffs(Ang)
  1     2                                                            Min    Max 
--------------------------------------------------------------------------------
Si   c O1   s Buckingham    0.132E+04 0.318      10.1      0.00     0.000 16.000
Si   c O2   s Buckingham    0.132E+04 0.318      10.1      0.00     0.000 16.000
Si   c O3   s Buckingham    0.132E+04 0.318      10.1      0.00     0.000 16.000
Ge   c O1   s Buckingham    0.150E+04 0.326      16.8      0.00     0.000 16.000
Ge   c O2   s Buckingham    0.150E+04 0.326      16.8      0.00     0.000 16.000
Ge   c O3   s Buckingham    0.150E+04 0.326      16.8      0.00     0.000 16.000
O1   s O1   s Buckingham    0.228E+05 0.149      10.9      0.00     0.000 16.000
O1   s O2   s Buckingham    0.228E+05 0.149      10.9      0.00     0.000 16.000
O1   s O3   s Buckingham    0.228E+05 0.149      10.9      0.00     0.000 16.000
O2   s O2   s Buckingham    0.228E+05 0.149      10.9      0.00     0.000 16.000
O2   s O3   s Buckingham    0.228E+05 0.149      10.9      0.00     0.000 16.000
O3   s O3   s Buckingham    0.228E+05 0.149      10.9      0.00     0.000 16.000
Si   c F    s Buckingham     977.     0.282      0.00      0.00     0.000 16.000
Ge   c F    s Buckingham     681.     0.320      0.00      0.00     0.000 16.000
F    s F    s Buckingham     540.     0.262      0.00      0.00     0.000 16.000
O1   s F    s Buckingham    0.168E+04 0.268      0.00      0.00     0.000 16.000
O2   s F    s Buckingham    0.168E+04 0.268      0.00      0.00     0.000 16.000
O3   s F    s Buckingham    0.168E+04 0.268      0.00      0.00     0.000 16.000
O2   c O2   s Spring (c-s)   76.0      0.00      0.00      0.00     0.000  0.800
O3   c O3   s Spring (c-s)   128.      0.00      0.00      0.00     0.000  0.800
O1   c O1   s Spring (c-s)   180.      0.00      0.00      0.00     0.000  0.800
F    c F    s Spring (c-s)   33.5      0.00      0.00      0.00     0.000  0.800
--------------------------------------------------------------------------------

  General Three-body potentials :

  Harmonic form:

--------------------------------------------------------------------------------
Atom    Atom    Atom           Force Constants            Theta     Cutoffs  
  1       2       3     (eVrad**-2/eVrad**-3/eVrad**-4)   (deg)  1-2  1-3  2-3
--------------------------------------------------------------------------------
Si    c O1    s O1    s  1.261        0.0000    0.0000   109.470 0.00 0.00 0.00
                                                                 1.90 1.90 3.50
Si    c O1    s O2    s  1.261        0.0000    0.0000   109.470 0.00 0.00 0.00
                                                                 1.90 1.90 3.50
Si    c O2    s O2    s  1.261        0.0000    0.0000   109.470 0.00 0.00 0.00
                                                                 1.90 1.90 3.50
--------------------------------------------------------------------------------

********************************************************************************
*  Output for configuration   1                                                *
********************************************************************************


  Components of energy : 

--------------------------------------------------------------------------------
  Interatomic potentials     =        2060.86000713 eV
  Three-body potentials      =           0.45504634 eV
  Monopole - monopole (real) =       -6611.66063019 eV
  Monopole - monopole (recip)=       -3169.25350018 eV
  Monopole - monopole (total)=       -9780.91413037 eV
  Neutralising energy        =          -6.45575717 eV
--------------------------------------------------------------------------------
  Total lattice energy       =       -7726.05483406 eV
--------------------------------------------------------------------------------
  Total lattice energy       =         -745446.1879 kJ/(mole unit cells)
--------------------------------------------------------------------------------


  Number of variables =      939

  Maximum number of calculations  =          5000
  Maximum Hessian update interval =            10
  Maximum step size               =   0.100000000
  Maximum parameter tolerance     =   0.000010000
  Maximum function  tolerance     =   0.000010000
  Maximum gradient  tolerance     =   0.001000000
  Maximum gradient  component     =   0.010000000

  Symmetry not applied to optimisation

  Cell parameters to be optimised using strains

  Newton-Raphson optimiser to be used

  BFGS hessian update to be used

  Dumpfile to be written after every cycle

  Start of bulk optimisation :

  Cycle:      0 Energy:     -7726.054834  Gnorm:      0.000426  CPU:    2.012
  ** Hessian calculated **
  Cycle:      1 Energy:     -7726.066086  Gnorm:      0.000371  CPU:    6.581
  Cycle:      2 Energy:     -7726.078783  Gnorm:      0.000440  CPU:   10.765
  Cycle:      3 Energy:     -7726.090614  Gnorm:      0.000764  CPU:   14.950
  Cycle:      4 Energy:     -7726.094138  Gnorm:      0.000671  CPU:   19.124
  Cycle:      5 Energy:     -7726.095015  Gnorm:      0.000416  CPU:   23.300
  Cycle:      6 Energy:     -7726.095236  Gnorm:      0.000231  CPU:   27.477
  Cycle:      7 Energy:     -7726.095283  Gnorm:      0.000143  CPU:   30.975
  Cycle:      8 Energy:     -7726.095297  Gnorm:      0.000101  CPU:   33.795
  Cycle:      9 Energy:     -7726.095304  Gnorm:      0.000071  CPU:   36.616
  Cycle:     10 Energy:     -7726.095307  Gnorm:      0.000050  CPU:   39.437
  ** Hessian calculated **
  Cycle:     11 Energy:     -7726.095307  Gnorm:      0.000025  CPU:   43.982


  **** Optimisation achieved ****


  Final energy =   -7726.09530702 eV
  Final Gnorm  =       0.00001872

  Components of energy : 

--------------------------------------------------------------------------------
  Interatomic potentials     =        2060.89398019 eV
  Three-body potentials      =           0.44855374 eV
  Monopole - monopole (real) =       -6613.02553698 eV
  Monopole - monopole (recip)=       -3167.95918208 eV
  Monopole - monopole (total)=       -9780.98471906 eV
  Neutralising energy        =          -6.45312189 eV
--------------------------------------------------------------------------------
  Total lattice energy       =       -7726.09530702 eV
--------------------------------------------------------------------------------
  Total lattice energy       =         -745450.0929 kJ/(mole unit cells)
--------------------------------------------------------------------------------

  Final fractional coordinates of atoms :

--------------------------------------------------------------------------------
   No.  Atomic        x           y          z          Radius
        Label       (Frac)      (Frac)     (Frac)       (Angs) 
--------------------------------------------------------------------------------
     1  Ge    c     0.699600    0.375700    0.033890    0.000000
     2  Si    c     0.604360    0.312247    0.364993    0.000000
     3  Si    c     0.659590    0.287115    0.697814    0.000000
     4  Si    c     0.272463    0.606032    0.529934    0.000000
     5  Si    c     0.365118    0.665380    0.863517    0.000000
     6  Si    c     0.299743    0.693968    0.196659    0.000000
     7  Si    c     0.356420    0.685887    0.296504    0.000000
     8  Si    c     0.307273    0.607877    0.963196    0.000000
     9  Si    c     0.278135    0.664891    0.630514    0.000000
    10  Si    c     0.612127    0.287704    0.799085    0.000000
    11  Si    c     0.653390    0.365515    0.466145    0.000000
    12  Si    c     0.668194    0.306673    0.132246    0.000000
    13  Si    c     0.518829    0.405667    0.966486    0.000000
    14  Si    c     0.563249    0.098847    0.301468    0.000000
    15  Si    c     0.868024    0.459129    0.632883    0.000000
    16  Si    c     0.443630    0.568116    0.464231    0.000000
    17  Si    c     0.406849    0.874082    0.797828    0.000000
    18  Si    c     0.090406    0.520633    0.129735    0.000000
    19  Si    c     0.398231    0.518351    0.362112    0.000000
    20  Si    c     0.093381    0.572981    0.026542    0.000000
    21  Si    c     0.452403    0.876144    0.695744    0.000000
    22  Si    c     0.571677    0.458348    0.864036    0.000000
    23  Si    c     0.864433    0.403706    0.531204    0.000000
    24  Si    c     0.506353    0.100555    0.200172    0.000000
    25  Si    c     0.292399    0.390839    0.847694    0.000000
    26  Si    c     0.578667    0.894586    0.182165    0.000000
    27  Si    c     0.071346    0.683087    0.515759    0.000000
    28  Si    c     0.678939    0.588552    0.350392    0.000000
    29  Si    c     0.380606    0.085538    0.683852    0.000000
    30  Si    c     0.880959    0.285842    0.011217    0.000000
    31  Si    c     0.373756    0.287770    0.477598    0.000000
    32  Si    c     0.875500    0.590921    0.142312    0.000000
    33  Si    c     0.687854    0.085251    0.811501    0.000000
    34  Si    c     0.585557    0.685988    0.979529    0.000000
    35  Si    c     0.077705    0.387747    0.646427    0.000000
    36  Si    c     0.283227    0.887201    0.314832    0.000000
    37  Si    c     0.239572    0.329342    0.947584    0.000000
    38  Si    c     0.636488    0.896609    0.282876    0.000000
    39  Si    c     0.068698    0.736868    0.616476    0.000000
    40  Si    c     0.723223    0.644801    0.451528    0.000000
    41  Si    c     0.331623    0.076738    0.784992    0.000000
    42  Si    c     0.885445    0.239542    0.114562    0.000000
    43  Si    c     0.323550    0.241447    0.376409    0.000000
    44  Si    c     0.892537    0.657239    0.039977    0.000000
    45  Si    c     0.731582    0.078737    0.710273    0.000000
    46  Si    c     0.644246    0.735033    0.879028    0.000000
    47  Si    c     0.065524    0.326109    0.545747    0.000000
    48  Si    c     0.226877    0.900194    0.214839    0.000000
    49  Si    c     0.961135    0.111966    0.963280    0.000000
    50  Si    c     0.852529    0.832586    0.297172    0.000000
    51  Si    c     0.133155    0.017505    0.631035    0.000000
    52  Si    c     0.001121    0.862761    0.466430    0.000000
    53  Ge    c     0.110343    0.138184    0.797412    0.000000
    54  Si    c     0.826840    0.962627    0.131409    0.000000
    55  Ge    c     0.101451    0.957489    0.363676    0.000000
    56  Si    c     0.834434    0.874624    0.030061    0.000000
    57  Si    c     0.009395    0.138306    0.694681    0.000000
    58  Si    c     0.862911    0.012248    0.863197    0.000000
    59  Si    c     0.128574    0.108968    0.530196    0.000000
    60  Si    c     0.946257    0.837919    0.195995    0.000000
    61  O2    c     0.914642    0.998062    0.999199    0.000000
    62  O3    c     0.977492    0.919846    0.326254    0.000000
    63  O2    c     0.049437    0.060154    0.660515    0.000000
    64  O2    c     0.044801    0.985345    0.498824    0.000000
    65  O3    c     0.981402    0.047021    0.831492    0.000000
    66  O2    c     0.908652    0.922991    0.164248    0.000000
    67  O2    c     0.320341    0.563165    0.328486    0.000000
    68  O2    c     0.402802    0.751692    0.662608    0.000000
    69  O2    c     0.220890    0.645314    0.995666    0.000000
    70  O2    c     0.650004    0.409858    0.832243    0.000000
    71  O2    c     0.558021    0.228858    0.169858    0.000000
    72  O2    c     0.736574    0.326650    0.499367    0.000000
    73  O3    c     0.563165    0.331382    0.998713    0.000000
    74  O2    c     0.743477    0.410625    0.665420    0.000000
    75  O2    c     0.642534    0.224619    0.333720    0.000000
    76  O2    c     0.393612    0.643284    0.496526    0.000000
    77  O2    c     0.214608    0.572589    0.162815    0.000000
    78  O2    c     0.328920    0.750276    0.830217    0.000000
    79  O2    c     0.115413    0.201058    0.967584    0.000000
    80  O2    c     0.760438    0.893794    0.303067    0.000000
    81  O2    c     0.069988    0.863637    0.636319    0.000000
    82  O2    c     0.847315    0.770593    0.473054    0.000000
    83  O3    c     0.208031    0.073391    0.806532    0.000000
    84  O2    c     0.887886    0.116627    0.136033    0.000000
    85  O3    c     0.199941    0.119641    0.354866    0.000000
    86  O2    c     0.908453    0.794290    0.024903    0.000000
    87  O2    c     0.855498    0.078487    0.688542    0.000000
    88  O2    c     0.769107    0.859180    0.858541    0.000000
    89  O2    c     0.064021    0.198771    0.526237    0.000000
    90  O2    c     0.101298    0.902333    0.194838    0.000000
    91  O2    c     0.894528    0.837398    0.245524    0.000000
    92  O2    c     0.126677    0.058220    0.580104    0.000000
    93  O2    c     0.916638    0.051106    0.913982    0.000000
    94  O3    c     0.047581    0.115451    0.743661    0.000000
    95  O2    c     0.840202    0.922893    0.081120    0.000000
    96  O3    c     0.034490    0.916722    0.416302    0.000000
    97  O2    c     0.895243    0.197136    0.973381    0.000000
    98  O2    c     0.777762    0.683586    0.312281    0.000000
    99  O2    c     0.283043    0.087564    0.645786    0.000000
   100  O2    c     0.071644    0.780772    0.477423    0.000000
   101  O3    c     0.196792    0.300287    0.807996    0.000000
   102  O2    c     0.675283    0.893921    0.143757    0.000000
   103  O3    c     0.188642    0.881411    0.354316    0.000000
   104  O2    c     0.683381    0.787066    0.017561    0.000000
   105  O2    c     0.080349    0.291369    0.684540    0.000000
   106  O2    c     0.786500    0.086788    0.849802    0.000000
   107  O2    c     0.277668    0.190458    0.515593    0.000000
   108  O2    c     0.879401    0.689512    0.180534    0.000000
   109  O2    c     0.300146    0.631343    0.245663    0.000000
   110  O2    c     0.333102    0.664203    0.579960    0.000000
   111  O2    c     0.305781    0.666120    0.913312    0.000000
   112  O2    c     0.664392    0.344515    0.748485    0.000000
   113  O3    c     0.605069    0.299205    0.084259    0.000000
   114  O2    c     0.658081    0.311234    0.415790    0.000000
   115  O2    c     0.361127    0.320516    0.966331    0.000000
   116  O2    c     0.649187    0.028690    0.302553    0.000000
   117  O2    c     0.937182    0.615206    0.635345    0.000000
   118  O2    c     0.599823    0.654467    0.468349    0.000000
   119  O2    c     0.321313    0.943580    0.801332    0.000000
   120  O2    c     0.017379    0.365195    0.131901    0.000000
   121  O2    c     0.312785    0.363219    0.358635    0.000000
   122  O2    c     0.025901    0.660991    0.025184    0.000000
   123  O2    c     0.608510    0.946613    0.691863    0.000000
   124  O2    c     0.655846    0.614115    0.860599    0.000000
   125  O2    c     0.932430    0.315881    0.527563    0.000000
   126  O2    c     0.349812    0.031588    0.196533    0.000000
   127  O3    c     0.748187    0.279191    0.002171    0.000000
   128  O2    c     0.679820    0.455100    0.342848    0.000000
   129  O2    c     0.515106    0.218746    0.675909    0.000000
   130  O2    c     0.204123    0.681073    0.507634    0.000000
   131  O2    c     0.291431    0.523814    0.840171    0.000000
   132  O2    c     0.441877    0.763488    0.173635    0.000000
   133  O2    c     0.281113    0.752059    0.319397    0.000000
   134  O2    c     0.450220    0.684705    0.986344    0.000000
   135  O2    c     0.211696    0.522574    0.653137    0.000000
   136  O2    c     0.688432    0.218977    0.819866    0.000000
   137  O2    c     0.508483    0.290113    0.486653    0.000000
   138  O2    c     0.744226    0.456446    0.150627    0.000000
   139  O3    c     0.768790    0.543206    0.017463    0.000000
   140  O2    c     0.449061    0.238891    0.357994    0.000000
   141  O2    c     0.733172    0.205602    0.691594    0.000000
   142  O2    c     0.191076    0.450146    0.525471    0.000000
   143  O2    c     0.520989    0.739818    0.859324    0.000000
   144  O2    c     0.221941    0.772529    0.194341    0.000000
   145  O2    c     0.511911    0.769359    0.301413    0.000000
   146  O2    c     0.232707    0.452029    0.967292    0.000000
   147  O2    c     0.195916    0.738227    0.635424    0.000000
   148  O2    c     0.457029    0.203572    0.804587    0.000000
   149  O2    c     0.724621    0.520710    0.471430    0.000000
   150  O2    c     0.761928    0.243525    0.133456    0.000000
   151  O2    c     0.217986    0.311011    0.892987    0.000000
   152  O2    c     0.652689    0.896804    0.228475    0.000000
   153  O2    c     0.068093    0.753895    0.562096    0.000000
   154  O2    c     0.747561    0.662758    0.397297    0.000000
   155  O2    c     0.309345    0.082968    0.730717    0.000000
   156  O2    c     0.885310    0.224259    0.060295    0.000000
   157  O2    c     0.302015    0.216451    0.430660    0.000000
   158  O2    c     0.878898    0.659142    0.095148    0.000000
   159  O2    c     0.756183    0.081909    0.764518    0.000000
   160  O2    c     0.661172    0.754483    0.933396    0.000000
   161  O2    c     0.070098    0.311584    0.600042    0.000000
   162  O2    c     0.210374    0.898317    0.269459    0.000000
   163  O2    c     0.568822    0.547346    0.989050    0.000000
   164  O2    c     0.423289    0.011582    0.324580    0.000000
   165  O2    c     0.953971    0.403875    0.655713    0.000000
   166  O2    c     0.384955    0.425794    0.485782    0.000000
   167  O2    c     0.549676    0.958898    0.820032    0.000000
   168  O2    c     0.998690    0.572175    0.148708    0.000000
   169  O2    c     0.540816    0.576702    0.340360    0.000000
   170  O2    c     0.001902    0.431533    0.005673    0.000000
   171  O2    c     0.392030    0.959181    0.674368    0.000000
   172  O2    c     0.430896    0.401546    0.840073    0.000000
   173  O2    c     0.945895    0.543381    0.507201    0.000000
   174  O2    c     0.565208    0.020512    0.175212    0.000000
   175  O2    c     0.559672    0.151656    0.251123    0.000000
   176  O2    c     0.813398    0.404774    0.582102    0.000000
   177  O2    c     0.572103    0.409757    0.915095    0.000000
   178  O2    c     0.404008    0.821447    0.746594    0.000000
   179  O2    c     0.137292    0.567821    0.078513    0.000000
   180  O2    c     0.394785    0.570941    0.412759    0.000000
   181  F     c     0.426602    0.890481    0.247859    0.000000
   182  F     c     0.074423    0.534984    0.580341    0.000000
   183  F     c     0.433053    0.537792    0.912789    0.000000
   184  F     c     0.534311    0.084942    0.747054    0.000000
   185  F     c     0.844664    0.430232    0.070445    0.000000
   186  F     c     0.525982    0.438582    0.413393    0.000000
   187  O2    s     0.910688    0.996791    0.998682    0.000000
   188  O3    s     0.974503    0.913507    0.326310    0.000000
   189  O2    s     0.054535    0.063911    0.660917    0.000000
   190  O2    s     0.049365    0.985631    0.498763    0.000000
   191  O3    s     0.979679    0.051191    0.831987    0.000000
   192  O2    s     0.903811    0.918035    0.164123    0.000000
   193  O2    s     0.332068    0.571356    0.328587    0.000000
   194  O2    s     0.395000    0.755468    0.662675    0.000000
   195  O2    s     0.215988    0.633898    0.995693    0.000000
   196  O2    s     0.638235    0.402216    0.832036    0.000000
   197  O2    s     0.563972    0.223441    0.169144    0.000000
   198  O2    s     0.741013    0.338540    0.499168    0.000000
   199  O3    s     0.567976    0.342628    0.997696    0.000000
   200  O2    s     0.747790    0.403090    0.665365    0.000000
   201  O2    s     0.630540    0.220566    0.333576    0.000000
   202  O2    s     0.386445    0.631675    0.496589    0.000000
   203  O2    s     0.209993    0.579328    0.162726    0.000000
   204  O2    s     0.340755    0.754439    0.830275    0.000000
   205  O2    s     0.111336    0.204442    0.965110    0.000000
   206  O2    s     0.756972    0.887565    0.300301    0.000000
   207  O2    s     0.076507    0.866726    0.633737    0.000000
   208  O2    s     0.850569    0.767198    0.470152    0.000000
   209  O3    s     0.212430    0.079087    0.803623    0.000000
   210  O2    s     0.881229    0.113223    0.133348    0.000000
   211  O3    s     0.204246    0.118496    0.357750    0.000000
   212  O2    s     0.898956    0.788730    0.026991    0.000000
   213  O2    s     0.858838    0.084829    0.691420    0.000000
   214  O2    s     0.765931    0.862489    0.861201    0.000000
   215  O2    s     0.070996    0.202373    0.528635    0.000000
   216  O2    s     0.097772    0.895281    0.197002    0.000000
   217  O2    s     0.895818    0.836930    0.245580    0.000000
   218  O2    s     0.127614    0.059428    0.580152    0.000000
   219  O2    s     0.915759    0.053787    0.914002    0.000000
   220  O3    s     0.048891    0.119945    0.742990    0.000000
   221  O2    s     0.838015    0.922102    0.081229    0.000000
   222  O3    s     0.036843    0.914565    0.417011    0.000000
   223  O2    s     0.900984    0.197352    0.976353    0.000000
   224  O2    s     0.775528    0.689561    0.314614    0.000000
   225  O2    s     0.276996    0.079844    0.648115    0.000000
   226  O2    s     0.064298    0.779488    0.480116    0.000000
   227  O3    s     0.198700    0.295386    0.810901    0.000000
   228  O2    s     0.681318    0.901191    0.146383    0.000000
   229  O3    s     0.190670    0.888171    0.351265    0.000000
   230  O2    s     0.689626    0.786214    0.015062    0.000000
   231  O2    s     0.072807    0.285438    0.681729    0.000000
   232  O2    s     0.784391    0.078840    0.847263    0.000000
   233  O2    s     0.271685    0.191898    0.513175    0.000000
   234  O2    s     0.886216    0.695118    0.178153    0.000000
   235  O2    s     0.305797    0.643242    0.245808    0.000000
   236  O2    s     0.321351    0.658338    0.579981    0.000000
   237  O2    s     0.311891    0.660134    0.913358    0.000000
   238  O2    s     0.658615    0.332922    0.748450    0.000000
   239  O3    s     0.617737    0.304845    0.086140    0.000000
   240  O2    s     0.652082    0.316879    0.415682    0.000000
   241  O2    s     0.363476    0.329969    0.964271    0.000000
   242  O2    s     0.638992    0.022158    0.300377    0.000000
   243  O2    s     0.943815    0.611923    0.633117    0.000000
   244  O2    s     0.596691    0.644531    0.466138    0.000000
   245  O2    s     0.331488    0.950379    0.799202    0.000000
   246  O2    s     0.011389    0.368445    0.129885    0.000000
   247  O2    s     0.322968    0.366818    0.360891    0.000000
   248  O2    s     0.019689    0.651492    0.026803    0.000000
   249  O2    s     0.605282    0.953191    0.694205    0.000000
   250  O2    s     0.645941    0.610728    0.862893    0.000000
   251  O2    s     0.939312    0.325932    0.529831    0.000000
   252  O2    s     0.352988    0.024922    0.198822    0.000000
   253  O3    s     0.759283    0.286303    0.005312    0.000000
   254  O2    s     0.671990    0.454289    0.345938    0.000000
   255  O2    s     0.515933    0.211886    0.679019    0.000000
   256  O2    s     0.197204    0.673617    0.510791    0.000000
   257  O2    s     0.299255    0.524627    0.843455    0.000000
   258  O2    s     0.441527    0.770018    0.176914    0.000000
   259  O2    s     0.289226    0.759429    0.316464    0.000000
   260  O2    s     0.449495    0.676986    0.983252    0.000000
   261  O2    s     0.204449    0.522993    0.650089    0.000000
   262  O2    s     0.680544    0.212084    0.816819    0.000000
   263  O2    s     0.509354    0.297686    0.483541    0.000000
   264  O2    s     0.750924    0.456386    0.147941    0.000000
   265  O3    s     0.778051    0.545013    0.020912    0.000000
   266  O2    s     0.451939    0.246935    0.360663    0.000000
   267  O2    s     0.725198    0.200318    0.694238    0.000000
   268  O2    s     0.185914    0.452989    0.528093    0.000000
   269  O2    s     0.517982    0.731354    0.861894    0.000000
   270  O2    s     0.230585    0.777936    0.196735    0.000000
   271  O2    s     0.508997    0.774511    0.298880    0.000000
   272  O2    s     0.241189    0.455334    0.964829    0.000000
   273  O2    s     0.190586    0.730313    0.632875    0.000000
   274  O2    s     0.459958    0.198728    0.801912    0.000000
   275  O2    s     0.716873    0.517896    0.468732    0.000000
   276  O2    s     0.766305    0.249427    0.131260    0.000000
   277  O2    s     0.227627    0.320841    0.894014    0.000000
   278  O2    s     0.643118    0.896563    0.229338    0.000000
   279  O2    s     0.068484    0.744627    0.562973    0.000000
   280  O2    s     0.737926    0.653175    0.398048    0.000000
   281  O2    s     0.319018    0.082663    0.731341    0.000000
   282  O2    s     0.884889    0.231958    0.061327    0.000000
   283  O2    s     0.311650    0.226342    0.429974    0.000000
   284  O2    s     0.879816    0.651413    0.094825    0.000000
   285  O2    s     0.746596    0.081952    0.763724    0.000000
   286  O2    s     0.651439    0.745229    0.932476    0.000000
   287  O2    s     0.070396    0.321112    0.599095    0.000000
   288  O2    s     0.219314    0.897472    0.268319    0.000000
   289  O2    s     0.565407    0.548571    0.985719    0.000000
   290  O2    s     0.423039    0.007322    0.321118    0.000000
   291  O2    s     0.958497    0.408096    0.652326    0.000000
   292  O2    s     0.390079    0.425879    0.482620    0.000000
   293  O2    s     0.549668    0.963859    0.816765    0.000000
   294  O2    s     0.995230    0.568519    0.145962    0.000000
   295  O2    s     0.540780    0.571722    0.343722    0.000000
   296  O2    s     0.999315    0.432054    0.008529    0.000000
   297  O2    s     0.397261    0.964209    0.677620    0.000000
   298  O2    s     0.430723    0.406430    0.843369    0.000000
   299  O2    s     0.951095    0.543907    0.510600    0.000000
   300  O2    s     0.560437    0.015091    0.178522    0.000000
   301  O2    s     0.554403    0.140723    0.251034    0.000000
   302  O2    s     0.824371    0.410285    0.582049    0.000000
   303  O2    s     0.566770    0.414556    0.914754    0.000000
   304  O2    s     0.409315    0.832507    0.746597    0.000000
   305  O2    s     0.127839    0.563341    0.078649    0.000000
   306  O2    s     0.400163    0.565253    0.412824    0.000000
   307  F     s     0.426125    0.889988    0.247785    0.000000
   308  F     s     0.074840    0.535169    0.580254    0.000000
   309  F     s     0.432245    0.538186    0.912647    0.000000
   310  F     s     0.534469    0.085328    0.746996    0.000000
   311  F     s     0.833904    0.426310    0.067832    0.000000
   312  F     s     0.526107    0.438326    0.413300    0.000000
--------------------------------------------------------------------------------

  Final Cartesian lattice vectors (Angstroms) :

       11.976460    0.004019   -0.001175
       -6.025132   10.395437    0.011702
       -0.165568   -0.212454   29.460318


  Final cell parameters and derivatives :

--------------------------------------------------------------------------------
       a           11.976461 Angstrom     dE/de1(xx)     0.001808 eV/strain
       b           12.015301 Angstrom     dE/de2(yy)     0.001042 eV/strain
       c           29.461550 Angstrom     dE/de3(zz)     0.002212 eV/strain
       alpha       90.140209 Degrees      dE/de4(yz)    -0.000237 eV/strain
       beta        90.327754 Degrees      dE/de5(xz)     0.000062 eV/strain
       gamma      120.077080 Degrees      dE/de6(xy)     0.000326 eV/strain
--------------------------------------------------------------------------------

  Primitive cell volume =          3668.565095 Angs**3

  Density of cell =      1.744031 g/cm**3

  Non-primitive cell volume =          3668.565095 Angs**3


  Final internal derivatives :

--------------------------------------------------------------------------------
   No.  Atomic          a             b             c           Radius
        Label          (eV)          (eV)          (eV)        (eV/Angs)
--------------------------------------------------------------------------------
      1 Ge    c       0.000000      0.000000      0.000000      0.000000
      2 Si    c       0.000016      0.000216      0.000593      0.000000
      3 Si    c       0.000000      0.000019     -0.000489      0.000000
      4 Si    c       0.000171      0.000016      0.000127      0.000000
      5 Si    c       0.000195     -0.000044      0.000146      0.000000
      6 Si    c       0.000358     -0.000075      0.000575      0.000000
      7 Si    c       0.000305      0.000216     -0.000227      0.000000
      8 Si    c       0.000610     -0.000279     -0.000514      0.000000
      9 Si    c       0.000149      0.000052     -0.000177      0.000000
     10 Si    c      -0.000116     -0.000337     -0.000495      0.000000
     11 Si    c       0.000099      0.000021      0.000023      0.000000
     12 Si    c       0.000602     -0.000286      0.007462      0.000000
     13 Si    c      -0.002086      0.001744     -0.005163      0.000000
     14 Si    c       0.000035     -0.000042     -0.000151      0.000000
     15 Si    c      -0.000007     -0.000097     -0.000123      0.000000
     16 Si    c       0.000187      0.000073     -0.000069      0.000000
     17 Si    c       0.000159      0.000199      0.000154      0.000000
     18 Si    c       0.000374      0.000075      0.001432      0.000000
     19 Si    c       0.000286      0.000165      0.000372      0.000000
     20 Si    c      -0.000350     -0.000250     -0.000656      0.000000
     21 Si    c       0.000167      0.000043      0.000026      0.000000
     22 Si    c      -0.000382      0.000375     -0.000274      0.000000
     23 Si    c       0.000060      0.000003      0.000008      0.000000
     24 Si    c      -0.000102     -0.000083      0.000820      0.000000
     25 Si    c       0.000270     -0.000171     -0.000487      0.000000
     26 Si    c       0.000256     -0.000091      0.000147      0.000000
     27 Si    c       0.000154      0.000092      0.000059      0.000000
     28 Si    c       0.000181      0.000230      0.000031      0.000000
     29 Si    c      -0.000001      0.000061     -0.000215      0.000000
     30 Si    c       0.000745      0.000203     -0.001471      0.000000
     31 Si    c       0.000159     -0.000063      0.000018      0.000000
     32 Si    c       0.000451      0.000165      0.001444      0.000000
     33 Si    c      -0.000030     -0.000124      0.000119      0.000000
     34 Si    c      -0.000164      0.000092     -0.000259      0.000000
     35 Si    c       0.000065     -0.000075     -0.000214      0.000000
     36 Si    c       0.000179      0.000172     -0.000014      0.000000
     37 Si    c       0.000049      0.000074      0.000011      0.000000
     38 Si    c       0.000146      0.000046     -0.000162      0.000000
     39 Si    c       0.000100     -0.000052     -0.000334      0.000000
     40 Si    c       0.000152      0.000149     -0.000140      0.000000
     41 Si    c       0.000068      0.000152      0.000209      0.000000
     42 Si    c       0.000807     -0.000331      0.001198      0.000000
     43 Si    c       0.000168     -0.000028      0.000194      0.000000
     44 Si    c       0.000009     -0.000403     -0.003465      0.000000
     45 Si    c       0.000035     -0.000082     -0.000044      0.000000
     46 Si    c       0.000044      0.000078     -0.000229      0.000000
     47 Si    c       0.000082      0.000046      0.000205      0.000000
     48 Si    c       0.000045      0.000131      0.000241      0.000000
     49 Si    c       0.000307     -0.000211      0.000742      0.000000
     50 Si    c       0.000130      0.000090      0.000195      0.000000
     51 Si    c       0.000148      0.000081     -0.000098      0.000000
     52 Si    c       0.000083      0.000033     -0.000215      0.000000
     53 Ge    c       0.000263      0.000028      0.000658      0.000000
     54 Si    c      -0.000083      0.000188      0.000678      0.000000
     55 Ge    c       0.000063      0.000171      0.000508      0.000000
     56 Si    c      -0.000079      0.001108     -0.000466      0.000000
     57 Si    c      -0.000023      0.000071     -0.001023      0.000000
     58 Si    c       0.000234      0.000121     -0.000314      0.000000
     59 Si    c       0.000229      0.000084      0.000125      0.000000
     60 Si    c       0.000162      0.000159      0.000148      0.000000
     61 O2    c       0.000276     -0.000202      0.000261      0.000000
     62 O3    c       0.000265      0.000239      0.000053      0.000000
     63 O2    c       0.000013     -0.000026     -0.000018      0.000000
     64 O2    c       0.000155      0.000051      0.000052      0.000000
     65 O3    c       0.000030     -0.000263     -0.000095      0.000000
     66 O2    c       0.000138      0.000193      0.000096      0.000000
     67 O2    c       0.000129      0.000147     -0.000142      0.000000
     68 O2    c      -0.000067     -0.000042     -0.000108      0.000000
     69 O2    c      -0.000038      0.000483      0.000051      0.000000
     70 O2    c       0.000131      0.000213      0.000141      0.000000
     71 O2    c      -0.000416     -0.000259      0.001357      0.000000
     72 O2    c       0.000237      0.000106      0.000093      0.000000
     73 O3    c      -0.000615     -0.003120      0.002097      0.000000
     74 O2    c       0.000171     -0.000101      0.000002      0.000000
     75 O2    c       0.000185      0.000030     -0.000084      0.000000
     76 O2    c       0.000132     -0.000054      0.000023      0.000000
     77 O2    c       0.000093     -0.000177     -0.000706      0.000000
     78 O2    c      -0.000055      0.000169     -0.000335      0.000000
     79 O2    c       0.001114     -0.000077      0.000138      0.000000
     80 O2    c       0.000035      0.000202     -0.000082      0.000000
     81 O2    c       0.000103     -0.000155     -0.000150      0.000000
     82 O2    c       0.000225      0.000014     -0.000166      0.000000
     83 O3    c       0.000150      0.000029     -0.000383      0.000000
     84 O2    c       0.000193     -0.000197      0.000114      0.000000
     85 O3    c       0.000224      0.000179      0.000300      0.000000
     86 O2    c       0.002308     -0.002065     -0.001182      0.000000
     87 O2    c      -0.000076      0.000004      0.000072      0.000000
     88 O2    c       0.000116     -0.000069      0.000093      0.000000
     89 O2    c       0.000170      0.000066      0.000130      0.000000
     90 O2    c       0.000213      0.000002      0.000311      0.000000
     91 O2    c       0.000281      0.000012     -0.000819      0.000000
     92 O2    c       0.000071      0.000025      0.000031      0.000000
     93 O2    c       0.000073     -0.000454     -0.003389      0.000000
     94 O3    c       0.000265     -0.000278      0.000842      0.000000
     95 O2    c      -0.000128      0.000723      0.004039      0.000000
     96 O3    c       0.000146      0.000010     -0.000009      0.000000
     97 O2    c      -0.001422      0.001109      0.000039      0.000000
     98 O2    c       0.000108     -0.000166      0.000504      0.000000
     99 O2    c       0.000046     -0.000061      0.000128      0.000000
    100 O2    c       0.000114     -0.000020      0.000288      0.000000
    101 O3    c       0.000152      0.000016     -0.000114      0.000000
    102 O2    c       0.000203      0.000175      0.000157      0.000000
    103 O3    c       0.000501     -0.000088     -0.000347      0.000000
    104 O2    c      -0.002179      0.000431     -0.000655      0.000000
    105 O2    c       0.000014      0.000134     -0.000366      0.000000
    106 O2    c      -0.000066      0.000137     -0.000154      0.000000
    107 O2    c       0.000093      0.000098     -0.000219      0.000000
    108 O2    c       0.000159      0.000105      0.000564      0.000000
    109 O2    c       0.000124      0.000159      0.000050      0.000000
    110 O2    c      -0.000033     -0.000031      0.000126      0.000000
    111 O2    c       0.000133     -0.000009     -0.000208      0.000000
    112 O2    c       0.000094      0.000023     -0.000313      0.000000
    113 O3    c      -0.003193     -0.000857     -0.001502      0.000000
    114 O2    c       0.000047      0.000163     -0.000078      0.000000
    115 O2    c      -0.001025      0.000362     -0.000270      0.000000
    116 O2    c       0.000131      0.000149      0.000031      0.000000
    117 O2    c       0.000149     -0.000013     -0.000165      0.000000
    118 O2    c       0.000110     -0.000023     -0.000098      0.000000
    119 O2    c       0.000112      0.000010     -0.000167      0.000000
    120 O2    c       0.000532      0.000113      0.000353      0.000000
    121 O2    c       0.000216     -0.000011      0.000122      0.000000
    122 O2    c       0.000041      0.000625     -0.000528      0.000000
    123 O2    c      -0.000031      0.000053      0.000100      0.000000
    124 O2    c       0.000004     -0.000041      0.000222      0.000000
    125 O2    c       0.000211      0.000085      0.000138      0.000000
    126 O2    c       0.000166     -0.000042      0.000208      0.000000
    127 O3    c      -0.000311     -0.000265     -0.000618      0.000000
    128 O2    c       0.000088      0.000174      0.000136      0.000000
    129 O2    c       0.000148     -0.000076      0.000233      0.000000
    130 O2    c       0.000046     -0.000012      0.000209      0.000000
    131 O2    c       0.000105      0.000162      0.000088      0.000000
    132 O2    c       0.000179      0.000148      0.000188      0.000000
    133 O2    c       0.000208      0.000137     -0.000016      0.000000
    134 O2    c       0.000466     -0.000198     -0.000129      0.000000
    135 O2    c      -0.000001     -0.000023     -0.000205      0.000000
    136 O2    c       0.000077      0.000066     -0.000094      0.000000
    137 O2    c       0.000191      0.000142     -0.000280      0.000000
    138 O2    c      -0.000115      0.000259      0.000154      0.000000
    139 O3    c      -0.001028     -0.001138     -0.001311      0.000000
    140 O2    c       0.000241      0.000147      0.000157      0.000000
    141 O2    c      -0.000006     -0.000014      0.000089      0.000000
    142 O2    c       0.000067      0.000026      0.000145      0.000000
    143 O2    c       0.000149     -0.000086      0.000095      0.000000
    144 O2    c       0.000069      0.000208      0.000115      0.000000
    145 O2    c       0.000045      0.000120      0.000042      0.000000
    146 O2    c       0.000171     -0.000003      0.000022      0.000000
    147 O2    c       0.000001     -0.000050     -0.000157      0.000000
    148 O2    c       0.000134      0.000023     -0.000169      0.000000
    149 O2    c       0.000100      0.000023     -0.000110      0.000000
    150 O2    c       0.000184     -0.000196      0.000412      0.000000
    151 O2    c       0.000124     -0.000068      0.000432      0.000000
    152 O2    c       0.000051      0.000149     -0.000036      0.000000
    153 O2    c       0.000118     -0.000117      0.000245      0.000000
    154 O2    c       0.000080     -0.000017      0.000041      0.000000
    155 O2    c       0.000088     -0.000027      0.000188      0.000000
    156 O2    c       0.000478     -0.000534     -0.000923      0.000000
    157 O2    c       0.000223      0.000144     -0.000139      0.000000
    158 O2    c      -0.000119      0.000740      0.001465      0.000000
    159 O2    c       0.000003      0.000070     -0.000264      0.000000
    160 O2    c       0.000046      0.000020      0.000265      0.000000
    161 O2    c       0.000070      0.000100     -0.000215      0.000000
    162 O2    c       0.000193      0.000051     -0.000235      0.000000
    163 O2    c      -0.000100      0.000632      0.000004      0.000000
    164 O2    c       0.000296      0.000056     -0.000092      0.000000
    165 O2    c       0.000150     -0.000037     -0.000270      0.000000
    166 O2    c       0.000151      0.000180     -0.000148      0.000000
    167 O2    c       0.000018      0.000079     -0.000252      0.000000
    168 O2    c       0.000381     -0.000034      0.000413      0.000000
    169 O2    c       0.000238     -0.000005      0.000291      0.000000
    170 O2    c       0.000356     -0.000154     -0.000460      0.000000
    171 O2    c       0.000080     -0.000037      0.000114      0.000000
    172 O2    c       0.000219      0.000031      0.000398      0.000000
    173 O2    c       0.000163     -0.000045      0.000206      0.000000
    174 O2    c       0.000199     -0.000016      0.000155      0.000000
    175 O2    c       0.000166      0.000003     -0.000050      0.000000
    176 O2    c       0.000218      0.000012     -0.000055      0.000000
    177 O2    c      -0.000083      0.000382     -0.001675      0.000000
    178 O2    c       0.000037      0.000027     -0.000111      0.000000
    179 O2    c       0.000589      0.000003      0.000123      0.000000
    180 O2    c       0.000240     -0.000011      0.000225      0.000000
    181 F     c       0.000192      0.000075     -0.000021      0.000000
    182 F     c       0.000096     -0.000012     -0.000019      0.000000
    183 F     c       0.000225     -0.000094      0.000119      0.000000
    184 F     c       0.000046      0.000003     -0.000065      0.000000
    185 F     c       0.000257      0.000234     -0.000653      0.000000
    186 F     c       0.000179      0.000082     -0.000000      0.000000
    187 O2    s       0.000731      0.000011     -0.000006      0.000000
    188 O3    s       0.000372      0.000207     -0.000016      0.000000
    189 O2    s       0.000045     -0.000037     -0.000450      0.000000
    190 O2    s       0.000306      0.000008     -0.000003      0.000000
    191 O3    s       0.000072      0.000104     -0.000012      0.000000
    192 O2    s       0.000207      0.000079      0.000183      0.000000
    193 O2    s       0.000410      0.000115     -0.000222      0.000000
    194 O2    s      -0.000065      0.000111     -0.000114      0.000000
    195 O2    s       0.000094     -0.000011     -0.000623      0.000000
    196 O2    s       0.000137      0.000061      0.000378      0.000000
    197 O2    s       0.000182     -0.000147      0.002140      0.000000
    198 O2    s       0.000117      0.000137      0.000022      0.000000
    199 O3    s       0.001004      0.002302      0.001460      0.000000
    200 O2    s       0.000214     -0.000207     -0.000003      0.000000
    201 O2    s       0.000090      0.000107     -0.000114      0.000000
    202 O2    s       0.000169      0.000040     -0.000063      0.000000
    203 O2    s       0.000227      0.000112     -0.000024      0.000000
    204 O2    s       0.000076      0.000116     -0.000127      0.000000
    205 O2    s       0.001142      0.000152      0.000093      0.000000
    206 O2    s       0.000013      0.000203     -0.000390      0.000000
    207 O2    s       0.000210     -0.000126     -0.000218      0.000000
    208 O2    s       0.000262     -0.000054     -0.000264      0.000000
    209 O3    s       0.000182     -0.000031      0.000187      0.000000
    210 O2    s       0.000194     -0.000088      0.000982      0.000000
    211 O3    s       0.000297      0.000030      0.000160      0.000000
    212 O2    s       0.001618     -0.000848     -0.002421      0.000000
    213 O2    s      -0.000077      0.000005     -0.000095      0.000000
    214 O2    s       0.000096      0.000074      0.000040      0.000000
    215 O2    s       0.000208      0.000043      0.000261      0.000000
    216 O2    s       0.000182      0.000116      0.000204      0.000000
    217 O2    s       0.000245      0.000197     -0.000397      0.000000
    218 O2    s       0.000165      0.000033     -0.000099      0.000000
    219 O2    s      -0.000037     -0.000448     -0.001916      0.000000
    220 O3    s      -0.000040      0.000097      0.000230      0.000000
    221 O2    s       0.000247      0.000796      0.002498      0.000000
    222 O3    s       0.000309     -0.000122      0.000079      0.000000
    223 O2    s      -0.001001      0.001024      0.000501      0.000000
    224 O2    s       0.000093     -0.000063      0.000589      0.000000
    225 O2    s       0.000096     -0.000111      0.000044      0.000000
    226 O2    s       0.000143      0.000038      0.000189      0.000000
    227 O3    s      -0.000069      0.000182      0.000129      0.000000
    228 O2    s       0.000115      0.000061      0.000462      0.000000
    229 O3    s       0.000129      0.000194     -0.000125      0.000000
    230 O2    s      -0.001475      0.000157     -0.001333      0.000000
    231 O2    s      -0.000102      0.000128     -0.000399      0.000000
    232 O2    s      -0.000003      0.000123     -0.000089      0.000000
    233 O2    s       0.000175      0.000074     -0.000131      0.000000
    234 O2    s       0.000176      0.000254      0.000841      0.000000
    235 O2    s       0.000295      0.000196     -0.000104      0.000000
    236 O2    s      -0.000033      0.000066      0.000031      0.000000
    237 O2    s       0.000127      0.000082     -0.000471      0.000000
    238 O2    s       0.000218     -0.000141     -0.000366      0.000000
    239 O3    s       0.001969      0.001093     -0.001858      0.000000
    240 O2    s       0.000093      0.000192      0.000073      0.000000
    241 O2    s      -0.000116      0.000192     -0.000153      0.000000
    242 O2    s       0.000165      0.000155     -0.000174      0.000000
    243 O2    s       0.000252     -0.000175     -0.000205      0.000000
    244 O2    s       0.000178      0.000060     -0.000130      0.000000
    245 O2    s       0.000165      0.000078     -0.000201      0.000000
    246 O2    s       0.000031      0.000305      0.000568      0.000000
    247 O2    s       0.000408     -0.000028      0.000162      0.000000
    248 O2    s       0.000289     -0.000059     -0.000580      0.000000
    249 O2    s       0.000001      0.000101      0.000141      0.000000
    250 O2    s       0.000272     -0.000130     -0.000257      0.000000
    251 O2    s       0.000122      0.000082      0.000296      0.000000
    252 O2    s       0.000349      0.000052      0.000342      0.000000
    253 O3    s       0.000332      0.000102      0.000065      0.000000
    254 O2    s       0.000102      0.000183      0.000205      0.000000
    255 O2    s       0.000166     -0.000104      0.000093      0.000000
    256 O2    s       0.000113     -0.000012      0.000387      0.000000
    257 O2    s      -0.000031      0.000100     -0.000219      0.000000
    258 O2    s       0.000249      0.000179      0.000477      0.000000
    259 O2    s       0.000224      0.000182     -0.000337      0.000000
    260 O2    s       0.000077      0.000143      0.000327      0.000000
    261 O2    s      -0.000086      0.000064     -0.000258      0.000000
    262 O2    s       0.000033     -0.000025     -0.000243      0.000000
    263 O2    s       0.000120      0.000094     -0.000151      0.000000
    264 O2    s       0.000234     -0.000163      0.000588      0.000000
    265 O3    s       0.000236     -0.000588      0.001009      0.000000
    266 O2    s       0.000147      0.000191      0.000194      0.000000
    267 O2    s      -0.000011      0.000017      0.000194      0.000000
    268 O2    s       0.000060      0.000104      0.000327      0.000000
    269 O2    s       0.000051      0.000129     -0.000216      0.000000
    270 O2    s       0.000292      0.000267      0.000336      0.000000
    271 O2    s       0.000201      0.000025     -0.000278      0.000000
    272 O2    s       0.000087      0.000270     -0.000345      0.000000
    273 O2    s       0.000074     -0.000128     -0.000375      0.000000
    274 O2    s       0.000148     -0.000213     -0.000033      0.000000
    275 O2    s       0.000179      0.000037     -0.000148      0.000000
    276 O2    s      -0.000250      0.000121      0.001135      0.000000
    277 O2    s      -0.000055      0.000210      0.000108      0.000000
    278 O2    s       0.000172      0.000079     -0.000062      0.000000
    279 O2    s       0.000269     -0.000174     -0.000001      0.000000
    280 O2    s       0.000144      0.000025     -0.000040      0.000000
    281 O2    s       0.000252     -0.000123      0.000092      0.000000
    282 O2    s      -0.000353      0.000426     -0.000064      0.000000
    283 O2    s       0.000301      0.000129     -0.000091      0.000000
    284 O2    s       0.000218     -0.000060      0.001112      0.000000
    285 O2    s      -0.000070      0.000047     -0.000136      0.000000
    286 O2    s       0.000137     -0.000091      0.000105      0.000000
    287 O2    s       0.000003      0.000125      0.000016      0.000000
    288 O2    s       0.000468      0.000092     -0.000030      0.000000
    289 O2    s       0.000146     -0.000512     -0.000409      0.000000
    290 O2    s       0.000123      0.000171     -0.000415      0.000000
    291 O2    s       0.000078     -0.000013     -0.000366      0.000000
    292 O2    s       0.000258      0.000059     -0.000278      0.000000
    293 O2    s       0.000083      0.000064     -0.000082      0.000000
    294 O2    s       0.000348     -0.000077     -0.000102      0.000000
    295 O2    s       0.000262      0.000067      0.000336      0.000000
    296 O2    s      -0.000166      0.000025      0.000127      0.000000
    297 O2    s       0.000126     -0.000056      0.000177      0.000000
    298 O2    s       0.000230     -0.000053     -0.000439      0.000000
    299 O2    s       0.000236     -0.000008      0.000367      0.000000
    300 O2    s       0.000212      0.000099      0.000155      0.000000
    301 O2    s       0.000210      0.000046     -0.000083      0.000000
    302 O2    s       0.000261     -0.000068      0.000044      0.000000
    303 O2    s       0.000630      0.000051     -0.000917      0.000000
    304 O2    s       0.000094      0.000144     -0.000052      0.000000
    305 O2    s      -0.000076      0.000104      0.000762      0.000000
    306 O2    s       0.000381      0.000022      0.000082      0.000000
    307 F     s       0.000186      0.000110     -0.000081      0.000000
    308 F     s       0.000066     -0.000027      0.000014      0.000000
    309 F     s       0.000063      0.000123      0.000296      0.000000
    310 F     s       0.000081      0.000016     -0.000148      0.000000
    311 F     s      -0.000493     -0.000176     -0.000693      0.000000
    312 F     s       0.000183      0.000080      0.000001      0.000000
--------------------------------------------------------------------------------
  Maximum abs         0.003193      0.003120      0.007462      0.000000
--------------------------------------------------------------------------------


  Time to end of optimisation =      46.8098 seconds


  Peak dynamic memory used =      19.13 MB 


  Timing analysis for GULP :

--------------------------------------------------------------------------------
  Task / Subroutine                                          Time (Seconds)
--------------------------------------------------------------------------------
  Calculation of reciprocal space energy and derivatives          1.2947
  Calculation of real space energy and derivatives               40.5679
  Calculation of three-body energy and derivatives                4.1136
  Calculation of matrix inversion                                 0.7443
  Global summation overhead                                       0.0001
--------------------------------------------------------------------------------
  Total CPU time                                                 46.8098
--------------------------------------------------------------------------------


  Dump file written as out.res                                                 
  CIF file written as out.cif                                                 


  Job Finished at 18:21.58 12th November   2016                               

