********************************************************************************
*                       GENERAL UTILITY LATTICE PROGRAM                        *
*                                 Julian Gale                                  *
*                      Nanochemistry Research Institute                        *
*                           Department of Chemistry                            *
*                    Curtin University, Western Australia                      *
********************************************************************************
* Version = 4.2.0 * Last modified =  20th January 2014                         *
********************************************************************************
*  optimise     - perform optimisation run                                     *
*  conp         - constant pressure calculation                                *
*  qok          - running with non charge neutral cell is OK                   *
********************************************************************************

  Job Started  at 23:56.48 12th November   2016                               

  Number of CPUs =     1


  Total number of configurations input =   1

********************************************************************************
*  Input for Configuration =   1                                               *
********************************************************************************

  Formula = Ge3Si57O120F6                                               

  Number of irreducible atoms/shells =     312


  Total number atoms/shells =     312

  Dimensionality = 3               :  Bulk   


  Charge on solid   =  -6.000000 =>neutralising background added


  Cartesian lattice vectors (Angstroms) :

       11.961308    0.000000    0.000000
       -6.073456   10.375364    0.000000
       -0.040151   -0.212727   29.545603

  Cell parameters (Angstroms/Degrees):

  a =      11.9613    alpha =  90.3167
  b =      12.0223    beta  =  90.0779
  c =      29.5464    gamma = 120.3435

  Initial cell volume =        3666.695821 Angs**3

  Temperature of configuration =  0.000     K 

  Pressure of configuration =         0.000 GPa 

  Fractional coordinates of asymmetric unit :

--------------------------------------------------------------------------------
   No.  Atomic       x           y          z         Charge      Occupancy
        Label      (Frac)      (Frac)     (Frac)        (e)         (Frac)  
--------------------------------------------------------------------------------
      1 Ge    c    0.699600    0.375700    0.033890     4.00000    1.000000    
      2 Si    c    0.621660 *  0.322874 *  0.366726 *   4.00000    1.000000    
      3 Si    c    0.676805 *  0.297795 *  0.698163 *   4.00000    1.000000    
      4 Si    c    0.296597 *  0.620902 *  0.531334 *   4.00000    1.000000    
      5 Si    c    0.377095 *  0.676109 *  0.862701 *   4.00000    1.000000    
      6 Si    c    0.318051 *  0.698580 *  0.199149 *   4.00000    1.000000    
      7 Si    c    0.374207 *  0.696904 *  0.299428 *   4.00000    1.000000    
      8 Si    c    0.319563 *  0.620914 *  0.962634 *   4.00000    1.000000    
      9 Si    c    0.297299 *  0.676514 *  0.631666 *   4.00000    1.000000    
     10 Si    c    0.621758 *  0.298382 *  0.798507 *   4.00000    1.000000    
     11 Si    c    0.675947 *  0.379927 *  0.467103 *   4.00000    1.000000    
     12 Si    c    0.682517 *  0.316937 *  0.132233 *   4.00000    1.000000    
     13 Si    c    0.529560 *  0.415912 *  0.965223 *   4.00000    1.000000    
     14 Si    c    0.583929 *  0.110030 *  0.303180 *   4.00000    1.000000    
     15 Si    c    0.886689 *  0.469687 *  0.633247 *   4.00000    1.000000    
     16 Si    c    0.468057 *  0.582781 *  0.466074 *   4.00000    1.000000    
     17 Si    c    0.415090 *  0.886122 *  0.798203 *   4.00000    1.000000    
     18 Si    c    0.109666 *  0.536594 *  0.129784 *   4.00000    1.000000    
     19 Si    c    0.415825 *  0.527941 *  0.364442 *   4.00000    1.000000    
     20 Si    c    0.105787 *  0.582593 *  0.027000 *   4.00000    1.000000    
     21 Si    c    0.468544 *  0.887578 *  0.696793 *   4.00000    1.000000    
     22 Si    c    0.582353 *  0.470242 *  0.863310 *   4.00000    1.000000    
     23 Si    c    0.886489 *  0.417049 *  0.531823 *   4.00000    1.000000    
     24 Si    c    0.534410 *  0.113148 *  0.202035 *   4.00000    1.000000    
     25 Si    c    0.300932 *  0.398967 *  0.848051 *   4.00000    1.000000    
     26 Si    c    0.598333 *  0.900924 *  0.185815 *   4.00000    1.000000    
     27 Si    c    0.095300 *  0.697419 *  0.517290 *   4.00000    1.000000    
     28 Si    c    0.697212 *  0.599053 *  0.351342 *   4.00000    1.000000    
     29 Si    c    0.397723 *  0.095716 *  0.683038 *   4.00000    1.000000    
     30 Si    c    0.890993 *  0.293534 *  0.012435 *   4.00000    1.000000    
     31 Si    c    0.396606 *  0.302916 *  0.480822 *   4.00000    1.000000    
     32 Si    c    0.890107 *  0.600867 *  0.143349 *   4.00000    1.000000    
     33 Si    c    0.697310 *  0.097006 *  0.812277 *   4.00000    1.000000    
     34 Si    c    0.597558 *  0.696506 *  0.977688 *   4.00000    1.000000    
     35 Si    c    0.096156 *  0.398373 *  0.646696 *   4.00000    1.000000    
     36 Si    c    0.300230 *  0.899844 *  0.315758 *   4.00000    1.000000    
     37 Si    c    0.250606 *  0.341951 *  0.948030 *   4.00000    1.000000    
     38 Si    c    0.657723 *  0.907307 *  0.286090 *   4.00000    1.000000    
     39 Si    c    0.088381 *  0.748785 *  0.617708 *   4.00000    1.000000    
     40 Si    c    0.747672 *  0.659573 *  0.451641 *   4.00000    1.000000    
     41 Si    c    0.339300 *  0.087830 *  0.783289 *   4.00000    1.000000    
     42 Si    c    0.901722 *  0.254435 *  0.115046 *   4.00000    1.000000    
     43 Si    c    0.340017 *  0.250596 *  0.380298 *   4.00000    1.000000    
     44 Si    c    0.899176 *  0.660445 *  0.041302 *   4.00000    1.000000    
     45 Si    c    0.748530 *  0.089840 *  0.712039 *   4.00000    1.000000    
     46 Si    c    0.658613 *  0.748819 *  0.877689 *   4.00000    1.000000    
     47 Si    c    0.087508 *  0.339780 *  0.546196 *   4.00000    1.000000    
     48 Si    c    0.254627 *  0.910727 *  0.215370 *   4.00000    1.000000    
     49 Si    c    0.972640 *  0.122300 *  0.961939 *   4.00000    1.000000    
     50 Si    c    0.875934 *  0.847586 *  0.301927 *   4.00000    1.000000    
     51 Si    c    0.149762 *  0.028439 *  0.632048 *   4.00000    1.000000    
     52 Si    c    0.028778 *  0.877783 *  0.467022 *   4.00000    1.000000    
     53 Si    c    0.121646 *  0.150006 *  0.797047 *   4.00000    1.000000    
     54 Ge    c    0.845709 *  0.975841 *  0.130496 *   4.00000    1.000000    
     55 Si    c    0.121844 *  0.969413 *  0.366431 *   4.00000    1.000000    
     56 Si    c    0.848412 *  0.882186 *  0.026911 *   4.00000    1.000000    
     57 Si    c    0.028577 *  0.150846 *  0.696475 *   4.00000    1.000000    
     58 Si    c    0.877842 *  0.028536 *  0.861510 *   4.00000    1.000000    
     59 Si    c    0.149239 *  0.122260 *  0.531700 *   4.00000    1.000000    
     60 Ge    c    0.972117 *  0.851431 *  0.198310 *   4.00000    1.000000    
     61 O2    c    0.927664 *  0.998573 *  0.992769 *   0.87073    1.000000    
     62 O2    c    0.998310 *  0.927371 *  0.334706 *   0.87073    1.000000    
     63 O2    c    0.068363 *  0.070318 *  0.663551 *   0.87073    1.000000    
     64 O2    c    0.069462 *  0.999865 *  0.499204 *   0.87073    1.000000    
     65 O2    c    0.996956 *  0.068099 *  0.827969 *   0.87073    1.000000    
     66 O1    c    0.942821 *  0.944185 *  0.163006 *   1.73396    1.000000    
     67 O2    c    0.337801 *  0.574519 *  0.331744 *   0.87073    1.000000    
     68 O2    c    0.420973 *  0.762224 *  0.664288 *   0.87073    1.000000    
     69 O2    c    0.231750 *  0.657234 *  0.994971 *   0.87073    1.000000    
     70 O2    c    0.659607 *  0.421295 *  0.831228 *   0.87073    1.000000    
     71 O2    c    0.578130 *  0.239284 *  0.171511 *   0.87073    1.000000    
     72 O2    c    0.759329 *  0.340668 *  0.499666 *   0.87073    1.000000    
     73 O3    c    0.568969 *  0.336680 *  0.997335 *   1.33043    1.000000    
     74 O2    c    0.761656 *  0.420988 *  0.665747 *   0.87073    1.000000    
     75 O2    c    0.660565 *  0.235603 *  0.335695 *   0.87073    1.000000    
     76 O2    c    0.419191 *  0.659330 *  0.498269 *   0.87073    1.000000    
     77 O2    c    0.231531 *  0.581031 *  0.163811 *   0.87073    1.000000    
     78 O2    c    0.338774 *  0.760619 *  0.830184 *   0.87073    1.000000    
     79 O2    c    0.126473 *  0.214513 *  0.968586 *   0.87073    1.000000    
     80 O2    c    0.782174 *  0.907419 *  0.307770 *   0.87073    1.000000    
     81 O2    c    0.087193 *  0.874511 *  0.637424 *   0.87073    1.000000    
     82 O2    c    0.873886 *  0.786886 *  0.471764 *   0.87073    1.000000    
     83 O2    c    0.212681 *  0.087503 *  0.803123 *   0.87073    1.000000    
     84 O3    c    0.906834 *  0.138822 *  0.138598 *   1.33043    1.000000    
     85 O2    c    0.213770 *  0.123040 *  0.360151 *   0.87073    1.000000    
     86 O2    c    0.917796 *  0.797233 *  0.024422 *   0.87073    1.000000    
     87 O2    c    0.873853 *  0.088596 *  0.691641 *   0.87073    1.000000    
     88 O2    c    0.785729 *  0.874140 *  0.857496 *   0.87073    1.000000    
     89 O2    c    0.085907 *  0.212601 *  0.526397 *   0.87073    1.000000    
     90 O3    c    0.136062 *  0.915619 *  0.193154 *   1.33043    1.000000    
     91 O3    c    0.928300 *  0.866918 *  0.251857 *   1.33043    1.000000    
     92 O2    c    0.137445 *  0.068417 *  0.581663 *   0.87073    1.000000    
     93 O2    c    0.936559 *  0.072790 *  0.911019 *   0.87073    1.000000    
     94 O2    c    0.070960 *  0.137348 *  0.746272 *   0.87073    1.000000    
     95 O3    c    0.860374 *  0.943439 *  0.075548 *   1.33043    1.000000    
     96 O2    c    0.071396 *  0.931396 *  0.416967 *   0.87073    1.000000    
     97 O2    c    0.902156 *  0.201553 *  0.974867 *   0.87073    1.000000    
     98 O2    c    0.795696 *  0.695275 *  0.313007 *   0.87073    1.000000    
     99 O2    c    0.301632 *  0.098415 *  0.644614 *   0.87073    1.000000    
    100 O2    c    0.097398 *  0.795681 *  0.479254 *   0.87073    1.000000    
    101 O2    c    0.203132 *  0.301437 *  0.809406 *   0.87073    1.000000    
    102 O3    c    0.685642 *  0.892265 *  0.146368 *   1.33043    1.000000    
    103 O2    c    0.202081 *  0.898282 *  0.353969 *   0.87073    1.000000    
    104 O2    c    0.695267 *  0.795191 *  0.016128 *   0.87073    1.000000    
    105 O2    c    0.098606 *  0.302358 *  0.684615 *   0.87073    1.000000    
    106 O2    c    0.795537 *  0.097801 *  0.850389 *   0.87073    1.000000    
    107 O2    c    0.300966 *  0.205818 *  0.519277 *   0.87073    1.000000    
    108 O3    c    0.889988 *  0.690659 *  0.183496 *   1.33043    1.000000    
    109 O2    c    0.315753 *  0.638981 *  0.248969 *   0.87073    1.000000    
    110 O2    c    0.355205 *  0.678123 *  0.581480 *   0.87073    1.000000    
    111 O2    c    0.318407 *  0.677283 *  0.912595 *   0.87073    1.000000    
    112 O2    c    0.678466 *  0.355520 *  0.748408 *   0.87073    1.000000    
    113 O3    c    0.611184 *  0.302450 *  0.085060 *   1.33043    1.000000    
    114 O2    c    0.678009 *  0.323823 *  0.416952 *   0.87073    1.000000    
    115 O2    c    0.371711 *  0.331285 *  0.965838 *   0.87073    1.000000    
    116 O2    c    0.668914 *  0.039145 *  0.305388 *   0.87073    1.000000    
    117 O2    c    0.955952 *  0.625908 *  0.635969 *   0.87073    1.000000    
    118 O2    c    0.625008 *  0.670197 *  0.469163 *   0.87073    1.000000    
    119 O2    c    0.328441 *  0.955462 *  0.801272 *   0.87073    1.000000    
    120 O2    c    0.035236 *  0.381773 *  0.130212 *   0.87073    1.000000    
    121 O2    c    0.329257 *  0.371457 *  0.361406 *   0.87073    1.000000    
    122 O2    c    0.032162 *  0.664177 *  0.025514 *   0.87073    1.000000    
    123 O2    c    0.625300 *  0.957123 *  0.693676 *   0.87073    1.000000    
    124 O2    c    0.668339 *  0.626424 *  0.859578 *   0.87073    1.000000    
    125 O2    c    0.954649 *  0.329620 *  0.527913 *   0.87073    1.000000    
    126 O2    c    0.378529 *  0.042636 *  0.198360 *   0.87073    1.000000    
    127 O3    c    0.757289 *  0.285787 *  0.002817 *   1.33043    1.000000    
    128 O2    c    0.696648 *  0.464995 *  0.343686 *   0.87073    1.000000    
    129 O2    c    0.532879 *  0.229389 *  0.675660 *   0.87073    1.000000    
    130 O2    c    0.228584 *  0.695950 *  0.509304 *   0.87073    1.000000    
    131 O2    c    0.302484 *  0.533049 *  0.839741 *   0.87073    1.000000    
    132 O2    c    0.462022 *  0.767856 *  0.177861 *   0.87073    1.000000    
    133 O2    c    0.300093 *  0.765703 *  0.321865 *   0.87073    1.000000    
    134 O2    c    0.463371 *  0.697569 *  0.985351 *   0.87073    1.000000    
    135 O2    c    0.230250 *  0.533620 *  0.653792 *   0.87073    1.000000    
    136 O2    c    0.697124 *  0.230383 *  0.820353 *   0.87073    1.000000    
    137 O2    c    0.531477 *  0.304828 *  0.488596 *   0.87073    1.000000    
    138 O2    c    0.756816 *  0.466321 *  0.149990 *   0.87073    1.000000    
    139 O3    c    0.771572 *  0.546752 *  0.020456 *   1.33043    1.000000    
    140 O2    c    0.465077 *  0.248231 *  0.361084 *   0.87073    1.000000    
    141 O2    c    0.750984 *  0.216508 *  0.692862 *   0.87073    1.000000    
    142 O2    c    0.214471 *  0.464694 *  0.526509 *   0.87073    1.000000    
    143 O2    c    0.533911 *  0.751509 *  0.858103 *   0.87073    1.000000    
    144 O2    c    0.244920 *  0.780244 *  0.195787 *   0.87073    1.000000    
    145 O2    c    0.530706 *  0.779353 *  0.303796 *   0.87073    1.000000    
    146 O2    c    0.245677 *  0.465340 *  0.967772 *   0.87073    1.000000    
    147 O2    c    0.215207 *  0.750016 *  0.636888 *   0.87073    1.000000    
    148 O2    c    0.465166 *  0.214688 *  0.802994 *   0.87073    1.000000    
    149 O2    c    0.748975 *  0.535818 *  0.471786 *   0.87073    1.000000    
    150 O2    c    0.776552 *  0.255815 *  0.133763 *   0.87073    1.000000    
    151 O2    c    0.228229 *  0.324691 *  0.893859 *   0.87073    1.000000    
    152 O2    c    0.677041 *  0.906181 *  0.231661 *   0.87073    1.000000    
    153 O2    c    0.090908 *  0.767628 *  0.563545 *   0.87073    1.000000    
    154 O2    c    0.768462 *  0.675415 *  0.397481 *   0.87073    1.000000    
    155 O2    c    0.322083 *  0.090077 *  0.729096 *   0.87073    1.000000    
    156 O2    c    0.895349 *  0.230956 *  0.060956 *   0.87073    1.000000    
    157 O2    c    0.321850 *  0.232087 *  0.434395 *   0.87073    1.000000    
    158 O2    c    0.894796 *  0.672764 *  0.096743 *   0.87073    1.000000    
    159 O2    c    0.768246 *  0.092698 *  0.766181 *   0.87073    1.000000    
    160 O2    c    0.674993 *  0.767601 *  0.931953 *   0.87073    1.000000    
    161 O2    c    0.090110 *  0.323270 *  0.600285 *   0.87073    1.000000    
    162 O2    c    0.230333 *  0.905591 *  0.269526 *   0.87073    1.000000    
    163 O2    c    0.581583 *  0.558009 *  0.987384 *   0.87073    1.000000    
    164 O2    c    0.441038 *  0.024377 *  0.325053 *   0.87073    1.000000    
    165 O2    c    0.971342 *  0.413092 *  0.655784 *   0.87073    1.000000    
    166 O2    c    0.410788 *  0.442152 *  0.488965 *   0.87073    1.000000    
    167 O2    c    0.557392 *  0.971498 *  0.820970 *   0.87073    1.000000    
    168 O2    c    0.016410 *  0.586316 *  0.148885 *   0.87073    1.000000    
    169 O2    c    0.557951 *  0.585761 *  0.341817 *   0.87073    1.000000    
    170 O2    c    0.015811 *  0.438288 *  0.007588 *   0.87073    1.000000    
    171 O2    c    0.410529 *  0.970248 *  0.673706 *   0.87073    1.000000    
    172 O2    c    0.440305 *  0.411655 *  0.840143 *   0.87073    1.000000    
    173 O2    c    0.969037 *  0.557700 *  0.508461 *   0.87073    1.000000    
    174 O2    c    0.592623 *  0.031108 *  0.178091 *   0.87073    1.000000    
    175 O2    c    0.587478 *  0.165183 *  0.252838 *   0.87073    1.000000    
    176 O2    c    0.833037 *  0.416017 *  0.582460 *   0.87073    1.000000    
    177 O2    c    0.583526 *  0.420366 *  0.914046 *   0.87073    1.000000    
    178 O2    c    0.414739 *  0.833904 *  0.747238 *   0.87073    1.000000    
    179 O2    c    0.156644 *  0.586024 *  0.078663 *   0.87073    1.000000    
    180 O2    c    0.415418 *  0.581644 *  0.415074 *   0.87073    1.000000    
    181 F     c    0.451596 *  0.901679 *  0.249745 *   0.56000    1.000000    
    182 F     c    0.095341 *  0.547436 *  0.581390 *   0.56000    1.000000    
    183 F     c    0.447592 *  0.551206 *  0.912626 *   0.56000    1.000000    
    184 F     c    0.547690 *  0.096119 *  0.747276 *   0.56000    1.000000    
    185 F     c    0.851034 *  0.435639 *  0.070638 *   0.56000    1.000000    
    186 F     c    0.547713 *  0.451958 *  0.415141 *   0.56000    1.000000    
    187 O2    s    0.923858 *  0.999602 *  0.993100 *  -2.87073    1.000000    
    188 O2    s    0.998599 *  0.923206 *  0.334644 *  -2.87073    1.000000    
    189 O2    s    0.073041 *  0.074586 *  0.663684 *  -2.87073    1.000000    
    190 O2    s    0.073832 *  0.999856 *  0.499225 *  -2.87073    1.000000    
    191 O2    s    0.997623 *  0.072860 *  0.828246 *  -2.87073    1.000000    
    192 O1    s    0.937151 *  0.939073 *  0.163238 *  -3.73396    1.000000    
    193 O2    s    0.349411 *  0.582356 *  0.331722 *  -2.87073    1.000000    
    194 O2    s    0.413026 *  0.766221 *  0.664237 *  -2.87073    1.000000    
    195 O2    s    0.227292 *  0.645806 *  0.995097 *  -2.87073    1.000000    
    196 O2    s    0.647849 *  0.413583 *  0.831103 *  -2.87073    1.000000    
    197 O2    s    0.584403 *  0.234040 *  0.170626 *  -2.87073    1.000000    
    198 O2    s    0.763715 *  0.352606 *  0.499573 *  -2.87073    1.000000    
    199 O3    s    0.574508 *  0.347888 *  0.996686 *  -3.33043    1.000000    
    200 O2    s    0.765942 *  0.413453 *  0.665702 *  -2.87073    1.000000    
    201 O2    s    0.648662 *  0.231481 *  0.335495 *  -2.87073    1.000000    
    202 O2    s    0.411731 *  0.647487 *  0.498317 *  -2.87073    1.000000    
    203 O2    s    0.227538 *  0.588184 *  0.163828 *  -2.87073    1.000000    
    204 O2    s    0.350541 *  0.764991 *  0.830194 *  -2.87073    1.000000    
    205 O2    s    0.122632 *  0.217696 *  0.965780 *  -2.87073    1.000000    
    206 O2    s    0.778984 *  0.901111 *  0.304920 *  -2.87073    1.000000    
    207 O2    s    0.093912 *  0.877767 *  0.634849 *  -2.87073    1.000000    
    208 O2    s    0.877268 *  0.783325 *  0.469189 *  -2.87073    1.000000    
    209 O2    s    0.216142 *  0.094146 *  0.800455 *  -2.87073    1.000000    
    210 O3    s    0.901341 *  0.137591 *  0.135518 *  -3.33043    1.000000    
    211 O2    s    0.217066 *  0.119917 *  0.362869 *  -2.87073    1.000000    
    212 O2    s    0.908462 *  0.792362 *  0.026401 *  -2.87073    1.000000    
    213 O2    s    0.877403 *  0.095373 *  0.694232 *  -2.87073    1.000000    
    214 O2    s    0.782398 *  0.877635 *  0.859983 *  -2.87073    1.000000    
    215 O2    s    0.092754 *  0.216095 *  0.528961 *  -2.87073    1.000000    
    216 O3    s    0.134440 *  0.909672 *  0.195869 *  -3.33043    1.000000    
    217 O3    s    0.926444 *  0.863411 *  0.252574 *  -3.33043    1.000000    
    218 O2    s    0.140177 *  0.070052 *  0.581649 *  -2.87073    1.000000    
    219 O2    s    0.933913 *  0.073333 *  0.911153 *  -2.87073    1.000000    
    220 O2    s    0.071850 *  0.140333 *  0.746315 *  -2.87073    1.000000    
    221 O3    s    0.857760 *  0.939778 *  0.075307 *  -3.33043    1.000000    
    222 O2    s    0.072337 *  0.929665 *  0.416855 *  -2.87073    1.000000    
    223 O2    s    0.908711 *  0.202557 *  0.977420 *  -2.87073    1.000000    
    224 O2    s    0.794148 *  0.701481 *  0.315702 *  -2.87073    1.000000    
    225 O2    s    0.295162 *  0.090649 *  0.647177 *  -2.87073    1.000000    
    226 O2    s    0.089868 *  0.794399 *  0.481828 *  -2.87073    1.000000    
    227 O2    s    0.204402 *  0.295203 *  0.812030 *  -2.87073    1.000000    
    228 O3    s    0.690269 *  0.899945 *  0.148908 *  -3.33043    1.000000    
    229 O2    s    0.203761 *  0.905897 *  0.351341 *  -2.87073    1.000000    
    230 O2    s    0.701418 *  0.794312 *  0.013367 *  -2.87073    1.000000    
    231 O2    s    0.090964 *  0.296219 *  0.681972 *  -2.87073    1.000000    
    232 O2    s    0.794160 *  0.090345 *  0.847645 *  -2.87073    1.000000    
    233 O2    s    0.294690 *  0.206971 *  0.516628 *  -2.87073    1.000000    
    234 O3    s    0.896697 *  0.694948 *  0.180740 *  -3.33043    1.000000    
    235 O2    s    0.321726 *  0.650649 *  0.248940 *  -2.87073    1.000000    
    236 O2    s    0.343330 *  0.672088 *  0.581427 *  -2.87073    1.000000    
    237 O2    s    0.324390 *  0.671419 *  0.912673 *  -2.87073    1.000000    
    238 O2    s    0.672545 *  0.343824 *  0.748359 *  -2.87073    1.000000    
    239 O3    s    0.624151 *  0.308694 *  0.086430 *  -3.33043    1.000000    
    240 O2    s    0.671977 *  0.329507 *  0.416887 *  -2.87073    1.000000    
    241 O2    s    0.374352 *  0.341057 *  0.963796 *  -2.87073    1.000000    
    242 O2    s    0.658942 *  0.032709 *  0.303135 *  -2.87073    1.000000    
    243 O2    s    0.962702 *  0.622727 *  0.633768 *  -2.87073    1.000000    
    244 O2    s    0.621671 *  0.660063 *  0.466993 *  -2.87073    1.000000    
    245 O2    s    0.338433 *  0.962163 *  0.799074 *  -2.87073    1.000000    
    246 O2    s    0.029289 *  0.385209 *  0.128559 *  -2.87073    1.000000    
    247 O2    s    0.339225 *  0.374918 *  0.363684 *  -2.87073    1.000000    
    248 O2    s    0.026729 *  0.655137 *  0.027246 *  -2.87073    1.000000    
    249 O2    s    0.622071 *  0.963919 *  0.695940 *  -2.87073    1.000000    
    250 O2    s    0.658501 *  0.623202 *  0.861859 *  -2.87073    1.000000    
    251 O2    s    0.961512 *  0.339649 *  0.530226 *  -2.87073    1.000000    
    252 O2    s    0.381820 *  0.035890 *  0.200608 *  -2.87073    1.000000    
    253 O3    s    0.767534 *  0.292581 *  0.005970 *  -3.33043    1.000000    
    254 O2    s    0.689048 *  0.464461 *  0.346853 *  -2.87073    1.000000    
    255 O2    s    0.533479 *  0.222356 *  0.678790 *  -2.87073    1.000000    
    256 O2    s    0.221562 *  0.688387 *  0.512430 *  -2.87073    1.000000    
    257 O2    s    0.309963 *  0.533707 *  0.842992 *  -2.87073    1.000000    
    258 O2    s    0.460925 *  0.774352 *  0.180993 *  -2.87073    1.000000    
    259 O2    s    0.307690 *  0.772597 *  0.318896 *  -2.87073    1.000000    
    260 O2    s    0.462361 *  0.689620 *  0.982212 *  -2.87073    1.000000    
    261 O2    s    0.222985 *  0.534035 *  0.650732 *  -2.87073    1.000000    
    262 O2    s    0.689417 *  0.223382 *  0.817238 *  -2.87073    1.000000    
    263 O2    s    0.532156 *  0.312418 *  0.485513 *  -2.87073    1.000000    
    264 O2    s    0.763637 *  0.465792 *  0.147432 *  -2.87073    1.000000    
    265 O3    s    0.781251 *  0.548604 *  0.023556 *  -3.33043    1.000000    
    266 O2    s    0.467917 *  0.256358 *  0.363703 *  -2.87073    1.000000    
    267 O2    s    0.742912 *  0.211214 *  0.695453 *  -2.87073    1.000000    
    268 O2    s    0.209209 *  0.467434 *  0.529098 *  -2.87073    1.000000    
    269 O2    s    0.531010 *  0.743268 *  0.860666 *  -2.87073    1.000000    
    270 O2    s    0.253807 *  0.785371 *  0.198219 *  -2.87073    1.000000    
    271 O2    s    0.527956 *  0.784644 *  0.301421 *  -2.87073    1.000000    
    272 O2    s    0.253956 *  0.468538 *  0.965178 *  -2.87073    1.000000    
    273 O2    s    0.209823 *  0.742144 *  0.634291 *  -2.87073    1.000000    
    274 O2    s    0.467887 *  0.209568 *  0.800415 *  -2.87073    1.000000    
    275 O2    s    0.741094 *  0.532933 *  0.469142 *  -2.87073    1.000000    
    276 O2    s    0.780675 *  0.262076 *  0.131516 *  -2.87073    1.000000    
    277 O2    s    0.238205 *  0.334331 *  0.894754 *  -2.87073    1.000000    
    278 O2    s    0.667228 *  0.905790 *  0.232611 *  -2.87073    1.000000    
    279 O2    s    0.091086 *  0.758215 *  0.564405 *  -2.87073    1.000000    
    280 O2    s    0.758773 *  0.665714 *  0.398345 *  -2.87073    1.000000    
    281 O2    s    0.331853 *  0.090412 *  0.729981 *  -2.87073    1.000000    
    282 O2    s    0.895510 *  0.239518 *  0.061849 *  -2.87073    1.000000    
    283 O2    s    0.331624 *  0.241502 *  0.433515 *  -2.87073    1.000000    
    284 O2    s    0.894659 *  0.664055 *  0.096386 *  -2.87073    1.000000    
    285 O2    s    0.758745 *  0.092849 *  0.765227 *  -2.87073    1.000000    
    286 O2    s    0.665221 *  0.758235 *  0.930944 *  -2.87073    1.000000    
    287 O2    s    0.090460 *  0.332908 *  0.599380 *  -2.87073    1.000000    
    288 O2    s    0.240030 *  0.905472 *  0.268737 *  -2.87073    1.000000    
    289 O2    s    0.577730 *  0.558675 *  0.984030 *  -2.87073    1.000000    
    290 O2    s    0.440806 *  0.019727 *  0.321762 *  -2.87073    1.000000    
    291 O2    s    0.976139 *  0.417614 *  0.652443 *  -2.87073    1.000000    
    292 O2    s    0.415428 *  0.441846 *  0.485679 *  -2.87073    1.000000    
    293 O2    s    0.557561 *  0.976274 *  0.817630 *  -2.87073    1.000000    
    294 O2    s    0.012965 *  0.582422 *  0.146232 *  -2.87073    1.000000    
    295 O2    s    0.557980 *  0.580948 *  0.345199 *  -2.87073    1.000000    
    296 O2    s    0.012584 *  0.439073 *  0.010186 *  -2.87073    1.000000    
    297 O2    s    0.415358 *  0.975314 *  0.677106 *  -2.87073    1.000000    
    298 O2    s    0.440126 *  0.416569 *  0.843412 *  -2.87073    1.000000    
    299 O2    s    0.974228 *  0.558136 *  0.511833 *  -2.87073    1.000000    
    300 O2    s    0.587115 *  0.025677 *  0.181369 *  -2.87073    1.000000    
    301 O2    s    0.581539 *  0.153937 *  0.252763 *  -2.87073    1.000000    
    302 O2    s    0.844160 *  0.421686 *  0.582449 *  -2.87073    1.000000    
    303 O2    s    0.578041 *  0.425209 *  0.913847 *  -2.87073    1.000000    
    304 O2    s    0.420345 *  0.844872 *  0.747279 *  -2.87073    1.000000    
    305 O2    s    0.146685 *  0.580527 *  0.078863 *  -2.87073    1.000000    
    306 O2    s    0.420838 *  0.576195 *  0.415066 *  -2.87073    1.000000    
    307 F     s    0.451426 *  0.901341 *  0.249610 *  -1.56000    1.000000    
    308 F     s    0.095758 *  0.547615 *  0.581325 *  -1.56000    1.000000    
    309 F     s    0.447078 *  0.551750 *  0.912575 *  -1.56000    1.000000    
    310 F     s    0.547939 *  0.096541 *  0.747215 *  -1.56000    1.000000    
    311 F     s    0.841326 *  0.431856 *  0.068491 *  -1.56000    1.000000    
    312 F     s    0.547980 *  0.451800 *  0.415040 *  -1.56000    1.000000    
--------------------------------------------------------------------------------



********************************************************************************
*  General input information                                                   *
********************************************************************************

  Species output for all configurations : 

--------------------------------------------------------------------------------
  Species    Type    Atomic    Atomic    Charge       Radii (Angs)     Library
                     Number     Mass       (e)     Cova   Ionic  VDW   Symbol
--------------------------------------------------------------------------------
    Si       Core       14      28.09   4.000000   1.200  0.000  2.100          
    O1       Core        8      16.00   1.733957   0.730  0.000  1.360          
    O1       Shell       8       0.00  -3.733957   0.730  0.000  1.360          
    O2       Core        8      16.00   0.870733   0.730  0.000  1.360          
    O2       Shell       8       0.00  -2.870733   0.730  0.000  1.360          
    O3       Core        8      16.00   1.330431   0.730  0.000  1.360          
    O3       Shell       8       0.00  -3.330431   0.730  0.000  1.360          
    F        Core        9      19.00   0.560000   0.710  0.000  1.300          
    F        Shell       9       0.00  -1.560000   0.710  0.000  1.300          
    Ge       Core       32      72.61   4.000000   1.170  0.000  1.750          
--------------------------------------------------------------------------------


  Lattice summation method               =    Ewald          (3-D)
                                         =    Parry          (2-D)
                                         =    Saunders et al (1-D)
  Accuracy factor for lattice sums       =   12.000


  Time limit = Infinity

  Maximum range for interatomic potentials =        16.000000 Angstroms

  Taper potentials to zero over   1.0000 Angstroms using polynomial

  General interatomic potentials :

--------------------------------------------------------------------------------
Atom  Types   Potential         A         B         C         D     Cutoffs(Ang)
  1     2                                                            Min    Max 
--------------------------------------------------------------------------------
Si   c O1   s Buckingham    0.132E+04 0.318      10.1      0.00     0.000 16.000
Si   c O2   s Buckingham    0.132E+04 0.318      10.1      0.00     0.000 16.000
Si   c O3   s Buckingham    0.132E+04 0.318      10.1      0.00     0.000 16.000
Ge   c O1   s Buckingham    0.150E+04 0.326      16.8      0.00     0.000 16.000
Ge   c O2   s Buckingham    0.150E+04 0.326      16.8      0.00     0.000 16.000
Ge   c O3   s Buckingham    0.150E+04 0.326      16.8      0.00     0.000 16.000
O1   s O1   s Buckingham    0.228E+05 0.149      10.9      0.00     0.000 16.000
O1   s O2   s Buckingham    0.228E+05 0.149      10.9      0.00     0.000 16.000
O1   s O3   s Buckingham    0.228E+05 0.149      10.9      0.00     0.000 16.000
O2   s O2   s Buckingham    0.228E+05 0.149      10.9      0.00     0.000 16.000
O2   s O3   s Buckingham    0.228E+05 0.149      10.9      0.00     0.000 16.000
O3   s O3   s Buckingham    0.228E+05 0.149      10.9      0.00     0.000 16.000
Si   c F    s Buckingham     977.     0.282      0.00      0.00     0.000 16.000
Ge   c F    s Buckingham     681.     0.320      0.00      0.00     0.000 16.000
F    s F    s Buckingham     540.     0.262      0.00      0.00     0.000 16.000
O1   s F    s Buckingham    0.168E+04 0.268      0.00      0.00     0.000 16.000
O2   s F    s Buckingham    0.168E+04 0.268      0.00      0.00     0.000 16.000
O3   s F    s Buckingham    0.168E+04 0.268      0.00      0.00     0.000 16.000
O2   c O2   s Spring (c-s)   76.0      0.00      0.00      0.00     0.000  0.800
O3   c O3   s Spring (c-s)   128.      0.00      0.00      0.00     0.000  0.800
O1   c O1   s Spring (c-s)   180.      0.00      0.00      0.00     0.000  0.800
F    c F    s Spring (c-s)   33.5      0.00      0.00      0.00     0.000  0.800
--------------------------------------------------------------------------------

  General Three-body potentials :

  Harmonic form:

--------------------------------------------------------------------------------
Atom    Atom    Atom           Force Constants            Theta     Cutoffs  
  1       2       3     (eVrad**-2/eVrad**-3/eVrad**-4)   (deg)  1-2  1-3  2-3
--------------------------------------------------------------------------------
Si    c O1    s O1    s  1.261        0.0000    0.0000   109.470 0.00 0.00 0.00
                                                                 1.90 1.90 3.50
Si    c O1    s O2    s  1.261        0.0000    0.0000   109.470 0.00 0.00 0.00
                                                                 1.90 1.90 3.50
Si    c O2    s O2    s  1.261        0.0000    0.0000   109.470 0.00 0.00 0.00
                                                                 1.90 1.90 3.50
--------------------------------------------------------------------------------

********************************************************************************
*  Output for configuration   1                                                *
********************************************************************************


  Components of energy : 

--------------------------------------------------------------------------------
  Interatomic potentials     =        2059.92178233 eV
  Three-body potentials      =           0.47652183 eV
  Monopole - monopole (real) =       -6610.90228136 eV
  Monopole - monopole (recip)=       -3168.83444497 eV
  Monopole - monopole (total)=       -9779.73672633 eV
  Neutralising energy        =          -6.45421830 eV
--------------------------------------------------------------------------------
  Total lattice energy       =       -7725.79264047 eV
--------------------------------------------------------------------------------
  Total lattice energy       =         -745420.8902 kJ/(mole unit cells)
--------------------------------------------------------------------------------


  Number of variables =      939

  Maximum number of calculations  =          5000
  Maximum Hessian update interval =            10
  Maximum step size               =   0.100000000
  Maximum parameter tolerance     =   0.000010000
  Maximum function  tolerance     =   0.000010000
  Maximum gradient  tolerance     =   0.001000000
  Maximum gradient  component     =   0.010000000

  Symmetry not applied to optimisation

  Cell parameters to be optimised using strains

  Newton-Raphson optimiser to be used

  BFGS hessian update to be used

  Dumpfile to be written after every cycle

  Start of bulk optimisation :

  Cycle:      0 Energy:     -7725.792640  Gnorm:      0.005264  CPU:    2.008
  ** Hessian calculated **
  Cycle:      1 Energy:     -7725.812803  Gnorm:      0.004694  CPU:    6.575
  Cycle:      2 Energy:     -7725.836966  Gnorm:      0.003925  CPU:   10.766
  Cycle:      3 Energy:     -7725.863689  Gnorm:      0.002915  CPU:   14.958
  Cycle:      4 Energy:     -7725.881096  Gnorm:      0.002024  CPU:   19.149
  Cycle:      5 Energy:     -7725.885294  Gnorm:      0.001286  CPU:   23.339
  Cycle:      6 Energy:     -7725.886337  Gnorm:      0.000731  CPU:   27.529
  Cycle:      7 Energy:     -7725.886600  Gnorm:      0.000396  CPU:   31.718
  Cycle:      8 Energy:     -7725.886666  Gnorm:      0.000207  CPU:   35.906
  Cycle:      9 Energy:     -7725.886677  Gnorm:      0.000147  CPU:   38.733
  Cycle:     10 Energy:     -7725.886683  Gnorm:      0.000103  CPU:   41.561
  ** Hessian calculated **
  Cycle:     11 Energy:     -7725.886683  Gnorm:      0.000050  CPU:   46.074
  Cycle:     12 Energy:     -7725.886683  Gnorm:      0.000036  CPU:   48.903
  Cycle:     13 Energy:     -7725.886683  Gnorm:      0.000027  CPU:   51.730


  **** Optimisation achieved ****


  Final energy =   -7725.88668304 eV
  Final Gnorm  =       0.00002257

  Components of energy : 

--------------------------------------------------------------------------------
  Interatomic potentials     =        2060.27848732 eV
  Three-body potentials      =           0.47991129 eV
  Monopole - monopole (real) =       -6612.39310062 eV
  Monopole - monopole (recip)=       -3167.79986448 eV
  Monopole - monopole (total)=       -9780.19296510 eV
  Neutralising energy        =          -6.45211655 eV
--------------------------------------------------------------------------------
  Total lattice energy       =       -7725.88668304 eV
--------------------------------------------------------------------------------
  Total lattice energy       =         -745429.9639 kJ/(mole unit cells)
--------------------------------------------------------------------------------

  Final fractional coordinates of atoms :

--------------------------------------------------------------------------------
   No.  Atomic        x           y          z          Radius
        Label       (Frac)      (Frac)     (Frac)       (Angs) 
--------------------------------------------------------------------------------
     1  Ge    c     0.699600    0.375700    0.033890    0.000000
     2  Si    c     0.596930    0.306709    0.366301    0.000000
     3  Si    c     0.656497    0.282255    0.697976    0.000000
     4  Si    c     0.272421    0.604505    0.531159    0.000000
     5  Si    c     0.361225    0.663178    0.862891    0.000000
     6  Si    c     0.298530    0.684805    0.199420    0.000000
     7  Si    c     0.351688    0.681963    0.299849    0.000000
     8  Si    c     0.307218    0.609486    0.963134    0.000000
     9  Si    c     0.276126    0.662124    0.631602    0.000000
    10  Si    c     0.603490    0.284443    0.798514    0.000000
    11  Si    c     0.652342    0.364491    0.466784    0.000000
    12  Si    c     0.664505    0.303989    0.131542    0.000000
    13  Si    c     0.520898    0.407404    0.965553    0.000000
    14  Si    c     0.560699    0.094715    0.302637    0.000000
    15  Si    c     0.865516    0.454992    0.633119    0.000000
    16  Si    c     0.443562    0.566017    0.465949    0.000000
    17  Si    c     0.397216    0.872415    0.798425    0.000000
    18  Si    c     0.091751    0.522110    0.130493    0.000000
    19  Si    c     0.390430    0.510407    0.364319    0.000000
    20  Si    c     0.094497    0.573259    0.027777    0.000000
    21  Si    c     0.449175    0.873213    0.696749    0.000000
    22  Si    c     0.568165    0.459516    0.862997    0.000000
    23  Si    c     0.863311    0.401369    0.531578    0.000000
    24  Si    c     0.513102    0.098291    0.201042    0.000000
    25  Si    c     0.286352    0.386977    0.848050    0.000000
    26  Si    c     0.577991    0.886443    0.185645    0.000000
    27  Si    c     0.071517    0.681161    0.517121    0.000000
    28  Si    c     0.671537    0.582066    0.350813    0.000000
    29  Si    c     0.377549    0.080472    0.682911    0.000000
    30  Si    c     0.881342    0.284238    0.011866    0.000000
    31  Si    c     0.372891    0.286944    0.480502    0.000000
    32  Si    c     0.872995    0.587161    0.144156    0.000000
    33  Si    c     0.679222    0.083413    0.812533    0.000000
    34  Si    c     0.586022    0.687073    0.977448    0.000000
    35  Si    c     0.075282    0.384196    0.646497    0.000000
    36  Si    c     0.277396    0.884530    0.315470    0.000000
    37  Si    c     0.240883    0.331971    0.948411    0.000000
    38  Si    c     0.634784    0.892263    0.286336    0.000000
    39  Si    c     0.066431    0.733640    0.617638    0.000000
    40  Si    c     0.723329    0.643614    0.451203    0.000000
    41  Si    c     0.321246    0.073683    0.783420    0.000000
    42  Si    c     0.884401    0.241404    0.114887    0.000000
    43  Si    c     0.315126    0.233860    0.379924    0.000000
    44  Si    c     0.892727    0.657529    0.042402    0.000000
    45  Si    c     0.729067    0.075371    0.712088    0.000000
    46  Si    c     0.643316    0.737226    0.877114    0.000000
    47  Si    c     0.064129    0.323716    0.545932    0.000000
    48  Si    c     0.233690    0.895532    0.214790    0.000000
    49  Si    c     0.962374    0.112823    0.961376    0.000000
    50  Si    c     0.851275    0.830616    0.301869    0.000000
    51  Si    c     0.128897    0.013334    0.631990    0.000000
    52  Si    c     0.004681    0.861573    0.466938    0.000000
    53  Si    c     0.105436    0.138158    0.796931    0.000000
    54  Ge    c     0.826690    0.963155    0.130818    0.000000
    55  Si    c     0.098094    0.952789    0.366276    0.000000
    56  Si    c     0.836848    0.875152    0.027160    0.000000
    57  Si    c     0.009699    0.137511    0.696433    0.000000
    58  Si    c     0.861763    0.016780    0.861365    0.000000
    59  Si    c     0.125881    0.106216    0.531531    0.000000
    60  Ge    c     0.950910    0.836219    0.198639    0.000000
    61  O2    c     0.916522    0.990067    0.992691    0.000000
    62  O2    c     0.973784    0.908501    0.334732    0.000000
    63  O2    c     0.048440    0.056207    0.663510    0.000000
    64  O2    c     0.045303    0.983347    0.499275    0.000000
    65  O2    c     0.979817    0.057007    0.827378    0.000000
    66  O1    c     0.922339    0.929074    0.163034    0.000000
    67  O2    c     0.313460    0.558790    0.331854    0.000000
    68  O2    c     0.400269    0.747893    0.664108    0.000000
    69  O2    c     0.220835    0.646469    0.995986    0.000000
    70  O2    c     0.643194    0.408384    0.830775    0.000000
    71  O2    c     0.557977    0.223973    0.170086    0.000000
    72  O2    c     0.735921    0.325513    0.499433    0.000000
    73  O3    c     0.566267    0.333411    0.997188    0.000000
    74  O2    c     0.740572    0.405543    0.665611    0.000000
    75  O2    c     0.636385    0.220127    0.335191    0.000000
    76  O2    c     0.394824    0.642591    0.498063    0.000000
    77  O2    c     0.212927    0.565814    0.164666    0.000000
    78  O2    c     0.321711    0.747164    0.830499    0.000000
    79  O2    c     0.116146    0.203613    0.968308    0.000000
    80  O2    c     0.758810    0.891694    0.308173    0.000000
    81  O2    c     0.065764    0.859523    0.637318    0.000000
    82  O2    c     0.849647    0.771014    0.471168    0.000000
    83  O2    c     0.195012    0.074165    0.803228    0.000000
    84  O3    c     0.887147    0.125558    0.139157    0.000000
    85  O2    c     0.188945    0.106246    0.359821    0.000000
    86  O2    c     0.910794    0.794202    0.026453    0.000000
    87  O2    c     0.854850    0.074497    0.692007    0.000000
    88  O2    c     0.770133    0.862749    0.857017    0.000000
    89  O2    c     0.062084    0.196183    0.526382    0.000000
    90  O3    c     0.114629    0.900524    0.193004    0.000000
    91  O3    c     0.903980    0.851134    0.251762    0.000000
    92  O2    c     0.116109    0.053258    0.581576    0.000000
    93  O2    c     0.923225    0.061485    0.910679    0.000000
    94  O2    c     0.055522    0.126597    0.746024    0.000000
    95  O3    c     0.843940    0.936185    0.075426    0.000000
    96  O2    c     0.048566    0.915597    0.416959    0.000000
    97  O2    c     0.893386    0.193533    0.974221    0.000000
    98  O2    c     0.769588    0.678264    0.312396    0.000000
    99  O2    c     0.280725    0.082457    0.644538    0.000000
   100  O2    c     0.072815    0.779164    0.479158    0.000000
   101  O2    c     0.187730    0.289031    0.809650    0.000000
   102  O3    c     0.666471    0.878756    0.146425    0.000000
   103  O2    c     0.179323    0.882965    0.353681    0.000000
   104  O2    c     0.684809    0.786148    0.015575    0.000000
   105  O2    c     0.078589    0.288487    0.684315    0.000000
   106  O2    c     0.777933    0.084776    0.850723    0.000000
   107  O2    c     0.277265    0.189713    0.518872    0.000000
   108  O3    c     0.870485    0.675321    0.184408    0.000000
   109  O2    c     0.294926    0.624846    0.249228    0.000000
   110  O2    c     0.332289    0.662480    0.581187    0.000000
   111  O2    c     0.303417    0.664468    0.913003    0.000000
   112  O2    c     0.658873    0.340293    0.748193    0.000000
   113  O3    c     0.601598    0.296602    0.083565    0.000000
   114  O2    c     0.653976    0.308374    0.416557    0.000000
   115  O2    c     0.362602    0.322489    0.966369    0.000000
   116  O2    c     0.646017    0.024288    0.305215    0.000000
   117  O2    c     0.934299    0.610927    0.635983    0.000000
   118  O2    c     0.600502    0.653671    0.468831    0.000000
   119  O2    c     0.310362    0.941522    0.801510    0.000000
   120  O2    c     0.017472    0.367699    0.130730    0.000000
   121  O2    c     0.303566    0.354199    0.361003    0.000000
   122  O2    c     0.024376    0.658449    0.026781    0.000000
   123  O2    c     0.605963    0.942719    0.693593    0.000000
   124  O2    c     0.653635    0.615447    0.858815    0.000000
   125  O2    c     0.931130    0.313675    0.527715    0.000000
   126  O2    c     0.357151    0.027271    0.197418    0.000000
   127  O3    c     0.750006    0.280696    0.002280    0.000000
   128  O2    c     0.671366    0.448443    0.343160    0.000000
   129  O2    c     0.512550    0.213837    0.675417    0.000000
   130  O2    c     0.204642    0.679604    0.508957    0.000000
   131  O2    c     0.286532    0.520316    0.839919    0.000000
   132  O2    c     0.442056    0.753502    0.177795    0.000000
   133  O2    c     0.277281    0.750732    0.321960    0.000000
   134  O2    c     0.451558    0.687403    0.985427    0.000000
   135  O2    c     0.209241    0.519303    0.653593    0.000000
   136  O2    c     0.678866    0.216506    0.820428    0.000000
   137  O2    c     0.507992    0.289305    0.488279    0.000000
   138  O2    c     0.739384    0.452946    0.149952    0.000000
   139  O3    c     0.766962    0.544367    0.020234    0.000000
   140  O2    c     0.440328    0.231814    0.360697    0.000000
   141  O2    c     0.731144    0.201475    0.692621    0.000000
   142  O2    c     0.190592    0.448505    0.526117    0.000000
   143  O2    c     0.517928    0.739067    0.857701    0.000000
   144  O2    c     0.224364    0.765451    0.195165    0.000000
   145  O2    c     0.508044    0.765014    0.304432    0.000000
   146  O2    c     0.234379    0.454168    0.968479    0.000000
   147  O2    c     0.193451    0.734910    0.636725    0.000000
   148  O2    c     0.447020    0.200446    0.803147    0.000000
   149  O2    c     0.724947    0.520113    0.471309    0.000000
   150  O2    c     0.758685    0.242973    0.132715    0.000000
   151  O2    c     0.216501    0.313644    0.894281    0.000000
   152  O2    c     0.655004    0.891229    0.231920    0.000000
   153  O2    c     0.067648    0.751577    0.563407    0.000000
   154  O2    c     0.742889    0.658702    0.396945    0.000000
   155  O2    c     0.302939    0.075194    0.729190    0.000000
   156  O2    c     0.882146    0.220612    0.060653    0.000000
   157  O2    c     0.297668    0.216022    0.434095    0.000000
   158  O2    c     0.881687    0.662756    0.097858    0.000000
   159  O2    c     0.749329    0.078676    0.766277    0.000000
   160  O2    c     0.661302    0.757284    0.931348    0.000000
   161  O2    c     0.068042    0.308566    0.600087    0.000000
   162  O2    c     0.208154    0.890028    0.268966    0.000000
   163  O2    c     0.571310    0.549682    0.987269    0.000000
   164  O2    c     0.418044    0.009087    0.324541    0.000000
   165  O2    c     0.950799    0.399183    0.655726    0.000000
   166  O2    c     0.386995    0.425809    0.488932    0.000000
   167  O2    c     0.539445    0.958156    0.821223    0.000000
   168  O2    c     0.998220    0.571178    0.149807    0.000000
   169  O2    c     0.531930    0.567882    0.341299    0.000000
   170  O2    c     0.004348    0.430138    0.007669    0.000000
   171  O2    c     0.390740    0.955412    0.673613    0.000000
   172  O2    c     0.426004    0.400866    0.839841    0.000000
   173  O2    c     0.945430    0.541701    0.508152    0.000000
   174  O2    c     0.571565    0.015996    0.177678    0.000000
   175  O2    c     0.564632    0.149504    0.252109    0.000000
   176  O2    c     0.811075    0.401104    0.582359    0.000000
   177  O2    c     0.571691    0.411724    0.913782    0.000000
   178  O2    c     0.396375    0.820137    0.747366    0.000000
   179  O2    c     0.141437    0.573096    0.079713    0.000000
   180  O2    c     0.389965    0.563848    0.414975    0.000000
   181  F     c     0.428719    0.885831    0.249422    0.000000
   182  F     c     0.072891    0.532281    0.580982    0.000000
   183  F     c     0.433966    0.540855    0.912549    0.000000
   184  F     c     0.528692    0.081575    0.747165    0.000000
   185  F     c     0.843700    0.429992    0.071097    0.000000
   186  F     c     0.522441    0.435260    0.414689    0.000000
   187  O2    s     0.912708    0.991081    0.993017    0.000000
   188  O2    s     0.974171    0.904812    0.334640    0.000000
   189  O2    s     0.053151    0.060434    0.663636    0.000000
   190  O2    s     0.049733    0.983410    0.499248    0.000000
   191  O2    s     0.980710    0.061639    0.827769    0.000000
   192  O1    s     0.916637    0.924197    0.163293    0.000000
   193  O2    s     0.325182    0.566559    0.331837    0.000000
   194  O2    s     0.392428    0.751840    0.664073    0.000000
   195  O2    s     0.216104    0.635105    0.996068    0.000000
   196  O2    s     0.631475    0.400770    0.830703    0.000000
   197  O2    s     0.564292    0.219054    0.169336    0.000000
   198  O2    s     0.740302    0.337347    0.499325    0.000000
   199  O3    s     0.570674    0.344459    0.996330    0.000000
   200  O2    s     0.744968    0.398087    0.665551    0.000000
   201  O2    s     0.624518    0.215938    0.334991    0.000000
   202  O2    s     0.387409    0.630766    0.498112    0.000000
   203  O2    s     0.208862    0.573239    0.164601    0.000000
   204  O2    s     0.333492    0.751600    0.830473    0.000000
   205  O2    s     0.112222    0.206887    0.965558    0.000000
   206  O2    s     0.755550    0.885351    0.305261    0.000000
   207  O2    s     0.072476    0.862739    0.634755    0.000000
   208  O2    s     0.853026    0.767419    0.468669    0.000000
   209  O2    s     0.198569    0.080882    0.800544    0.000000
   210  O3    s     0.881946    0.124353    0.135986    0.000000
   211  O2    s     0.192336    0.103151    0.362547    0.000000
   212  O2    s     0.901110    0.788596    0.028183    0.000000
   213  O2    s     0.858372    0.081312    0.694525    0.000000
   214  O2    s     0.766821    0.866236    0.859529    0.000000
   215  O2    s     0.069013    0.199752    0.528898    0.000000
   216  O3    s     0.113073    0.894562    0.195718    0.000000
   217  O3    s     0.902410    0.847576    0.252502    0.000000
   218  O2    s     0.118652    0.054792    0.581549    0.000000
   219  O2    s     0.920671    0.062235    0.910845    0.000000
   220  O2    s     0.055913    0.129158    0.746105    0.000000
   221  O3    s     0.841594    0.931996    0.075214    0.000000
   222  O2    s     0.049260    0.913730    0.416814    0.000000
   223  O2    s     0.899667    0.194431    0.976849    0.000000
   224  O2    s     0.768261    0.684494    0.315153    0.000000
   225  O2    s     0.274338    0.074860    0.647094    0.000000
   226  O2    s     0.065404    0.777955    0.481729    0.000000
   227  O2    s     0.189001    0.282898    0.812208    0.000000
   228  O3    s     0.670975    0.886380    0.148962    0.000000
   229  O2    s     0.180886    0.890463    0.351066    0.000000
   230  O2    s     0.690885    0.785500    0.012933    0.000000
   231  O2    s     0.070958    0.282376    0.681699    0.000000
   232  O2    s     0.776702    0.077428    0.847943    0.000000
   233  O2    s     0.271012    0.190878    0.516250    0.000000
   234  O3    s     0.877311    0.679779    0.181593    0.000000
   235  O2    s     0.300943    0.636613    0.249220    0.000000
   236  O2    s     0.320480    0.656522    0.581187    0.000000
   237  O2    s     0.309577    0.658759    0.913069    0.000000
   238  O2    s     0.652984    0.328639    0.748168    0.000000
   239  O3    s     0.614260    0.302292    0.085490    0.000000
   240  O2    s     0.647916    0.313965    0.416498    0.000000
   241  O2    s     0.364935    0.331970    0.964301    0.000000
   242  O2    s     0.636022    0.017781    0.302964    0.000000
   243  O2    s     0.941072    0.607782    0.633760    0.000000
   244  O2    s     0.597231    0.643595    0.466672    0.000000
   245  O2    s     0.320350    0.948231    0.799302    0.000000
   246  O2    s     0.011552    0.371229    0.129020    0.000000
   247  O2    s     0.313636    0.357704    0.363305    0.000000
   248  O2    s     0.018624    0.649459    0.028450    0.000000
   249  O2    s     0.602696    0.949439    0.695862    0.000000
   250  O2    s     0.643833    0.612215    0.861152    0.000000
   251  O2    s     0.938022    0.323691    0.530010    0.000000
   252  O2    s     0.360578    0.020715    0.199684    0.000000
   253  O3    s     0.760736    0.287407    0.005471    0.000000
   254  O2    s     0.663784    0.447917    0.346344    0.000000
   255  O2    s     0.513134    0.206820    0.678558    0.000000
   256  O2    s     0.197611    0.672066    0.512120    0.000000
   257  O2    s     0.294154    0.521045    0.843146    0.000000
   258  O2    s     0.441095    0.760150    0.180955    0.000000
   259  O2    s     0.284924    0.757611    0.318981    0.000000
   260  O2    s     0.450523    0.679416    0.982305    0.000000
   261  O2    s     0.201996    0.519749    0.650548    0.000000
   262  O2    s     0.671180    0.209491    0.817323    0.000000
   263  O2    s     0.508633    0.296843    0.485196    0.000000
   264  O2    s     0.746342    0.452674    0.147461    0.000000
   265  O3    s     0.776489    0.545829    0.023503    0.000000
   266  O2    s     0.443148    0.239918    0.363313    0.000000
   267  O2    s     0.723080    0.196179    0.695243    0.000000
   268  O2    s     0.185327    0.451177    0.528741    0.000000
   269  O2    s     0.515176    0.730908    0.860302    0.000000
   270  O2    s     0.233273    0.770730    0.197690    0.000000
   271  O2    s     0.505265    0.770151    0.301995    0.000000
   272  O2    s     0.242683    0.457465    0.965842    0.000000
   273  O2    s     0.188143    0.727113    0.634147    0.000000
   274  O2    s     0.449757    0.195396    0.800551    0.000000
   275  O2    s     0.717078    0.517219    0.468682    0.000000
   276  O2    s     0.762930    0.249173    0.130604    0.000000
   277  O2    s     0.226423    0.323335    0.895099    0.000000
   278  O2    s     0.645240    0.890877    0.232811    0.000000
   279  O2    s     0.067921    0.742246    0.564282    0.000000
   280  O2    s     0.733338    0.649073    0.397834    0.000000
   281  O2    s     0.312737    0.075578    0.730045    0.000000
   282  O2    s     0.882266    0.228995    0.061535    0.000000
   283  O2    s     0.307413    0.225369    0.433188    0.000000
   284  O2    s     0.881820    0.654457    0.097378    0.000000
   285  O2    s     0.739841    0.078816    0.765342    0.000000
   286  O2    s     0.651544    0.747844    0.930396    0.000000
   287  O2    s     0.068376    0.318120    0.599160    0.000000
   288  O2    s     0.217915    0.889977    0.268237    0.000000
   289  O2    s     0.567543    0.550491    0.983947    0.000000
   290  O2    s     0.417811    0.004442    0.321264    0.000000
   291  O2    s     0.955510    0.403578    0.652359    0.000000
   292  O2    s     0.391573    0.425493    0.485603    0.000000
   293  O2    s     0.539633    0.962884    0.817884    0.000000
   294  O2    s     0.994826    0.567537    0.147117    0.000000
   295  O2    s     0.532110    0.563227    0.344721    0.000000
   296  O2    s     0.001435    0.430801    0.010283    0.000000
   297  O2    s     0.395566    0.960474    0.677019    0.000000
   298  O2    s     0.425728    0.405632    0.843133    0.000000
   299  O2    s     0.950635    0.542124    0.511551    0.000000
   300  O2    s     0.566105    0.010720    0.180936    0.000000
   301  O2    s     0.558841    0.138440    0.252017    0.000000
   302  O2    s     0.822159    0.406704    0.582309    0.000000
   303  O2    s     0.566276    0.416412    0.913531    0.000000
   304  O2    s     0.401925    0.831023    0.747381    0.000000
   305  O2    s     0.131547    0.567808    0.079811    0.000000
   306  O2    s     0.395522    0.558520    0.414956    0.000000
   307  F     s     0.428434    0.885394    0.249274    0.000000
   308  F     s     0.073298    0.532471    0.580885    0.000000
   309  F     s     0.433384    0.541450    0.912487    0.000000
   310  F     s     0.528924    0.081973    0.747087    0.000000
   311  F     s     0.833069    0.426183    0.068485    0.000000
   312  F     s     0.522642    0.435082    0.414574    0.000000
--------------------------------------------------------------------------------

  Final Cartesian lattice vectors (Angstroms) :

       11.963748   -0.001253   -0.006727
       -6.075781   10.395048    0.003471
       -0.056754   -0.212955   29.514300


  Final cell parameters and derivatives :

--------------------------------------------------------------------------------
       a           11.963750 Angstrom     dE/de1(xx)     0.000575 eV/strain
       b           12.040438 Angstrom     dE/de2(yy)     0.000011 eV/strain
       c           29.515123 Angstrom     dE/de3(zz)     0.001245 eV/strain
       alpha       90.284793 Degrees      dE/de4(yz)     0.000092 eV/strain
       beta        90.142345 Degrees      dE/de5(xz)    -0.000008 eV/strain
       gamma      120.311779 Degrees      dE/de6(xy)     0.000547 eV/strain
--------------------------------------------------------------------------------

  Primitive cell volume =          3670.280228 Angs**3

  Density of cell =      1.743216 g/cm**3

  Non-primitive cell volume =          3670.280228 Angs**3


  Final internal derivatives :

--------------------------------------------------------------------------------
   No.  Atomic          a             b             c           Radius
        Label          (eV)          (eV)          (eV)        (eV/Angs)
--------------------------------------------------------------------------------
      1 Ge    c       0.000000      0.000000      0.000000      0.000000
      2 Si    c       0.000014      0.000128      0.000728      0.000000
      3 Si    c      -0.000016     -0.000025      0.000049      0.000000
      4 Si    c       0.000360      0.000393      0.000291      0.000000
      5 Si    c       0.000340     -0.000127      0.000497      0.000000
      6 Si    c       0.000205     -0.000067      0.000364      0.000000
      7 Si    c       0.000063      0.000463     -0.000329      0.000000
      8 Si    c       0.000583     -0.000226      0.000093      0.000000
      9 Si    c       0.000135      0.000219      0.000050      0.000000
     10 Si    c       0.000008      0.000010     -0.000628      0.000000
     11 Si    c      -0.000104     -0.000295     -0.000225      0.000000
     12 Si    c       0.001376      0.000720      0.007330      0.000000
     13 Si    c      -0.000709     -0.000650     -0.000140      0.000000
     14 Si    c       0.000051     -0.000002     -0.000194      0.000000
     15 Si    c      -0.000050     -0.000284     -0.000219      0.000000
     16 Si    c       0.000256      0.000023      0.000029      0.000000
     17 Si    c       0.000158     -0.000010     -0.000411      0.000000
     18 Si    c       0.001139      0.000092      0.000273      0.000000
     19 Si    c       0.000533      0.000324      0.000915      0.000000
     20 Si    c       0.000937     -0.000246     -0.000329      0.000000
     21 Si    c      -0.000035     -0.000038      0.000517      0.000000
     22 Si    c      -0.000464      0.000202      0.000582      0.000000
     23 Si    c       0.000023     -0.000060      0.000372      0.000000
     24 Si    c       0.000027     -0.000646      0.001843      0.000000
     25 Si    c       0.000101     -0.000009      0.000423      0.000000
     26 Si    c      -0.000077      0.000040      0.000358      0.000000
     27 Si    c       0.000195     -0.000026      0.000671      0.000000
     28 Si    c       0.000461      0.000337      0.000630      0.000000
     29 Si    c       0.000049     -0.000029      0.000449      0.000000
     30 Si    c       0.002238      0.000311     -0.001146      0.000000
     31 Si    c       0.000011     -0.000405     -0.000164      0.000000
     32 Si    c       0.000738      0.000673      0.000037      0.000000
     33 Si    c      -0.000050     -0.000125     -0.000388      0.000000
     34 Si    c      -0.000223     -0.000322     -0.000849      0.000000
     35 Si    c      -0.000190      0.000069     -0.000636      0.000000
     36 Si    c       0.000180      0.000172     -0.000376      0.000000
     37 Si    c       0.000038     -0.000063     -0.000030      0.000000
     38 Si    c      -0.000208      0.000272     -0.000213      0.000000
     39 Si    c       0.000217     -0.000245     -0.000297      0.000000
     40 Si    c       0.000245     -0.000008     -0.000204      0.000000
     41 Si    c       0.000205      0.000166     -0.000226      0.000000
     42 Si    c       0.001346      0.000060     -0.000152      0.000000
     43 Si    c       0.000247     -0.000007      0.000612      0.000000
     44 Si    c       0.000099     -0.000466     -0.002867      0.000000
     45 Si    c      -0.000186     -0.000093      0.000289      0.000000
     46 Si    c       0.000033      0.000146      0.000347      0.000000
     47 Si    c       0.000072      0.000366      0.000372      0.000000
     48 Si    c       0.000564      0.000082      0.000370      0.000000
     49 Si    c       0.000070      0.000169     -0.000126      0.000000
     50 Si    c       0.000589      0.000211      0.000260      0.000000
     51 Si    c       0.000248      0.000036     -0.000069      0.000000
     52 Si    c       0.000060      0.000075     -0.000189      0.000000
     53 Si    c       0.000044      0.000189      0.000103      0.000000
     54 Ge    c      -0.000508      0.000053      0.001288      0.000000
     55 Si    c       0.000000      0.000100      0.000643      0.000000
     56 Si    c      -0.000698     -0.000065     -0.002002      0.000000
     57 Si    c      -0.000120     -0.000061     -0.000084      0.000000
     58 Si    c       0.000096      0.000264     -0.000034      0.000000
     59 Si    c       0.000134     -0.000169      0.000113      0.000000
     60 Ge    c       0.000572     -0.000030      0.000313      0.000000
     61 O2    c      -0.000351      0.000535     -0.001765      0.000000
     62 O2    c       0.000244      0.000516      0.000358      0.000000
     63 O2    c       0.000282      0.000046     -0.000058      0.000000
     64 O2    c      -0.000001     -0.000070      0.000049      0.000000
     65 O2    c       0.000351      0.000029      0.000400      0.000000
     66 O1    c       0.000346     -0.000512      0.001646      0.000000
     67 O2    c       0.000215      0.000191      0.000119      0.000000
     68 O2    c      -0.000152     -0.000034     -0.000056      0.000000
     69 O2    c       0.000862      0.000137      0.000230      0.000000
     70 O2    c       0.000110      0.000287     -0.000223      0.000000
     71 O2    c      -0.000576     -0.000358      0.002954      0.000000
     72 O2    c       0.000220     -0.000083      0.000053      0.000000
     73 O3    c       0.000510     -0.001361      0.002895      0.000000
     74 O2    c       0.000104     -0.000101     -0.000153      0.000000
     75 O2    c       0.000032      0.000139     -0.000027      0.000000
     76 O2    c       0.000292      0.000087      0.000163      0.000000
     77 O2    c       0.000355     -0.000314     -0.000401      0.000000
     78 O2    c       0.000117      0.000154     -0.000225      0.000000
     79 O2    c       0.000032     -0.000179     -0.000037      0.000000
     80 O2    c       0.000122      0.000437     -0.000036      0.000000
     81 O2    c       0.000189     -0.000094     -0.000201      0.000000
     82 O2    c       0.000206     -0.000134     -0.000228      0.000000
     83 O2    c       0.000230      0.000073     -0.000263      0.000000
     84 O3    c       0.000034      0.000178      0.000785      0.000000
     85 O2    c       0.000267      0.000245      0.000489      0.000000
     86 O2    c       0.002387     -0.000466     -0.002491      0.000000
     87 O2    c      -0.000210     -0.000093      0.000131      0.000000
     88 O2    c       0.000051      0.000195      0.000467      0.000000
     89 O2    c       0.000373      0.000292      0.000319      0.000000
     90 O3    c       0.000748      0.000141      0.000515      0.000000
     91 O3    c       0.000422      0.000336      0.001520      0.000000
     92 O2    c      -0.000107     -0.000175      0.000197      0.000000
     93 O2    c      -0.000201      0.000421      0.000042      0.000000
     94 O2    c      -0.000242     -0.000053      0.001287      0.000000
     95 O3    c      -0.000837      0.001477      0.002199      0.000000
     96 O2    c       0.000015     -0.000096      0.000086      0.000000
     97 O2    c       0.000766     -0.000014     -0.000059      0.000000
     98 O2    c       0.000366      0.000050      0.000498      0.000000
     99 O2    c       0.000045     -0.000058      0.000178      0.000000
    100 O2    c       0.000073      0.000070      0.000252      0.000000
    101 O2    c       0.000039      0.000258     -0.000082      0.000000
    102 O3    c      -0.000375      0.000021      0.000584      0.000000
    103 O2    c      -0.000018     -0.000023     -0.000096      0.000000
    104 O2    c      -0.001372     -0.000111     -0.001049      0.000000
    105 O2    c      -0.000112      0.000068     -0.000287      0.000000
    106 O2    c      -0.000058      0.000305     -0.000297      0.000000
    107 O2    c      -0.000005     -0.000285     -0.000221      0.000000
    108 O3    c       0.000431     -0.000799      0.000722      0.000000
    109 O2    c      -0.000030      0.000229      0.000108      0.000000
    110 O2    c      -0.000019      0.000230      0.000187      0.000000
    111 O2    c       0.000636     -0.000041     -0.000097      0.000000
    112 O2    c       0.000067     -0.000014     -0.000283      0.000000
    113 O3    c      -0.001476     -0.001289      0.003320      0.000000
    114 O2    c      -0.000166     -0.000141      0.000113      0.000000
    115 O2    c      -0.000535     -0.000045     -0.000174      0.000000
    116 O2    c      -0.000218      0.000204     -0.000393      0.000000
    117 O2    c       0.000231     -0.000093     -0.000294      0.000000
    118 O2    c       0.000208     -0.000207     -0.000162      0.000000
    119 O2    c       0.000237      0.000118     -0.000332      0.000000
    120 O2    c       0.000946      0.000030      0.000504      0.000000
    121 O2    c       0.000488      0.000319      0.000372      0.000000
    122 O2    c       0.001053      0.000986     -0.000862      0.000000
    123 O2    c      -0.000160     -0.000006      0.000329      0.000000
    124 O2    c      -0.000167      0.000150      0.000304      0.000000
    125 O2    c       0.000362      0.000231      0.000371      0.000000
    126 O2    c       0.000523      0.000208      0.000284      0.000000
    127 O3    c       0.001873     -0.000319     -0.001052      0.000000
    128 O2    c       0.000081      0.000223      0.000650      0.000000
    129 O2    c       0.000111     -0.000158      0.000323      0.000000
    130 O2    c       0.000200      0.000074      0.000629      0.000000
    131 O2    c       0.000225      0.000229      0.000412      0.000000
    132 O2    c       0.000164      0.000179      0.000620      0.000000
    133 O2    c       0.000279      0.000244     -0.000512      0.000000
    134 O2    c       0.000560     -0.000391     -0.000067      0.000000
    135 O2    c      -0.000275     -0.000031     -0.000397      0.000000
    136 O2    c      -0.000027     -0.000061     -0.000604      0.000000
    137 O2    c       0.000048     -0.000199     -0.000398      0.000000
    138 O2    c       0.000323      0.000693      0.001065      0.000000
    139 O3    c      -0.000920     -0.000684     -0.001138      0.000000
    140 O2    c       0.000214      0.000081      0.000501      0.000000
    141 O2    c      -0.000215     -0.000058      0.000282      0.000000
    142 O2    c       0.000108      0.000331      0.000389      0.000000
    143 O2    c       0.000342      0.000020      0.000429      0.000000
    144 O2    c       0.000459      0.000219      0.000670      0.000000
    145 O2    c      -0.000069      0.000230     -0.000168      0.000000
    146 O2    c       0.000364     -0.000178     -0.000117      0.000000
    147 O2    c       0.000183      0.000009     -0.000383      0.000000
    148 O2    c       0.000146      0.000090     -0.000522      0.000000
    149 O2    c      -0.000014     -0.000324     -0.000354      0.000000
    150 O2    c       0.000349     -0.000910      0.000722      0.000000
    151 O2    c       0.000003     -0.000141      0.000488      0.000000
    152 O2    c      -0.000078      0.000307      0.000192      0.000000
    153 O2    c       0.000321      0.000028      0.000270      0.000000
    154 O2    c       0.000236      0.000055      0.000385      0.000000
    155 O2    c       0.000241      0.000071      0.000102      0.000000
    156 O2    c       0.000486     -0.000473     -0.001247      0.000000
    157 O2    c       0.000178     -0.000157      0.000016      0.000000
    158 O2    c       0.000503      0.001276      0.002765      0.000000
    159 O2    c      -0.000236     -0.000043     -0.000149      0.000000
    160 O2    c       0.000232     -0.000112     -0.000233      0.000000
    161 O2    c      -0.000093      0.000091     -0.000042      0.000000
    162 O2    c       0.000391      0.000046     -0.000429      0.000000
    163 O2    c       0.000225     -0.000416     -0.000572      0.000000
    164 O2    c       0.000116      0.000176     -0.000400      0.000000
    165 O2    c      -0.000276     -0.000255     -0.000459      0.000000
    166 O2    c       0.000104     -0.000218     -0.000373      0.000000
    167 O2    c       0.000087     -0.000036     -0.000392      0.000000
    168 O2    c       0.001162     -0.000008      0.000442      0.000000
    169 O2    c       0.000648      0.000244      0.000707      0.000000
    170 O2    c       0.001717     -0.000491     -0.000712      0.000000
    171 O2    c       0.000046     -0.000192      0.000537      0.000000
    172 O2    c      -0.000034      0.000106      0.000366      0.000000
    173 O2    c       0.000213      0.000051      0.000503      0.000000
    174 O2    c       0.000374      0.000255      0.000423      0.000000
    175 O2    c       0.000426      0.000258      0.000217      0.000000
    176 O2    c       0.000068     -0.000201     -0.000035      0.000000
    177 O2    c      -0.000255     -0.000085     -0.001524      0.000000
    178 O2    c      -0.000001     -0.000081      0.000163      0.000000
    179 O2    c       0.001435      0.000152      0.001565      0.000000
    180 O2    c       0.000463      0.000173      0.000233      0.000000
    181 F     c       0.000182      0.000351      0.000106      0.000000
    182 F     c      -0.000118      0.000010      0.000086      0.000000
    183 F     c       0.000272     -0.000154     -0.000028      0.000000
    184 F     c      -0.000090     -0.000130     -0.000070      0.000000
    185 F     c      -0.000396      0.000534     -0.002791      0.000000
    186 F     c       0.000186     -0.000081      0.000097      0.000000
    187 O2    s      -0.000018     -0.000106     -0.002974      0.000000
    188 O2    s       0.000155      0.000858      0.000529      0.000000
    189 O2    s       0.000330      0.000063     -0.000286      0.000000
    190 O2    s      -0.000012     -0.000044      0.000009      0.000000
    191 O2    s       0.000363      0.000125      0.000290      0.000000
    192 O1    s       0.000435     -0.001091      0.001669      0.000000
    193 O2    s       0.000641      0.000165     -0.000012      0.000000
    194 O2    s      -0.000004     -0.000298      0.000179      0.000000
    195 O2    s       0.000520      0.000557     -0.000388      0.000000
    196 O2    s       0.000043      0.000267     -0.000284      0.000000
    197 O2    s       0.000417      0.000131      0.004898      0.000000
    198 O2    s      -0.000009     -0.000152      0.000247      0.000000
    199 O3    s       0.001327     -0.000684      0.000521      0.000000
    200 O2    s      -0.000107      0.000006     -0.000268      0.000000
    201 O2    s      -0.000162      0.000303     -0.000017      0.000000
    202 O2    s       0.000536      0.000099      0.000183      0.000000
    203 O2    s       0.000467     -0.000198      0.000031      0.000000
    204 O2    s       0.000185      0.000189      0.000092      0.000000
    205 O2    s       0.000297     -0.000650     -0.000451      0.000000
    206 O2    s       0.000060      0.000393     -0.000511      0.000000
    207 O2    s       0.000234     -0.000067     -0.000271      0.000000
    208 O2    s       0.000169     -0.000077     -0.000311      0.000000
    209 O2    s       0.000289      0.000101     -0.000517      0.000000
    210 O3    s       0.000712      0.000111      0.002749      0.000000
    211 O2    s       0.000339      0.000196      0.000723      0.000000
    212 O2    s       0.002318     -0.000823     -0.005086      0.000000
    213 O2    s      -0.000202     -0.000294      0.000160      0.000000
    214 O2    s       0.000289      0.000243      0.000559      0.000000
    215 O2    s       0.000498      0.000177      0.000458      0.000000
    216 O3    s       0.000503      0.000342      0.001033      0.000000
    217 O3    s       0.000391      0.000950      0.001199      0.000000
    218 O2    s      -0.000105     -0.000146      0.000091      0.000000
    219 O2    s       0.000028      0.000407     -0.000063      0.000000
    220 O2    s      -0.000305     -0.000056      0.000575      0.000000
    221 O3    s      -0.000732      0.000666      0.002462      0.000000
    222 O2    s      -0.000031      0.000013      0.000045      0.000000
    223 O2    s       0.000912      0.000572     -0.000624      0.000000
    224 O2    s       0.000576      0.000339      0.000546      0.000000
    225 O2    s       0.000007      0.000122      0.000216      0.000000
    226 O2    s       0.000042      0.000198      0.000363      0.000000
    227 O2    s      -0.000088      0.000169     -0.000263      0.000000
    228 O3    s      -0.000106     -0.000483      0.002314      0.000000
    229 O2    s      -0.000092      0.000164     -0.000284      0.000000
    230 O2    s      -0.000891     -0.000641     -0.002453      0.000000
    231 O2    s      -0.000110      0.000020     -0.000616      0.000000
    232 O2    s      -0.000066      0.000338     -0.000882      0.000000
    233 O2    s      -0.000050     -0.000460     -0.000118      0.000000
    234 O3    s       0.001057     -0.000554      0.000862      0.000000
    235 O2    s       0.000461     -0.000122     -0.000090      0.000000
    236 O2    s       0.000356      0.000209     -0.000078      0.000000
    237 O2    s       0.000366      0.000560     -0.000222      0.000000
    238 O2    s      -0.000011      0.000112     -0.000575      0.000000
    239 O3    s       0.000309      0.001332     -0.000704      0.000000
    240 O2    s      -0.000117     -0.000417      0.000211      0.000000
    241 O2    s      -0.000260     -0.000860     -0.000336      0.000000
    242 O2    s      -0.000014      0.000106      0.000084      0.000000
    243 O2    s       0.000094     -0.000053     -0.000549      0.000000
    244 O2    s       0.000229     -0.000111     -0.000158      0.000000
    245 O2    s       0.000284      0.000131     -0.000359      0.000000
    246 O2    s       0.000526      0.000509      0.000748      0.000000
    247 O2    s       0.000735      0.000225      0.000702      0.000000
    248 O2    s       0.000767      0.000358     -0.001908      0.000000
    249 O2    s      -0.000026     -0.000297      0.000585      0.000000
    250 O2    s       0.000283     -0.000065      0.000138      0.000000
    251 O2    s       0.000315      0.000130      0.000421      0.000000
    252 O2    s       0.000361      0.000661      0.000794      0.000000
    253 O3    s       0.001887      0.000228     -0.001018      0.000000
    254 O2    s       0.000247      0.000176      0.000673      0.000000
    255 O2    s      -0.000020      0.000087      0.000601      0.000000
    256 O2    s       0.000341      0.000213      0.000812      0.000000
    257 O2    s      -0.000031      0.000338      0.000155      0.000000
    258 O2    s       0.000460     -0.000090      0.000834      0.000000
    259 O2    s       0.000212      0.000211     -0.000053      0.000000
    260 O2    s       0.000206     -0.000134     -0.000322      0.000000
    261 O2    s      -0.000093     -0.000050     -0.000615      0.000000
    262 O2    s      -0.000170      0.000060     -0.000647      0.000000
    263 O2    s       0.000037     -0.000552     -0.000366      0.000000
    264 O2    s       0.000831     -0.000635      0.002010      0.000000
    265 O3    s      -0.000147     -0.000254     -0.001499      0.000000
    266 O2    s       0.000157     -0.000023      0.000509      0.000000
    267 O2    s      -0.000189     -0.000106      0.000496      0.000000
    268 O2    s       0.000589      0.000277      0.000736      0.000000
    269 O2    s       0.000148      0.000506      0.000162      0.000000
    270 O2    s       0.000350      0.000417      0.000595      0.000000
    271 O2    s       0.000385     -0.000273     -0.000160      0.000000
    272 O2    s       0.000179      0.000069     -0.000234      0.000000
    273 O2    s       0.000137      0.000022     -0.000408      0.000000
    274 O2    s       0.000162      0.000171     -0.000524      0.000000
    275 O2    s       0.000114     -0.000252     -0.000135      0.000000
    276 O2    s       0.000129      0.000111      0.003086      0.000000
    277 O2    s      -0.000007     -0.000371      0.000173      0.000000
    278 O2    s       0.000448     -0.000292     -0.000010      0.000000
    279 O2    s       0.000306      0.000176      0.000012      0.000000
    280 O2    s       0.000337      0.000308      0.000128      0.000000
    281 O2    s       0.000289      0.000302     -0.000137      0.000000
    282 O2    s       0.000695      0.000554     -0.000371      0.000000
    283 O2    s       0.000195     -0.000306      0.000211      0.000000
    284 O2    s       0.001007      0.000867      0.002688      0.000000
    285 O2    s      -0.000188     -0.000281     -0.000212      0.000000
    286 O2    s       0.000742     -0.000255     -0.000321      0.000000
    287 O2    s       0.000142     -0.000042      0.000089      0.000000
    288 O2    s       0.000186      0.000643     -0.000159      0.000000
    289 O2    s       0.000859     -0.000306     -0.000277      0.000000
    290 O2    s      -0.000219      0.000812     -0.000171      0.000000
    291 O2    s      -0.000244     -0.000359     -0.000585      0.000000
    292 O2    s       0.000073     -0.000134     -0.000340      0.000000
    293 O2    s       0.000061     -0.000064     -0.000759      0.000000
    294 O2    s       0.001091     -0.000180      0.000042      0.000000
    295 O2    s       0.000511      0.000669      0.001166      0.000000
    296 O2    s       0.001502     -0.000509     -0.001269      0.000000
    297 O2    s      -0.000028     -0.000194      0.000578      0.000000
    298 O2    s       0.000155     -0.000305     -0.000156      0.000000
    299 O2    s       0.000053      0.000165      0.000610      0.000000
    300 O2    s       0.000322      0.000380      0.000846      0.000000
    301 O2    s       0.000130      0.000777      0.000039      0.000000
    302 O2    s      -0.000217     -0.000190     -0.000097      0.000000
    303 O2    s       0.000400     -0.000950     -0.001101      0.000000
    304 O2    s       0.000105     -0.000274      0.000256      0.000000
    305 O2    s       0.001139      0.000849      0.001388      0.000000
    306 O2    s       0.000804      0.000315      0.000023      0.000000
    307 F     s       0.000242      0.000473      0.000140      0.000000
    308 F     s      -0.000192     -0.000011      0.000177      0.000000
    309 F     s       0.000298     -0.000085     -0.000139      0.000000
    310 F     s      -0.000149     -0.000120      0.000047      0.000000
    311 F     s      -0.000545     -0.000089     -0.003523      0.000000
    312 F     s       0.000166     -0.000062      0.000079      0.000000
--------------------------------------------------------------------------------
  Maximum abs         0.002387      0.001477      0.007330      0.000000
--------------------------------------------------------------------------------


  Time to end of optimisation =      54.5608 seconds


  Peak dynamic memory used =      19.13 MB 


  Timing analysis for GULP :

--------------------------------------------------------------------------------
  Task / Subroutine                                          Time (Seconds)
--------------------------------------------------------------------------------
  Calculation of reciprocal space energy and derivatives          1.4319
  Calculation of real space energy and derivatives               47.3898
  Calculation of three-body energy and derivatives                4.8990
  Calculation of matrix inversion                                 0.7440
  Global summation overhead                                       0.0001
--------------------------------------------------------------------------------
  Total CPU time                                                 54.5609
--------------------------------------------------------------------------------


  Dump file written as out.res                                                 
  CIF file written as out.cif                                                 


  Job Finished at 23:57.42 12th November   2016                               

