********************************************************************************
*                       GENERAL UTILITY LATTICE PROGRAM                        *
*                                 Julian Gale                                  *
*                      Nanochemistry Research Institute                        *
*                           Department of Chemistry                            *
*                    Curtin University, Western Australia                      *
********************************************************************************
* Version = 4.2.0 * Last modified =  20th January 2014                         *
********************************************************************************
*  optimise     - perform optimisation run                                     *
*  conp         - constant pressure calculation                                *
*  qok          - running with non charge neutral cell is OK                   *
********************************************************************************

  Job Started  at 06:48.21 16th November   2016                               

  Number of CPUs =     1


  Total number of configurations input =   1

********************************************************************************
*  Input for Configuration =   1                                               *
********************************************************************************

  Formula = Si57Ge3O120F6                                               

  Number of irreducible atoms/shells =     312


  Total number atoms/shells =     312

  Dimensionality = 3               :  Bulk   


  Charge on solid   =  -6.000000 =>neutralising background added


  Cartesian lattice vectors (Angstroms) :

       11.970591    0.000000    0.000000
       -5.970078   10.341747    0.000000
        0.042706   -0.109735   29.533269

  Cell parameters (Angstroms/Degrees):

  a =      11.9706    alpha =  90.2258
  b =      11.9413    beta  =  89.9172
  c =      29.5335    gamma = 119.9970

  Initial cell volume =        3656.125019 Angs**3

  Temperature of configuration =  0.000     K 

  Pressure of configuration =         0.000 GPa 

  Fractional coordinates of asymmetric unit :

--------------------------------------------------------------------------------
   No.  Atomic       x           y          z         Charge      Occupancy
        Label      (Frac)      (Frac)     (Frac)        (e)         (Frac)  
--------------------------------------------------------------------------------
      1 Si    c    0.699600    0.375700    0.033890     4.00000    1.000000    
      2 Si    c    0.626139 *  0.325139 *  0.365363 *   4.00000    1.000000    
      3 Si    c    0.673513 *  0.294135 *  0.696912 *   4.00000    1.000000    
      4 Si    c    0.289663 *  0.618302 *  0.532829 *   4.00000    1.000000    
      5 Si    c    0.377268 *  0.678281 *  0.864277 *   4.00000    1.000000    
      6 Si    c    0.327361 *  0.704231 *  0.198055 *   4.00000    1.000000    
      7 Si    c    0.380871 *  0.703132 *  0.298408 *   4.00000    1.000000    
      8 Si    c    0.323560 *  0.622940 *  0.965989 *   4.00000    1.000000    
      9 Si    c    0.293779 *  0.674280 *  0.632906 *   4.00000    1.000000    
     10 Si    c    0.624690 *  0.304707 *  0.797854 *   4.00000    1.000000    
     11 Si    c    0.680105 *  0.375189 *  0.467827 *   4.00000    1.000000    
     12 Si    c    0.706494 *  0.325601 *  0.134796 *   4.00000    1.000000    
     13 Ge    c    0.533573 *  0.416632 *  0.965240 *   4.00000    1.000000    
     14 Si    c    0.583366 *  0.111813 *  0.300311 *   4.00000    1.000000    
     15 Si    c    0.884608 *  0.465506 *  0.632850 *   4.00000    1.000000    
     16 Si    c    0.467514 *  0.588894 *  0.467655 *   4.00000    1.000000    
     17 Si    c    0.418722 *  0.891315 *  0.799456 *   4.00000    1.000000    
     18 Si    c    0.117038 *  0.533981 *  0.132800 *   4.00000    1.000000    
     19 Si    c    0.419322 *  0.533376 *  0.364160 *   4.00000    1.000000    
     20 Si    c    0.111766 *  0.582389 *  0.031724 *   4.00000    1.000000    
     21 Si    c    0.466169 *  0.884173 *  0.698382 *   4.00000    1.000000    
     22 Ge    c    0.577126 *  0.470099 *  0.865934 *   4.00000    1.000000    
     23 Si    c    0.884532 *  0.408633 *  0.531845 *   4.00000    1.000000    
     24 Si    c    0.533676 *  0.114660 *  0.199066 *   4.00000    1.000000    
     25 Si    c    0.297006 *  0.394710 *  0.846972 *   4.00000    1.000000    
     26 Si    c    0.606099 *  0.905643 *  0.183834 *   4.00000    1.000000    
     27 Si    c    0.087547 *  0.692607 *  0.516554 *   4.00000    1.000000    
     28 Si    c    0.704838 *  0.606444 *  0.347691 *   4.00000    1.000000    
     29 Si    c    0.394490 *  0.093381 *  0.683822 *   4.00000    1.000000    
     30 Si    c    0.903326 *  0.301068 *  0.018551 *   4.00000    1.000000    
     31 Si    c    0.398449 *  0.303436 *  0.481861 *   4.00000    1.000000    
     32 Si    c    0.907827 *  0.605052 *  0.147556 *   4.00000    1.000000    
     33 Si    c    0.699013 *  0.100086 *  0.812458 *   4.00000    1.000000    
     34 Si    c    0.606511 *  0.702596 *  0.981783 *   4.00000    1.000000    
     35 Si    c    0.094324 *  0.395330 *  0.647826 *   4.00000    1.000000    
     36 Si    c    0.302239 *  0.903565 *  0.313761 *   4.00000    1.000000    
     37 Si    c    0.251114 *  0.334807 *  0.949210 *   4.00000    1.000000    
     38 Si    c    0.662322 *  0.911487 *  0.284443 *   4.00000    1.000000    
     39 Si    c    0.083942 *  0.744807 *  0.617341 *   4.00000    1.000000    
     40 Ge    c    0.732601 *  0.642951 *  0.447486 *   4.00000    1.000000    
     41 Si    c    0.341793 *  0.093315 *  0.784631 *   4.00000    1.000000    
     42 Si    c    0.915573 *  0.254265 *  0.118852 *   4.00000    1.000000    
     43 Si    c    0.339321 *  0.251335 *  0.380004 *   4.00000    1.000000    
     44 Si    c    0.909527 *  0.659294 *  0.046867 *   4.00000    1.000000    
     45 Si    c    0.745683 *  0.085071 *  0.712205 *   4.00000    1.000000    
     46 Si    c    0.665203 *  0.751651 *  0.879678 *   4.00000    1.000000    
     47 Si    c    0.087891 *  0.335147 *  0.547624 *   4.00000    1.000000    
     48 Si    c    0.254517 *  0.913227 *  0.213240 *   4.00000    1.000000    
     49 Si    c    0.968513 *  0.122061 *  0.965691 *   4.00000    1.000000    
     50 Si    c    0.881328 *  0.851478 *  0.297986 *   4.00000    1.000000    
     51 Si    c    0.147581 *  0.025350 *  0.632132 *   4.00000    1.000000    
     52 Si    c    0.018184 *  0.871444 *  0.465218 *   4.00000    1.000000    
     53 Si    c    0.117031 *  0.148076 *  0.798089 *   4.00000    1.000000    
     54 Si    c    0.854114 *  0.974747 *  0.132804 *   4.00000    1.000000    
     55 Si    c    0.120783 *  0.968562 *  0.365192 *   4.00000    1.000000    
     56 Si    c    0.852556 *  0.882658 *  0.031640 *   4.00000    1.000000    
     57 Si    c    0.024980 *  0.146308 *  0.697356 *   4.00000    1.000000    
     58 Si    c    0.878072 *  0.034774 *  0.864086 *   4.00000    1.000000    
     59 Si    c    0.149389 *  0.116855 *  0.530942 *   4.00000    1.000000    
     60 Si    c    0.976342 *  0.854178 *  0.197721 *   4.00000    1.000000    
     61 O2    c    0.933650 *  0.000521 *  0.997712 *   0.87073    1.000000    
     62 O2    c    0.001218 *  0.928149 *  0.331641 *   0.87073    1.000000    
     63 O2    c    0.066788 *  0.068497 *  0.663683 *   0.87073    1.000000    
     64 O2    c    0.072086 *  0.997730 *  0.497561 *   0.87073    1.000000    
     65 O2    c    0.998472 *  0.068216 *  0.831855 *   0.87073    1.000000    
     66 O2    c    0.934826 *  0.932319 *  0.164375 *   0.87073    1.000000    
     67 O2    c    0.342521 *  0.580121 *  0.331191 *   0.87073    1.000000    
     68 O2    c    0.416072 *  0.758073 *  0.666024 *   0.87073    1.000000    
     69 O2    c    0.236821 *  0.657686 *  0.998632 *   0.87073    1.000000    
     70 O3    c    0.663680 *  0.427859 *  0.827599 *   1.33043    1.000000    
     71 O2    c    0.583902 *  0.241683 *  0.167628 *   0.87073    1.000000    
     72 O2    c    0.758272 *  0.326627 *  0.499827 *   0.87073    1.000000    
     73 O3    c    0.575002 *  0.333928 *  0.004659 *   1.33043    1.000000    
     74 O2    c    0.757814 *  0.416799 *  0.664243 *   0.87073    1.000000    
     75 O2    c    0.660342 *  0.236967 *  0.333099 *   0.87073    1.000000    
     76 O2    c    0.409531 *  0.658986 *  0.498663 *   0.87073    1.000000    
     77 O2    c    0.243092 *  0.582131 *  0.164809 *   0.87073    1.000000    
     78 O2    c    0.342488 *  0.766147 *  0.832617 *   0.87073    1.000000    
     79 O2    c    0.121385 *  0.216003 *  0.970115 *   0.87073    1.000000    
     80 O2    c    0.789507 *  0.913938 *  0.304475 *   0.87073    1.000000    
     81 O2    c    0.083303 *  0.870948 *  0.637704 *   0.87073    1.000000    
     82 O3    c    0.869013 *  0.787462 *  0.469398 *   1.33043    1.000000    
     83 O2    c    0.215129 *  0.093357 *  0.804727 *   0.87073    1.000000    
     84 O2    c    0.916728 *  0.128837 *  0.139239 *   0.87073    1.000000    
     85 O2    c    0.215007 *  0.124217 *  0.360031 *   0.87073    1.000000    
     86 O2    c    0.909523 *  0.785708 *  0.026705 *   0.87073    1.000000    
     87 O2    c    0.870931 *  0.083390 *  0.691879 *   0.87073    1.000000    
     88 O2    c    0.783360 *  0.882050 *  0.859305 *   0.87073    1.000000    
     89 O2    c    0.087504 *  0.209291 *  0.526811 *   0.87073    1.000000    
     90 O2    c    0.130363 *  0.915639 *  0.192489 *   0.87073    1.000000    
     91 O2    c    0.938154 *  0.872446 *  0.247820 *   0.87073    1.000000    
     92 O2    c    0.138429 *  0.063904 *  0.581209 *   0.87073    1.000000    
     93 O2    c    0.928484 *  0.072854 *  0.914943 *   0.87073    1.000000    
     94 O2    c    0.063384 *  0.128199 *  0.747543 *   0.87073    1.000000    
     95 O2    c    0.868404 *  0.938166 *  0.081898 *   0.87073    1.000000    
     96 O2    c    0.069632 *  0.929919 *  0.415353 *   0.87073    1.000000    
     97 O2    c    0.896968 *  0.200593 *  0.980078 *   0.87073    1.000000    
     98 O2    c    0.795243 *  0.697384 *  0.306245 *   0.87073    1.000000    
     99 O2    c    0.298096 *  0.094820 *  0.645546 *   0.87073    1.000000    
    100 O2    c    0.086314 *  0.786527 *  0.477634 *   0.87073    1.000000    
    101 O2    c    0.190227 *  0.300754 *  0.809939 *   0.87073    1.000000    
    102 O2    c    0.702545 *  0.904122 *  0.145320 *   0.87073    1.000000    
    103 O2    c    0.203799 *  0.900284 *  0.352171 *   0.87073    1.000000    
    104 O2    c    0.700790 *  0.807034 *  0.019442 *   0.87073    1.000000    
    105 O2    c    0.095131 *  0.299067 *  0.686577 *   0.87073    1.000000    
    106 O2    c    0.800122 *  0.107381 *  0.850836 *   0.87073    1.000000    
    107 O2    c    0.301753 *  0.203142 *  0.519141 *   0.87073    1.000000    
    108 O2    c    0.906385 *  0.701975 *  0.186014 *   0.87073    1.000000    
    109 O2    c    0.324630 *  0.645444 *  0.248141 *   0.87073    1.000000    
    110 O2    c    0.351470 *  0.675428 *  0.582687 *   0.87073    1.000000    
    111 O2    c    0.325114 *  0.676350 *  0.915388 *   0.87073    1.000000    
    112 O2    c    0.676325 *  0.353171 *  0.746516 *   0.87073    1.000000    
    113 O2    c    0.649088 *  0.323470 *  0.085069 *   0.87073    1.000000    
    114 O2    c    0.679112 *  0.324941 *  0.415890 *   0.87073    1.000000    
    115 O3    c    0.364950 *  0.317607 *  0.968541 *   1.33043    1.000000    
    116 O2    c    0.670357 *  0.042744 *  0.303613 *   0.87073    1.000000    
    117 O2    c    0.953009 *  0.621934 *  0.636205 *   0.87073    1.000000    
    118 O3    c    0.619315 *  0.679045 *  0.472164 *   1.33043    1.000000    
    119 O2    c    0.331426 *  0.960272 *  0.803312 *   0.87073    1.000000    
    120 O2    c    0.048894 *  0.377545 *  0.136244 *   0.87073    1.000000    
    121 O2    c    0.334011 *  0.376438 *  0.362259 *   0.87073    1.000000    
    122 O2    c    0.042290 *  0.669326 *  0.028174 *   0.87073    1.000000    
    123 O2    c    0.622261 *  0.951394 *  0.694878 *   0.87073    1.000000    
    124 O3    c    0.683413 *  0.638433 *  0.860259 *   1.33043    1.000000    
    125 O2    c    0.954307 *  0.322166 *  0.529600 *   0.87073    1.000000    
    126 O2    c    0.377667 *  0.046427 *  0.195841 *   0.87073    1.000000    
    127 O2    c    0.770756 *  0.302686 *  0.011622 *   0.87073    1.000000    
    128 O2    c    0.700305 *  0.468062 *  0.343019 *   0.87073    1.000000    
    129 O2    c    0.529531 *  0.225355 *  0.675206 *   0.87073    1.000000    
    130 O2    c    0.222712 *  0.694119 *  0.510525 *   0.87073    1.000000    
    131 O2    c    0.301177 *  0.532702 *  0.844282 *   0.87073    1.000000    
    132 O2    c    0.471300 *  0.772015 *  0.176279 *   0.87073    1.000000    
    133 O2    c    0.305250 *  0.770727 *  0.320973 *   0.87073    1.000000    
    134 O2    c    0.468794 *  0.697690 *  0.985878 *   0.87073    1.000000    
    135 O2    c    0.226678 *  0.531068 *  0.655613 *   0.87073    1.000000    
    136 O2    c    0.698009 *  0.233146 *  0.819562 *   0.87073    1.000000    
    137 O2    c    0.533035 *  0.304158 *  0.487288 *   0.87073    1.000000    
    138 O2    c    0.775874 *  0.470183 *  0.156468 *   0.87073    1.000000    
    139 O2    c    0.782968 *  0.533124 *  0.027680 *   0.87073    1.000000    
    140 O2    c    0.471092 *  0.260553 *  0.362868 *   0.87073    1.000000    
    141 O2    c    0.745732 *  0.210169 *  0.691974 *   0.87073    1.000000    
    142 O2    c    0.212840 *  0.461498 *  0.527830 *   0.87073    1.000000    
    143 O2    c    0.530898 *  0.738858 *  0.862408 *   0.87073    1.000000    
    144 O2    c    0.254206 *  0.787173 *  0.193346 *   0.87073    1.000000    
    145 O2    c    0.537016 *  0.783736 *  0.303390 *   0.87073    1.000000    
    146 O2    c    0.263923 *  0.469014 *  0.967147 *   0.87073    1.000000    
    147 O2    c    0.211820 *  0.748763 *  0.636749 *   0.87073    1.000000    
    148 O2    c    0.467419 *  0.219406 *  0.803948 *   0.87073    1.000000    
    149 O3    c    0.760609 *  0.528209 *  0.474986 *   1.33043    1.000000    
    150 O2    c    0.790143 *  0.253171 *  0.139322 *   0.87073    1.000000    
    151 O2    c    0.235919 *  0.322160 *  0.894799 *   0.87073    1.000000    
    152 O2    c    0.680183 *  0.910424 *  0.230200 *   0.87073    1.000000    
    153 O2    c    0.081741 *  0.761645 *  0.563188 *   0.87073    1.000000    
    154 O3    c    0.783405 *  0.689101 *  0.390553 *   1.33043    1.000000    
    155 O2    c    0.322922 *  0.093050 *  0.730428 *   0.87073    1.000000    
    156 O2    c    0.910413 *  0.232145 *  0.064734 *   0.87073    1.000000    
    157 O2    c    0.329236 *  0.241260 *  0.434111 *   0.87073    1.000000    
    158 O2    c    0.908954 *  0.677577 *  0.101140 *   0.87073    1.000000    
    159 O2    c    0.767758 *  0.091147 *  0.766353 *   0.87073    1.000000    
    160 O2    c    0.677702 *  0.766098 *  0.934360 *   0.87073    1.000000    
    161 O2    c    0.091587 *  0.319306 *  0.601868 *   0.87073    1.000000    
    162 O2    c    0.232776 *  0.908461 *  0.267383 *   0.87073    1.000000    
    163 O3    c    0.593111 *  0.567014 *  0.992590 *   1.33043    1.000000    
    164 O2    c    0.441155 *  0.030492 *  0.322930 *   0.87073    1.000000    
    165 O2    c    0.967976 *  0.408051 *  0.656254 *   0.87073    1.000000    
    166 O2    c    0.416714 *  0.445003 *  0.489035 *   0.87073    1.000000    
    167 O2    c    0.560761 *  0.972365 *  0.822487 *   0.87073    1.000000    
    168 O2    c    0.034690 *  0.593247 *  0.155981 *   0.87073    1.000000    
    169 O2    c    0.560710 *  0.585804 *  0.342118 *   0.87073    1.000000    
    170 O2    c    0.030655 *  0.439771 *  0.008933 *   0.87073    1.000000    
    171 O2    c    0.406959 *  0.966593 *  0.675525 *   0.87073    1.000000    
    172 O3    c    0.430963 *  0.406701 *  0.834980 *   1.33043    1.000000    
    173 O2    c    0.967355 *  0.549046 *  0.508351 *   0.87073    1.000000    
    174 O2    c    0.590896 *  0.030751 *  0.175551 *   0.87073    1.000000    
    175 O2    c    0.586042 *  0.167093 *  0.249932 *   0.87073    1.000000    
    176 O2    c    0.831757 *  0.411294 *  0.582265 *   0.87073    1.000000    
    177 O1    c    0.597942 *  0.401414 *  0.915279 *   1.73396    1.000000    
    178 O2    c    0.414139 *  0.831778 *  0.749393 *   0.87073    1.000000    
    179 O2    c    0.169715 *  0.586661 *  0.081915 *   0.87073    1.000000    
    180 O2    c    0.419402 *  0.583867 *  0.415137 *   0.87073    1.000000    
    181 F     c    0.454671 *  0.905367 *  0.249516 *   0.56000    1.000000    
    182 F     c    0.094597 *  0.543362 *  0.583003 *   0.56000    1.000000    
    183 F     c    0.479898 *  0.521578 *  0.912291 *   0.56000    1.000000    
    184 F     c    0.544527 *  0.090253 *  0.748764 *   0.56000    1.000000    
    185 F     c    0.910800 *  0.455825 *  0.082840 *   0.56000    1.000000    
    186 F     c    0.585204 *  0.491361 *  0.420589 *   0.56000    1.000000    
    187 O2    s    0.928490 *  0.000791 *  0.997959 *  -2.87073    1.000000    
    188 O2    s    0.001164 *  0.924144 *  0.331610 *  -2.87073    1.000000    
    189 O2    s    0.071149 *  0.072397 *  0.663929 *  -2.87073    1.000000    
    190 O2    s    0.075363 *  0.998210 *  0.498011 *  -2.87073    1.000000    
    191 O2    s    0.998261 *  0.073381 *  0.831694 *  -2.87073    1.000000    
    192 O2    s    0.930400 *  0.928337 *  0.164558 *  -2.87073    1.000000    
    193 O2    s    0.354402 *  0.587825 *  0.331250 *  -2.87073    1.000000    
    194 O2    s    0.408651 *  0.762479 *  0.665954 *  -2.87073    1.000000    
    195 O2    s    0.233507 *  0.646448 *  0.998473 *  -2.87073    1.000000    
    196 O3    s    0.653317 *  0.417470 *  0.827078 *  -3.33043    1.000000    
    197 O2    s    0.591332 *  0.237141 *  0.167508 *  -2.87073    1.000000    
    198 O2    s    0.762989 *  0.339653 *  0.499798 *  -2.87073    1.000000    
    199 O3    s    0.585208 *  0.344448 *  0.004877 *  -3.33043    1.000000    
    200 O2    s    0.762267 *  0.409138 *  0.664362 *  -2.87073    1.000000    
    201 O2    s    0.648806 *  0.233447 *  0.333152 *  -2.87073    1.000000    
    202 O2    s    0.403146 *  0.647192 *  0.498924 *  -2.87073    1.000000    
    203 O2    s    0.238880 *  0.589837 *  0.164963 *  -2.87073    1.000000    
    204 O2    s    0.353777 *  0.769136 *  0.832738 *  -2.87073    1.000000    
    205 O2    s    0.118303 *  0.218284 *  0.967425 *  -2.87073    1.000000    
    206 O2    s    0.785900 *  0.907134 *  0.301732 *  -2.87073    1.000000    
    207 O2    s    0.090220 *  0.874387 *  0.635033 *  -2.87073    1.000000    
    208 O3    s    0.876991 *  0.787508 *  0.467512 *  -3.33043    1.000000    
    209 O2    s    0.217683 *  0.099134 *  0.802012 *  -2.87073    1.000000    
    210 O2    s    0.909936 *  0.125383 *  0.136470 *  -2.87073    1.000000    
    211 O2    s    0.218733 *  0.122026 *  0.362655 *  -2.87073    1.000000    
    212 O2    s    0.903505 *  0.782928 *  0.029271 *  -2.87073    1.000000    
    213 O2    s    0.874375 *  0.090243 *  0.694533 *  -2.87073    1.000000    
    214 O2    s    0.781113 *  0.884987 *  0.862026 *  -2.87073    1.000000    
    215 O2    s    0.094174 *  0.212584 *  0.529403 *  -2.87073    1.000000    
    216 O2    s    0.126924 *  0.908886 *  0.195166 *  -2.87073    1.000000    
    217 O2    s    0.936116 *  0.868029 *  0.247774 *  -2.87073    1.000000    
    218 O2    s    0.140716 *  0.065528 *  0.581302 *  -2.87073    1.000000    
    219 O2    s    0.927388 *  0.074184 *  0.915017 *  -2.87073    1.000000    
    220 O2    s    0.065149 *  0.132440 *  0.747665 *  -2.87073    1.000000    
    221 O2    s    0.865006 *  0.936008 *  0.081950 *  -2.87073    1.000000    
    222 O2    s    0.070230 *  0.928318 *  0.414710 *  -2.87073    1.000000    
    223 O2    s    0.905301 *  0.202463 *  0.982489 *  -2.87073    1.000000    
    224 O2    s    0.795317 *  0.704500 *  0.309419 *  -2.87073    1.000000    
    225 O2    s    0.291918 *  0.087237 *  0.648058 *  -2.87073    1.000000    
    226 O2    s    0.079624 *  0.785132 *  0.480486 *  -2.87073    1.000000    
    227 O2    s    0.193312 *  0.294268 *  0.812441 *  -2.87073    1.000000    
    228 O2    s    0.708704 *  0.911725 *  0.147924 *  -2.87073    1.000000    
    229 O2    s    0.205235 *  0.907864 *  0.349555 *  -2.87073    1.000000    
    230 O2    s    0.707291 *  0.804499 *  0.016931 *  -2.87073    1.000000    
    231 O2    s    0.087625 *  0.292627 *  0.683807 *  -2.87073    1.000000    
    232 O2    s    0.798365 *  0.098835 *  0.848408 *  -2.87073    1.000000    
    233 O2    s    0.296270 *  0.204874 *  0.516412 *  -2.87073    1.000000    
    234 O2    s    0.914025 *  0.708321 *  0.183326 *  -2.87073    1.000000    
    235 O2    s    0.330644 *  0.657290 *  0.248185 *  -2.87073    1.000000    
    236 O2    s    0.339344 *  0.669507 *  0.582761 *  -2.87073    1.000000    
    237 O2    s    0.330227 *  0.671061 *  0.915420 *  -2.87073    1.000000    
    238 O2    s    0.670759 *  0.341902 *  0.746433 *  -2.87073    1.000000    
    239 O2    s    0.660345 *  0.328998 *  0.085201 *  -2.87073    1.000000    
    240 O2    s    0.673716 *  0.329946 *  0.415711 *  -2.87073    1.000000    
    241 O3    s    0.365548 *  0.326729 *  0.966244 *  -3.33043    1.000000    
    242 O2    s    0.660452 *  0.036162 *  0.301249 *  -2.87073    1.000000    
    243 O2    s    0.959708 *  0.618681 *  0.633867 *  -2.87073    1.000000    
    244 O3    s    0.611836 *  0.667091 *  0.469883 *  -3.33043    1.000000    
    245 O2    s    0.341476 *  0.966757 *  0.801002 *  -2.87073    1.000000    
    246 O2    s    0.041899 *  0.380710 *  0.134043 *  -2.87073    1.000000    
    247 O2    s    0.343280 *  0.379243 *  0.364328 *  -2.87073    1.000000    
    248 O2    s    0.035846 *  0.659350 *  0.030460 *  -2.87073    1.000000    
    249 O2    s    0.619147 *  0.958474 *  0.697066 *  -2.87073    1.000000    
    250 O3    s    0.673802 *  0.638313 *  0.862775 *  -3.33043    1.000000    
    251 O2    s    0.961150 *  0.332554 *  0.531751 *  -2.87073    1.000000    
    252 O2    s    0.380895 *  0.039516 *  0.198013 *  -2.87073    1.000000    
    253 O2    s    0.777940 *  0.309965 *  0.014669 *  -2.87073    1.000000    
    254 O2    s    0.693070 *  0.467229 *  0.345848 *  -2.87073    1.000000    
    255 O2    s    0.530083 *  0.218473 *  0.678380 *  -2.87073    1.000000    
    256 O2    s    0.215406 *  0.686026 *  0.513533 *  -2.87073    1.000000    
    257 O2    s    0.308755 *  0.533920 *  0.846690 *  -2.87073    1.000000    
    258 O2    s    0.470705 *  0.779117 *  0.179346 *  -2.87073    1.000000    
    259 O2    s    0.312773 *  0.777758 *  0.317841 *  -2.87073    1.000000    
    260 O2    s    0.467662 *  0.690361 *  0.983348 *  -2.87073    1.000000    
    261 O2    s    0.219511 *  0.531311 *  0.652443 *  -2.87073    1.000000    
    262 O2    s    0.690738 *  0.225766 *  0.816581 *  -2.87073    1.000000    
    263 O2    s    0.533624 *  0.311307 *  0.484708 *  -2.87073    1.000000    
    264 O2    s    0.782696 *  0.469535 *  0.153257 *  -2.87073    1.000000    
    265 O2    s    0.788464 *  0.531189 *  0.030299 *  -2.87073    1.000000    
    266 O2    s    0.473070 *  0.266469 *  0.364991 *  -2.87073    1.000000    
    267 O2    s    0.738104 *  0.205187 *  0.694657 *  -2.87073    1.000000    
    268 O2    s    0.207171 *  0.463986 *  0.530462 *  -2.87073    1.000000    
    269 O2    s    0.528132 *  0.733426 *  0.864425 *  -2.87073    1.000000    
    270 O2    s    0.262016 *  0.792306 *  0.195976 *  -2.87073    1.000000    
    271 O2    s    0.534296 *  0.789210 *  0.300862 *  -2.87073    1.000000    
    272 O2    s    0.269228 *  0.471780 *  0.965134 *  -2.87073    1.000000    
    273 O2    s    0.206453 *  0.740432 *  0.634266 *  -2.87073    1.000000    
    274 O2    s    0.469062 *  0.213830 *  0.801306 *  -2.87073    1.000000    
    275 O3    s    0.750223 *  0.521227 *  0.472256 *  -3.33043    1.000000    
    276 O2    s    0.795115 *  0.260965 *  0.136661 *  -2.87073    1.000000    
    277 O2    s    0.243752 *  0.330818 *  0.895714 *  -2.87073    1.000000    
    278 O2    s    0.670504 *  0.910046 *  0.231048 *  -2.87073    1.000000    
    279 O2    s    0.082551 *  0.752657 *  0.564099 *  -2.87073    1.000000    
    280 O3    s    0.771797 *  0.677386 *  0.390147 *  -3.33043    1.000000    
    281 O2    s    0.332406 *  0.093100 *  0.731271 *  -2.87073    1.000000    
    282 O2    s    0.910234 *  0.241706 *  0.065654 *  -2.87073    1.000000    
    283 O2    s    0.337655 *  0.248956 *  0.433210 *  -2.87073    1.000000    
    284 O2    s    0.908915 *  0.668088 *  0.100252 *  -2.87073    1.000000    
    285 O2    s    0.758259 *  0.091409 *  0.765445 *  -2.87073    1.000000    
    286 O2    s    0.669005 *  0.757942 *  0.933660 *  -2.87073    1.000000    
    287 O2    s    0.091477 *  0.328874 *  0.600931 *  -2.87073    1.000000    
    288 O2    s    0.242351 *  0.908457 *  0.266504 *  -2.87073    1.000000    
    289 O3    s    0.589933 *  0.570233 *  0.989364 *  -3.33043    1.000000    
    290 O2    s    0.441190 *  0.025351 *  0.319598 *  -2.87073    1.000000    
    291 O2    s    0.973040 *  0.412842 *  0.652907 *  -2.87073    1.000000    
    292 O2    s    0.419943 *  0.443760 *  0.486116 *  -2.87073    1.000000    
    293 O2    s    0.560528 *  0.977433 *  0.819070 *  -2.87073    1.000000    
    294 O2    s    0.029517 *  0.588156 *  0.152641 *  -2.87073    1.000000    
    295 O2    s    0.560751 *  0.582282 *  0.345043 *  -2.87073    1.000000    
    296 O2    s    0.025627 *  0.440042 *  0.012315 *  -2.87073    1.000000    
    297 O2    s    0.411979 *  0.971832 *  0.678825 *  -2.87073    1.000000    
    298 O3    s    0.427113 *  0.410163 *  0.838519 *  -3.33043    1.000000    
    299 O2    s    0.971757 *  0.549643 *  0.511721 *  -2.87073    1.000000    
    300 O2    s    0.586406 *  0.025863 *  0.178893 *  -2.87073    1.000000    
    301 O2    s    0.580333 *  0.155861 *  0.249920 *  -2.87073    1.000000    
    302 O2    s    0.842806 *  0.416672 *  0.582268 *  -2.87073    1.000000    
    303 O1    s    0.591513 *  0.407323 *  0.915686 *  -3.73396    1.000000    
    304 O2    s    0.419911 *  0.843279 *  0.749377 *  -2.87073    1.000000    
    305 O2    s    0.158330 *  0.580849 *  0.081928 *  -2.87073    1.000000    
    306 O2    s    0.424112 *  0.579036 *  0.414867 *  -2.87073    1.000000    
    307 F     s    0.454502 *  0.905024 *  0.249583 *  -1.56000    1.000000    
    308 F     s    0.095301 *  0.543509 *  0.583040 *  -1.56000    1.000000    
    309 F     s    0.484333 *  0.517853 *  0.911537 *  -1.56000    1.000000    
    310 F     s    0.544413 *  0.089880 *  0.748809 *  -1.56000    1.000000    
    311 F     s    0.911004 *  0.455915 *  0.082824 *  -1.56000    1.000000    
    312 F     s    0.593416 *  0.499484 *  0.421952 *  -1.56000    1.000000    
--------------------------------------------------------------------------------



********************************************************************************
*  General input information                                                   *
********************************************************************************

  Species output for all configurations : 

--------------------------------------------------------------------------------
  Species    Type    Atomic    Atomic    Charge       Radii (Angs)     Library
                     Number     Mass       (e)     Cova   Ionic  VDW   Symbol
--------------------------------------------------------------------------------
    Si       Core       14      28.09   4.000000   1.200  0.000  2.100          
    O1       Core        8      16.00   1.733957   0.730  0.000  1.360          
    O1       Shell       8       0.00  -3.733957   0.730  0.000  1.360          
    O2       Core        8      16.00   0.870733   0.730  0.000  1.360          
    O2       Shell       8       0.00  -2.870733   0.730  0.000  1.360          
    O3       Core        8      16.00   1.330431   0.730  0.000  1.360          
    O3       Shell       8       0.00  -3.330431   0.730  0.000  1.360          
    F        Core        9      19.00   0.560000   0.710  0.000  1.300          
    F        Shell       9       0.00  -1.560000   0.710  0.000  1.300          
    Ge       Core       32      72.61   4.000000   1.170  0.000  1.750          
--------------------------------------------------------------------------------


  Lattice summation method               =    Ewald          (3-D)
                                         =    Parry          (2-D)
                                         =    Saunders et al (1-D)
  Accuracy factor for lattice sums       =   12.000


  Time limit = Infinity

  Maximum range for interatomic potentials =        16.000000 Angstroms

  Taper potentials to zero over   1.0000 Angstroms using polynomial

  General interatomic potentials :

--------------------------------------------------------------------------------
Atom  Types   Potential         A         B         C         D     Cutoffs(Ang)
  1     2                                                            Min    Max 
--------------------------------------------------------------------------------
Si   c O1   s Buckingham    0.132E+04 0.318      10.1      0.00     0.000 16.000
Si   c O2   s Buckingham    0.132E+04 0.318      10.1      0.00     0.000 16.000
Si   c O3   s Buckingham    0.132E+04 0.318      10.1      0.00     0.000 16.000
Ge   c O1   s Buckingham    0.150E+04 0.326      16.8      0.00     0.000 16.000
Ge   c O2   s Buckingham    0.150E+04 0.326      16.8      0.00     0.000 16.000
Ge   c O3   s Buckingham    0.150E+04 0.326      16.8      0.00     0.000 16.000
O1   s O1   s Buckingham    0.228E+05 0.149      10.9      0.00     0.000 16.000
O1   s O2   s Buckingham    0.228E+05 0.149      10.9      0.00     0.000 16.000
O1   s O3   s Buckingham    0.228E+05 0.149      10.9      0.00     0.000 16.000
O2   s O2   s Buckingham    0.228E+05 0.149      10.9      0.00     0.000 16.000
O2   s O3   s Buckingham    0.228E+05 0.149      10.9      0.00     0.000 16.000
O3   s O3   s Buckingham    0.228E+05 0.149      10.9      0.00     0.000 16.000
Si   c F    s Buckingham     977.     0.282      0.00      0.00     0.000 16.000
Ge   c F    s Buckingham     681.     0.320      0.00      0.00     0.000 16.000
F    s F    s Buckingham     540.     0.262      0.00      0.00     0.000 16.000
O1   s F    s Buckingham    0.168E+04 0.268      0.00      0.00     0.000 16.000
O2   s F    s Buckingham    0.168E+04 0.268      0.00      0.00     0.000 16.000
O3   s F    s Buckingham    0.168E+04 0.268      0.00      0.00     0.000 16.000
O2   c O2   s Spring (c-s)   76.0      0.00      0.00      0.00     0.000  0.800
O3   c O3   s Spring (c-s)   128.      0.00      0.00      0.00     0.000  0.800
O1   c O1   s Spring (c-s)   180.      0.00      0.00      0.00     0.000  0.800
F    c F    s Spring (c-s)   33.5      0.00      0.00      0.00     0.000  0.800
--------------------------------------------------------------------------------

  General Three-body potentials :

  Harmonic form:

--------------------------------------------------------------------------------
Atom    Atom    Atom           Force Constants            Theta     Cutoffs  
  1       2       3     (eVrad**-2/eVrad**-3/eVrad**-4)   (deg)  1-2  1-3  2-3
--------------------------------------------------------------------------------
Si    c O1    s O1    s  1.261        0.0000    0.0000   109.470 0.00 0.00 0.00
                                                                 1.90 1.90 3.50
Si    c O1    s O2    s  1.261        0.0000    0.0000   109.470 0.00 0.00 0.00
                                                                 1.90 1.90 3.50
Si    c O2    s O2    s  1.261        0.0000    0.0000   109.470 0.00 0.00 0.00
                                                                 1.90 1.90 3.50
--------------------------------------------------------------------------------

********************************************************************************
*  Output for configuration   1                                                *
********************************************************************************


  Components of energy : 

--------------------------------------------------------------------------------
  Interatomic potentials     =        2064.08570405 eV
  Three-body potentials      =           0.45580961 eV
  Monopole - monopole (real) =       -6612.83413676 eV
  Monopole - monopole (recip)=       -3171.88146622 eV
  Monopole - monopole (total)=       -9784.71560298 eV
  Neutralising energy        =          -6.46043259 eV
--------------------------------------------------------------------------------
  Total lattice energy       =       -7726.63452191 eV
--------------------------------------------------------------------------------
  Total lattice energy       =         -745502.1189 kJ/(mole unit cells)
--------------------------------------------------------------------------------


  Number of variables =      939

  Maximum number of calculations  =          5000
  Maximum Hessian update interval =            10
  Maximum step size               =   0.100000000
  Maximum parameter tolerance     =   0.000010000
  Maximum function  tolerance     =   0.000010000
  Maximum gradient  tolerance     =   0.001000000
  Maximum gradient  component     =   0.010000000

  Symmetry not applied to optimisation

  Cell parameters to be optimised using strains

  Newton-Raphson optimiser to be used

  BFGS hessian update to be used

  Dumpfile to be written after every cycle

  Start of bulk optimisation :

  Cycle:      0 Energy:     -7726.634522  Gnorm:      0.006358  CPU:    2.015
  ** Hessian calculated **
  Cycle:      1 Energy:     -7726.634637  Gnorm:      0.002673  CPU:    5.235
  Cycle:      2 Energy:     -7726.634675  Gnorm:      0.001653  CPU:    8.077
  Cycle:      3 Energy:     -7726.634705  Gnorm:      0.001200  CPU:   10.918
  Cycle:      4 Energy:     -7726.634738  Gnorm:      0.000978  CPU:   13.761
  Cycle:      5 Energy:     -7726.634849  Gnorm:      0.001908  CPU:   18.648
  Cycle:      6 Energy:     -7726.634990  Gnorm:      0.003469  CPU:   22.862
  Cycle:      7 Energy:     -7726.635168  Gnorm:      0.004857  CPU:   27.066
  Cycle:      8 Energy:     -7726.635404  Gnorm:      0.007263  CPU:   31.271
  Cycle:      9 Energy:     -7726.635734  Gnorm:      0.009545  CPU:   35.475
  Cycle:     10 Energy:     -7726.636215  Gnorm:      0.010971  CPU:   39.677
  ** Hessian calculated **
  Cycle:     11 Energy:     -7726.636688  Gnorm:      0.005508  CPU:   44.876
  Cycle:     12 Energy:     -7726.636933  Gnorm:      0.003274  CPU:   48.384
  Cycle:     13 Energy:     -7726.637091  Gnorm:      0.002277  CPU:   51.895
  Cycle:     14 Energy:     -7726.637205  Gnorm:      0.001813  CPU:   55.402
  Cycle:     15 Energy:     -7726.637283  Gnorm:      0.001881  CPU:   58.912
  Cycle:     16 Energy:     -7726.637366  Gnorm:      0.001969  CPU:   63.101
  Cycle:     17 Energy:     -7726.637442  Gnorm:      0.001905  CPU:   66.610
  Cycle:     18 Energy:     -7726.637540  Gnorm:      0.002124  CPU:   70.798
  Cycle:     19 Energy:     -7726.637629  Gnorm:      0.002144  CPU:   73.630
  Cycle:     20 Energy:     -7726.637866  Gnorm:      0.002537  CPU:   78.498
  ** Hessian calculated **
  Cycle:     21 Energy:     -7726.637922  Gnorm:      0.002091  CPU:   83.017
  Cycle:     22 Energy:     -7726.638034  Gnorm:      0.001769  CPU:   87.884
  Cycle:     23 Energy:     -7726.638152  Gnorm:      0.001472  CPU:   92.074
  Cycle:     24 Energy:     -7726.638270  Gnorm:      0.001670  CPU:   96.263
  Cycle:     25 Energy:     -7726.638334  Gnorm:      0.001580  CPU:   99.771
  Cycle:     26 Energy:     -7726.638403  Gnorm:      0.001636  CPU:  103.962
  Cycle:     27 Energy:     -7726.638492  Gnorm:      0.002118  CPU:  108.150
  Cycle:     28 Energy:     -7726.638634  Gnorm:      0.002457  CPU:  112.339
  Cycle:     29 Energy:     -7726.638861  Gnorm:      0.003013  CPU:  116.525
  Cycle:     30 Energy:     -7726.639207  Gnorm:      0.003581  CPU:  120.713
  ** Hessian calculated **
  Cycle:     31 Energy:     -7726.639299  Gnorm:      0.003071  CPU:  125.230
  Cycle:     32 Energy:     -7726.639498  Gnorm:      0.002589  CPU:  130.099
  Cycle:     33 Energy:     -7726.639712  Gnorm:      0.002326  CPU:  134.290
  Cycle:     34 Energy:     -7726.639921  Gnorm:      0.001759  CPU:  138.477
  Cycle:     35 Energy:     -7726.639986  Gnorm:      0.001537  CPU:  141.986
  Cycle:     36 Energy:     -7726.640028  Gnorm:      0.001249  CPU:  144.813
  Cycle:     37 Energy:     -7726.640066  Gnorm:      0.001243  CPU:  147.640
  Cycle:     38 Energy:     -7726.640112  Gnorm:      0.001297  CPU:  150.468
  Cycle:     39 Energy:     -7726.640278  Gnorm:      0.001932  CPU:  155.338
  Cycle:     40 Energy:     -7726.640482  Gnorm:      0.002460  CPU:  159.526
  ** Hessian calculated **
  Cycle:     41 Energy:     -7726.640534  Gnorm:      0.001860  CPU:  164.040
  Cycle:     42 Energy:     -7726.640581  Gnorm:      0.001780  CPU:  166.868
  Cycle:     43 Energy:     -7726.640635  Gnorm:      0.001681  CPU:  169.695
  Cycle:     44 Energy:     -7726.640815  Gnorm:      0.001562  CPU:  174.562
  Cycle:     45 Energy:     -7726.640958  Gnorm:      0.001480  CPU:  178.074
  Cycle:     46 Energy:     -7726.641031  Gnorm:      0.001203  CPU:  181.608
  Cycle:     47 Energy:     -7726.641073  Gnorm:      0.001320  CPU:  184.443
  Cycle:     48 Energy:     -7726.641163  Gnorm:      0.001757  CPU:  189.309
  Cycle:     49 Energy:     -7726.641268  Gnorm:      0.002074  CPU:  193.495
  Cycle:     50 Energy:     -7726.641424  Gnorm:      0.002564  CPU:  197.683
  ** Hessian calculated **
  Cycle:     51 Energy:     -7726.641472  Gnorm:      0.002259  CPU:  202.196
  Cycle:     52 Energy:     -7726.641518  Gnorm:      0.002140  CPU:  205.024
  Cycle:     53 Energy:     -7726.641572  Gnorm:      0.002025  CPU:  207.851
  Cycle:     54 Energy:     -7726.641757  Gnorm:      0.001749  CPU:  212.718
  Cycle:     55 Energy:     -7726.641938  Gnorm:      0.001636  CPU:  216.906
  Cycle:     56 Energy:     -7726.642006  Gnorm:      0.001053  CPU:  219.734
  Cycle:     57 Energy:     -7726.642045  Gnorm:      0.001097  CPU:  222.562
  Cycle:     58 Energy:     -7726.642083  Gnorm:      0.001163  CPU:  225.393
  Cycle:     59 Energy:     -7726.642198  Gnorm:      0.001680  CPU:  230.263
  Cycle:     60 Energy:     -7726.642327  Gnorm:      0.002289  CPU:  234.456
  ** Hessian calculated **
  Cycle:     61 Energy:     -7726.642371  Gnorm:      0.001784  CPU:  238.976
  Cycle:     62 Energy:     -7726.642411  Gnorm:      0.001683  CPU:  241.804
  Cycle:     63 Energy:     -7726.642457  Gnorm:      0.001605  CPU:  244.635
  Cycle:     64 Energy:     -7726.642618  Gnorm:      0.001337  CPU:  249.506
  Cycle:     65 Energy:     -7726.642771  Gnorm:      0.001493  CPU:  253.701
  Cycle:     66 Energy:     -7726.642842  Gnorm:      0.001315  CPU:  257.213
  Cycle:     67 Energy:     -7726.642876  Gnorm:      0.001344  CPU:  260.040
  Cycle:     68 Energy:     -7726.642911  Gnorm:      0.001420  CPU:  262.873
  Cycle:     69 Energy:     -7726.643033  Gnorm:      0.001876  CPU:  267.743
  Cycle:     70 Energy:     -7726.643208  Gnorm:      0.002411  CPU:  271.932
  ** Hessian calculated **
  Cycle:     71 Energy:     -7726.643250  Gnorm:      0.002073  CPU:  276.451
  Cycle:     72 Energy:     -7726.643290  Gnorm:      0.001969  CPU:  279.283
  Cycle:     73 Energy:     -7726.643337  Gnorm:      0.001868  CPU:  282.114
  Cycle:     74 Energy:     -7726.643400  Gnorm:      0.001697  CPU:  284.945
  Cycle:     75 Energy:     -7726.643607  Gnorm:      0.001432  CPU:  289.817
  Cycle:     76 Energy:     -7726.643716  Gnorm:      0.001472  CPU:  293.329
  Cycle:     77 Energy:     -7726.643767  Gnorm:      0.001147  CPU:  296.157
  Cycle:     78 Energy:     -7726.643801  Gnorm:      0.001175  CPU:  298.987
  Cycle:     79 Energy:     -7726.643838  Gnorm:      0.001268  CPU:  301.818
  Cycle:     80 Energy:     -7726.643961  Gnorm:      0.001915  CPU:  306.688
  ** Hessian calculated **
  Cycle:     81 Energy:     -7726.643992  Gnorm:      0.001509  CPU:  311.210
  Cycle:     82 Energy:     -7726.644021  Gnorm:      0.001437  CPU:  314.044
  Cycle:     83 Energy:     -7726.644055  Gnorm:      0.001381  CPU:  316.871
  Cycle:     84 Energy:     -7726.644101  Gnorm:      0.001247  CPU:  319.701
  Cycle:     85 Energy:     -7726.644258  Gnorm:      0.001171  CPU:  324.574
  Cycle:     86 Energy:     -7726.644365  Gnorm:      0.001584  CPU:  328.084
  Cycle:     87 Energy:     -7726.644438  Gnorm:      0.001358  CPU:  331.594
  Cycle:     88 Energy:     -7726.644474  Gnorm:      0.001460  CPU:  334.424
  Cycle:     89 Energy:     -7726.644512  Gnorm:      0.001561  CPU:  337.251
  Cycle:     90 Energy:     -7726.644653  Gnorm:      0.002107  CPU:  342.126
  ** Hessian calculated **
  Cycle:     91 Energy:     -7726.644892  Gnorm:      0.002107  CPU:  348.009
  Cycle:     92 Energy:     -7726.645311  Gnorm:      0.002106  CPU:  352.881
  Cycle:     93 Energy:     -7726.646018  Gnorm:      0.002102  CPU:  357.750
  Cycle:     94 Energy:     -7726.647205  Gnorm:      0.002090  CPU:  362.622
  Cycle:     95 Energy:     -7726.648856  Gnorm:      0.002065  CPU:  366.808
  Cycle:     96 Energy:     -7726.651820  Gnorm:      0.002004  CPU:  371.681
  Cycle:     97 Energy:     -7726.655652  Gnorm:      0.001902  CPU:  375.873
  Cycle:     98 Energy:     -7726.661789  Gnorm:      0.001709  CPU:  380.742
  Cycle:     99 Energy:     -7726.668595  Gnorm:      0.001412  CPU:  384.933
  Cycle:    100 Energy:     -7726.675967  Gnorm:      0.001229  CPU:  389.122
  ** Hessian calculated **
  Cycle:    101 Energy:     -7726.680732  Gnorm:      0.000702  CPU:  395.001
  Cycle:    102 Energy:     -7726.681909  Gnorm:      0.000418  CPU:  399.191
  Cycle:    103 Energy:     -7726.682202  Gnorm:      0.000220  CPU:  403.384
  Cycle:    104 Energy:     -7726.682275  Gnorm:      0.000114  CPU:  407.575
  Cycle:    105 Energy:     -7726.682288  Gnorm:      0.000080  CPU:  410.401
  Cycle:    106 Energy:     -7726.682294  Gnorm:      0.000056  CPU:  413.232
  Cycle:    107 Energy:     -7726.682297  Gnorm:      0.000039  CPU:  416.058


  **** Optimisation achieved ****


  Final energy =   -7726.68229820 eV
  Final Gnorm  =       0.00002766

  Components of energy : 

--------------------------------------------------------------------------------
  Interatomic potentials     =        2064.09832385 eV
  Three-body potentials      =           0.45955863 eV
  Monopole - monopole (real) =       -6613.65305098 eV
  Monopole - monopole (recip)=       -3171.12822917 eV
  Monopole - monopole (total)=       -9784.78128015 eV
  Neutralising energy        =          -6.45890053 eV
--------------------------------------------------------------------------------
  Total lattice energy       =       -7726.68229820 eV
--------------------------------------------------------------------------------
  Total lattice energy       =         -745506.7286 kJ/(mole unit cells)
--------------------------------------------------------------------------------

  Final fractional coordinates of atoms :

--------------------------------------------------------------------------------
   No.  Atomic        x           y          z          Radius
        Label       (Frac)      (Frac)     (Frac)       (Angs) 
--------------------------------------------------------------------------------
     1  Si    c     0.699600    0.375700    0.033890    0.000000
     2  Si    c     0.626586    0.329038    0.363647    0.000000
     3  Si    c     0.663714    0.291323    0.695409    0.000000
     4  Si    c     0.279801    0.614207    0.529900    0.000000
     5  Si    c     0.373318    0.676636    0.860875    0.000000
     6  Si    c     0.332742    0.711389    0.194890    0.000000
     7  Si    c     0.383701    0.706701    0.295282    0.000000
     8  Si    c     0.321798    0.622854    0.962730    0.000000
     9  Si    c     0.284465    0.671084    0.630195    0.000000
    10  Si    c     0.614149    0.301975    0.796618    0.000000
    11  Si    c     0.675465    0.378065    0.466406    0.000000
    12  Si    c     0.712438    0.330810    0.134414    0.000000
    13  Ge    c     0.532551    0.412607    0.964781    0.000000
    14  Si    c     0.586710    0.115361    0.299355    0.000000
    15  Si    c     0.875051    0.462377    0.631350    0.000000
    16  Si    c     0.462156    0.590748    0.464675    0.000000
    17  Si    c     0.410462    0.888358    0.796612    0.000000
    18  Si    c     0.122368    0.539966    0.129644    0.000000
    19  Si    c     0.419297    0.535604    0.360889    0.000000
    20  Si    c     0.110620    0.583662    0.028496    0.000000
    21  Si    c     0.457568    0.881462    0.695599    0.000000
    22  Ge    c     0.568658    0.470317    0.864889    0.000000
    23  Si    c     0.875870    0.405164    0.530524    0.000000
    24  Si    c     0.539134    0.120417    0.198272    0.000000
    25  Si    c     0.291980    0.392415    0.843311    0.000000
    26  Si    c     0.611947    0.912521    0.181815    0.000000
    27  Si    c     0.077033    0.688128    0.514035    0.000000
    28  Si    c     0.705564    0.609776    0.345000    0.000000
    29  Si    c     0.385415    0.090008    0.681564    0.000000
    30  Si    c     0.902785    0.301829    0.016581    0.000000
    31  Si    c     0.393134    0.305591    0.479341    0.000000
    32  Si    c     0.913099    0.610881    0.145232    0.000000
    33  Si    c     0.689953    0.097696    0.810227    0.000000
    34  Si    c     0.603973    0.702124    0.978815    0.000000
    35  Si    c     0.085076    0.392515    0.645535    0.000000
    36  Si    c     0.305296    0.907093    0.311756    0.000000
    37  Si    c     0.249498    0.334499    0.946004    0.000000
    38  Si    c     0.665573    0.915462    0.282449    0.000000
    39  Si    c     0.073938    0.741244    0.614880    0.000000
    40  Ge    c     0.727364    0.644813    0.444995    0.000000
    41  Si    c     0.332217    0.088905    0.782348    0.000000
    42  Si    c     0.920995    0.259456    0.116877    0.000000
    43  Si    c     0.338941    0.253875    0.377240    0.000000
    44  Si    c     0.908258    0.660235    0.044530    0.000000
    45  Si    c     0.736549    0.082460    0.709911    0.000000
    46  Si    c     0.661498    0.751112    0.876342    0.000000
    47  Si    c     0.078515    0.331429    0.545378    0.000000
    48  Si    c     0.259686    0.919918    0.211242    0.000000
    49  Si    c     0.966342    0.122348    0.962844    0.000000
    50  Si    c     0.883442    0.854243    0.295374    0.000000
    51  Si    c     0.139367    0.022732    0.629397    0.000000
    52  Si    c     0.013438    0.870836    0.462286    0.000000
    53  Si    c     0.109160    0.146029    0.794959    0.000000
    54  Si    c     0.859127    0.979885    0.129968    0.000000
    55  Si    c     0.121938    0.970120    0.362871    0.000000
    56  Si    c     0.850900    0.883125    0.028654    0.000000
    57  Si    c     0.015897    0.143470    0.694511    0.000000
    58  Si    c     0.871399    0.035329    0.861480    0.000000
    59  Si    c     0.143925    0.116172    0.528348    0.000000
    60  Si    c     0.981709    0.860847    0.195197    0.000000
    61  O2    c     0.931586    0.999863    0.994319    0.000000
    62  O2    c     0.003597    0.929464    0.328857    0.000000
    63  O2    c     0.057034    0.065961    0.660238    0.000000
    64  O2    c     0.069760    0.997231    0.494654    0.000000
    65  O2    c     0.990590    0.069024    0.828782    0.000000
    66  O2    c     0.940819    0.937552    0.160995    0.000000
    67  O2    c     0.343883    0.582504    0.327397    0.000000
    68  O2    c     0.407229    0.755476    0.662968    0.000000
    69  O2    c     0.234549    0.658018    0.995055    0.000000
    70  O3    c     0.653708    0.423768    0.826989    0.000000
    71  O2    c     0.591121    0.249009    0.167752    0.000000
    72  O2    c     0.749398    0.325507    0.498452    0.000000
    73  O3    c     0.572951    0.332676    0.005156    0.000000
    74  O2    c     0.748791    0.414403    0.663028    0.000000
    75  O2    c     0.662581    0.240177    0.332323    0.000000
    76  O2    c     0.399743    0.657181    0.495457    0.000000
    77  O2    c     0.249756    0.590338    0.160974    0.000000
    78  O2    c     0.336030    0.763055    0.829676    0.000000
    79  O2    c     0.119330    0.216025    0.966987    0.000000
    80  O2    c     0.792018    0.916928    0.302543    0.000000
    81  O2    c     0.074243    0.868283    0.634916    0.000000
    82  O3    c     0.863991    0.790548    0.466148    0.000000
    83  O2    c     0.205314    0.089346    0.802160    0.000000
    84  O2    c     0.923615    0.134257    0.136537    0.000000
    85  O2    c     0.215414    0.125695    0.357450    0.000000
    86  O2    c     0.907123    0.785437    0.024024    0.000000
    87  O2    c     0.861879    0.080951    0.689434    0.000000
    88  O2    c     0.778934    0.882536    0.856722    0.000000
    89  O2    c     0.078559    0.205527    0.524627    0.000000
    90  O2    c     0.136071    0.923629    0.190717    0.000000
    91  O2    c     0.939990    0.877390    0.245024    0.000000
    92  O2    c     0.133842    0.062144    0.578314    0.000000
    93  O2    c     0.923737    0.074557    0.912138    0.000000
    94  O2    c     0.055375    0.124850    0.744414    0.000000
    95  O2    c     0.868606    0.940872    0.078786    0.000000
    96  O2    c     0.069034    0.930035    0.412779    0.000000
    97  O2    c     0.894918    0.200314    0.978290    0.000000
    98  O2    c     0.796936    0.700158    0.303545    0.000000
    99  O2    c     0.289181    0.091857    0.643434    0.000000
   100  O2    c     0.076294    0.781414    0.474919    0.000000
   101  O2    c     0.183425    0.298842    0.806685    0.000000
   102  O2    c     0.708419    0.911009    0.143300    0.000000
   103  O2    c     0.206152    0.902731    0.350133    0.000000
   104  O2    c     0.699098    0.806489    0.016489    0.000000
   105  O2    c     0.086031    0.296315    0.684130    0.000000
   106  O2    c     0.791138    0.105727    0.848720    0.000000
   107  O2    c     0.295884    0.205762    0.516504    0.000000
   108  O2    c     0.913552    0.708820    0.183632    0.000000
   109  O2    c     0.328962    0.651136    0.244683    0.000000
   110  O2    c     0.340948    0.670665    0.579850    0.000000
   111  O2    c     0.322317    0.674905    0.912209    0.000000
   112  O2    c     0.664483    0.349441    0.745038    0.000000
   113  O2    c     0.651086    0.324974    0.085079    0.000000
   114  O2    c     0.677998    0.330173    0.414346    0.000000
   115  O3    c     0.363237    0.317215    0.965414    0.000000
   116  O2    c     0.673668    0.046228    0.302298    0.000000
   117  O2    c     0.943631    0.618941    0.634321    0.000000
   118  O3    c     0.613682    0.681585    0.469504    0.000000
   119  O2    c     0.321314    0.955394    0.800641    0.000000
   120  O2    c     0.054872    0.383677    0.133357    0.000000
   121  O2    c     0.334229    0.378659    0.358865    0.000000
   122  O2    c     0.039906    0.669364    0.025015    0.000000
   123  O2    c     0.613704    0.949107    0.691961    0.000000
   124  O3    c     0.679728    0.638082    0.856884    0.000000
   125  O2    c     0.944147    0.317291    0.527695    0.000000
   126  O2    c     0.383377    0.053147    0.194300    0.000000
   127  O2    c     0.769365    0.302578    0.010586    0.000000
   128  O2    c     0.700705    0.471084    0.340777    0.000000
   129  O2    c     0.520453    0.222034    0.673174    0.000000
   130  O2    c     0.212097    0.689463    0.508062    0.000000
   131  O2    c     0.297319    0.531088    0.840824    0.000000
   132  O2    c     0.477047    0.779621    0.173483    0.000000
   133  O2    c     0.307835    0.773897    0.318040    0.000000
   134  O2    c     0.466793    0.698447    0.982805    0.000000
   135  O2    c     0.217310    0.528380    0.653083    0.000000
   136  O2    c     0.688550    0.230354    0.817297    0.000000
   137  O2    c     0.527538    0.306579    0.484984    0.000000
   138  O2    c     0.782018    0.476358    0.155206    0.000000
   139  O2    c     0.780076    0.532900    0.026628    0.000000
   140  O2    c     0.471463    0.263611    0.360639    0.000000
   141  O2    c     0.736702    0.208058    0.690371    0.000000
   142  O2    c     0.202932    0.457418    0.525041    0.000000
   143  O2    c     0.527198    0.738601    0.859011    0.000000
   144  O2    c     0.259511    0.794340    0.190700    0.000000
   145  O2    c     0.539637    0.787303    0.300669    0.000000
   146  O2    c     0.263760    0.469209    0.964188    0.000000
   147  O2    c     0.201981    0.744992    0.633791    0.000000
   148  O2    c     0.457221    0.213921    0.802287    0.000000
   149  O3    c     0.754432    0.531039    0.473702    0.000000
   150  O2    c     0.797158    0.259438    0.138523    0.000000
   151  O2    c     0.232990    0.321544    0.891739    0.000000
   152  O2    c     0.684908    0.915931    0.228217    0.000000
   153  O2    c     0.070426    0.756697    0.560732    0.000000
   154  O3    c     0.781819    0.691632    0.388204    0.000000
   155  O2    c     0.313647    0.089457    0.728178    0.000000
   156  O2    c     0.912516    0.235464    0.062845    0.000000
   157  O2    c     0.326095    0.244148    0.431254    0.000000
   158  O2    c     0.911234    0.681283    0.098760    0.000000
   159  O2    c     0.758271    0.087776    0.764063    0.000000
   160  O2    c     0.673712    0.763804    0.931211    0.000000
   161  O2    c     0.082683    0.316128    0.599587    0.000000
   162  O2    c     0.237348    0.913969    0.265349    0.000000
   163  O3    c     0.587601    0.565403    0.989624    0.000000
   164  O2    c     0.444198    0.033077    0.321618    0.000000
   165  O2    c     0.958812    0.405178    0.654445    0.000000
   166  O2    c     0.411639    0.447295    0.486108    0.000000
   167  O2    c     0.551810    0.970012    0.820070    0.000000
   168  O2    c     0.040369    0.599511    0.152913    0.000000
   169  O2    c     0.561239    0.588622    0.339178    0.000000
   170  O2    c     0.029097    0.440383    0.006227    0.000000
   171  O2    c     0.397488    0.963062    0.672826    0.000000
   172  O3    c     0.424741    0.402381    0.831418    0.000000
   173  O2    c     0.957364    0.544327    0.506192    0.000000
   174  O2    c     0.597594    0.038241    0.174035    0.000000
   175  O2    c     0.590321    0.171836    0.249227    0.000000
   176  O2    c     0.821884    0.407410    0.580825    0.000000
   177  O1    c     0.594434    0.401785    0.914252    0.000000
   178  O2    c     0.405900    0.828263    0.746538    0.000000
   179  O2    c     0.171028    0.590138    0.078358    0.000000
   180  O2    c     0.416869    0.585932    0.411759    0.000000
   181  F     c     0.459671    0.911469    0.247091    0.000000
   182  F     c     0.082550    0.537166    0.580509    0.000000
   183  F     c     0.475972    0.521702    0.906846    0.000000
   184  F     c     0.533769    0.084690    0.746143    0.000000
   185  F     c     0.910938    0.458518    0.080576    0.000000
   186  F     c     0.582503    0.494877    0.417896    0.000000
   187  O2    s     0.926456    0.000306    0.994684    0.000000
   188  O2    s     0.003311    0.925576    0.328882    0.000000
   189  O2    s     0.061648    0.069799    0.660625    0.000000
   190  O2    s     0.072428    0.997661    0.495137    0.000000
   191  O2    s     0.990483    0.073902    0.828673    0.000000
   192  O2    s     0.936218    0.933735    0.161332    0.000000
   193  O2    s     0.355755    0.590351    0.327557    0.000000
   194  O2    s     0.399734    0.759720    0.662929    0.000000
   195  O2    s     0.231267    0.646776    0.995002    0.000000
   196  O3    s     0.643417    0.413562    0.826272    0.000000
   197  O2    s     0.598362    0.244138    0.167449    0.000000
   198  O2    s     0.754527    0.338750    0.498397    0.000000
   199  O3    s     0.582934    0.343102    0.005083    0.000000
   200  O2    s     0.753166    0.406705    0.663072    0.000000
   201  O2    s     0.650942    0.236659    0.332231    0.000000
   202  O2    s     0.393931    0.645546    0.495749    0.000000
   203  O2    s     0.245155    0.597608    0.161240    0.000000
   204  O2    s     0.347410    0.766208    0.829760    0.000000
   205  O2    s     0.116182    0.218197    0.964344    0.000000
   206  O2    s     0.788417    0.910188    0.299719    0.000000
   207  O2    s     0.081140    0.871596    0.632282    0.000000
   208  O3    s     0.871989    0.790109    0.464353    0.000000
   209  O2    s     0.208057    0.095294    0.799416    0.000000
   210  O2    s     0.916508    0.130825    0.133832    0.000000
   211  O2    s     0.219136    0.123633    0.360083    0.000000
   212  O2    s     0.901306    0.782808    0.026603    0.000000
   213  O2    s     0.865356    0.087763    0.692064    0.000000
   214  O2    s     0.776427    0.885317    0.859392    0.000000
   215  O2    s     0.085561    0.209130    0.527166    0.000000
   216  O2    s     0.132518    0.916599    0.193292    0.000000
   217  O2    s     0.938411    0.872936    0.245001    0.000000
   218  O2    s     0.135605    0.063815    0.578437    0.000000
   219  O2    s     0.922767    0.075637    0.912279    0.000000
   220  O2    s     0.057049    0.129310    0.744570    0.000000
   221  O2    s     0.865574    0.938758    0.078895    0.000000
   222  O2    s     0.069429    0.928565    0.412091    0.000000
   223  O2    s     0.903391    0.202471    0.980616    0.000000
   224  O2    s     0.797010    0.707343    0.306692    0.000000
   225  O2    s     0.283001    0.084238    0.645863    0.000000
   226  O2    s     0.070093    0.780544    0.477770    0.000000
   227  O2    s     0.186584    0.292314    0.809153    0.000000
   228  O2    s     0.714542    0.918477    0.145831    0.000000
   229  O2    s     0.207579    0.910310    0.347479    0.000000
   230  O2    s     0.705559    0.804139    0.014007    0.000000
   231  O2    s     0.078532    0.289877    0.681336    0.000000
   232  O2    s     0.789702    0.097331    0.846257    0.000000
   233  O2    s     0.290528    0.207135    0.513783    0.000000
   234  O2    s     0.920835    0.715025    0.180902    0.000000
   235  O2    s     0.334917    0.662909    0.244784    0.000000
   236  O2    s     0.329018    0.664964    0.579912    0.000000
   237  O2    s     0.327421    0.669657    0.912282    0.000000
   238  O2    s     0.659312    0.338421    0.744922    0.000000
   239  O2    s     0.662623    0.330847    0.085004    0.000000
   240  O2    s     0.672337    0.334824    0.414099    0.000000
   241  O3    s     0.363923    0.326006    0.963330    0.000000
   242  O2    s     0.663755    0.039707    0.299902    0.000000
   243  O2    s     0.950267    0.615666    0.631967    0.000000
   244  O3    s     0.606130    0.669570    0.467234    0.000000
   245  O2    s     0.331569    0.962101    0.798357    0.000000
   246  O2    s     0.047754    0.386702    0.131232    0.000000
   247  O2    s     0.343373    0.381494    0.361001    0.000000
   248  O2    s     0.033694    0.659590    0.027385    0.000000
   249  O2    s     0.610502    0.956075    0.694221    0.000000
   250  O3    s     0.670058    0.638543    0.859570    0.000000
   251  O2    s     0.951192    0.327933    0.529867    0.000000
   252  O2    s     0.386503    0.046112    0.196500    0.000000
   253  O2    s     0.776651    0.310000    0.013641    0.000000
   254  O2    s     0.693508    0.470336    0.343606    0.000000
   255  O2    s     0.520938    0.215208    0.676377    0.000000
   256  O2    s     0.204904    0.681423    0.511030    0.000000
   257  O2    s     0.304788    0.532327    0.843222    0.000000
   258  O2    s     0.476351    0.786559    0.176600    0.000000
   259  O2    s     0.315440    0.781034    0.314978    0.000000
   260  O2    s     0.465649    0.690930    0.980280    0.000000
   261  O2    s     0.210167    0.528564    0.649917    0.000000
   262  O2    s     0.681263    0.222860    0.814422    0.000000
   263  O2    s     0.528148    0.313759    0.482460    0.000000
   264  O2    s     0.788707    0.475517    0.151959    0.000000
   265  O2    s     0.785923    0.531078    0.029183    0.000000
   266  O2    s     0.473326    0.269511    0.362750    0.000000
   267  O2    s     0.729000    0.202938    0.692991    0.000000
   268  O2    s     0.197435    0.460059    0.527706    0.000000
   269  O2    s     0.524298    0.732977    0.861017    0.000000
   270  O2    s     0.267290    0.799364    0.193339    0.000000
   271  O2    s     0.536993    0.792821    0.298172    0.000000
   272  O2    s     0.268686    0.471874    0.962124    0.000000
   273  O2    s     0.196661    0.736732    0.631380    0.000000
   274  O2    s     0.458911    0.208648    0.799580    0.000000
   275  O3    s     0.744286    0.523911    0.470882    0.000000
   276  O2    s     0.801837    0.266993    0.135781    0.000000
   277  O2    s     0.240656    0.329947    0.892723    0.000000
   278  O2    s     0.675171    0.915521    0.229046    0.000000
   279  O2    s     0.071467    0.747901    0.561624    0.000000
   280  O3    s     0.770176    0.679906    0.387627    0.000000
   281  O2    s     0.323144    0.089447    0.729004    0.000000
   282  O2    s     0.912403    0.245006    0.063743    0.000000
   283  O2    s     0.334599    0.251735    0.430388    0.000000
   284  O2    s     0.911125    0.671719    0.097880    0.000000
   285  O2    s     0.748881    0.088218    0.763161    0.000000
   286  O2    s     0.665111    0.755953    0.930658    0.000000
   287  O2    s     0.082496    0.325672    0.598624    0.000000
   288  O2    s     0.246816    0.913873    0.264458    0.000000
   289  O3    s     0.585070    0.568469    0.986582    0.000000
   290  O2    s     0.444249    0.028109    0.318245    0.000000
   291  O2    s     0.963832    0.409952    0.651074    0.000000
   292  O2    s     0.414814    0.445973    0.483224    0.000000
   293  O2    s     0.551716    0.975075    0.816627    0.000000
   294  O2    s     0.035118    0.594318    0.149633    0.000000
   295  O2    s     0.561205    0.585083    0.342087    0.000000
   296  O2    s     0.024184    0.440715    0.009637    0.000000
   297  O2    s     0.402621    0.968405    0.676159    0.000000
   298  O3    s     0.420176    0.406155    0.835024    0.000000
   299  O2    s     0.961950    0.545206    0.509604    0.000000
   300  O2    s     0.592906    0.033074    0.177383    0.000000
   301  O2    s     0.584568    0.160506    0.249151    0.000000
   302  O2    s     0.833094    0.412916    0.580827    0.000000
   303  O1    s     0.587767    0.407085    0.915145    0.000000
   304  O2    s     0.411646    0.839886    0.746512    0.000000
   305  O2    s     0.159772    0.584301    0.078498    0.000000
   306  O2    s     0.421546    0.581097    0.411519    0.000000
   307  F     s     0.459574    0.911244    0.247112    0.000000
   308  F     s     0.082982    0.537061    0.580518    0.000000
   309  F     s     0.481455    0.517818    0.905122    0.000000
   310  F     s     0.533492    0.084046    0.746150    0.000000
   311  F     s     0.910893    0.458543    0.080528    0.000000
   312  F     s     0.591018    0.503438    0.419350    0.000000
--------------------------------------------------------------------------------

  Final Cartesian lattice vectors (Angstroms) :

       11.972510    0.001167    0.014533
       -5.970027   10.346550   -0.020007
        0.078557   -0.146222   29.534451


  Final cell parameters and derivatives :

--------------------------------------------------------------------------------
       a           11.972519 Angstrom     dE/de1(xx)     0.003582 eV/strain
       b           11.945406 Angstrom     dE/de2(yy)     0.004154 eV/strain
       c           29.534917 Angstrom     dE/de3(zz)     0.004574 eV/strain
       alpha       90.417821 Degrees      dE/de4(yz)    -0.000178 eV/strain
       beta        89.778082 Degrees      dE/de5(xz)     0.000780 eV/strain
       gamma      119.979708 Degrees      dE/de6(xy)     0.000383 eV/strain
--------------------------------------------------------------------------------

  Primitive cell volume =          3658.727336 Angs**3

  Density of cell =      1.748721 g/cm**3

  Non-primitive cell volume =          3658.727336 Angs**3


  Final internal derivatives :

--------------------------------------------------------------------------------
   No.  Atomic          a             b             c           Radius
        Label          (eV)          (eV)          (eV)        (eV/Angs)
--------------------------------------------------------------------------------
      1 Si    c       0.000000      0.000000      0.000000      0.000000
      2 Si    c      -0.000285      0.000608      0.001175      0.000000
      3 Si    c       0.000122     -0.000131     -0.000790      0.000000
      4 Si    c      -0.000132     -0.000139      0.001225      0.000000
      5 Si    c       0.000678     -0.000186      0.001500      0.000000
      6 Si    c      -0.000058     -0.000068      0.000478      0.000000
      7 Si    c       0.000159      0.000038      0.001026      0.000000
      8 Si    c       0.000775     -0.000116     -0.000934      0.000000
      9 Si    c       0.000083     -0.000163      0.000485      0.000000
     10 Si    c       0.000379     -0.000220     -0.000964      0.000000
     11 Si    c      -0.000456      0.001404     -0.001284      0.000000
     12 Si    c       0.000312     -0.000456      0.001346      0.000000
     13 Ge    c       0.000852     -0.002162     -0.002726      0.000000
     14 Si    c      -0.000247     -0.000179     -0.000432      0.000000
     15 Si    c       0.000162     -0.000217     -0.000353      0.000000
     16 Si    c       0.000960     -0.000682     -0.000535      0.000000
     17 Si    c       0.000366      0.000267     -0.000020      0.000000
     18 Si    c      -0.000232      0.000284      0.001857      0.000000
     19 Si    c      -0.000319     -0.000277     -0.000807      0.000000
     20 Si    c       0.000121      0.000206     -0.000618      0.000000
     21 Si    c      -0.000005     -0.000229     -0.000154      0.000000
     22 Ge    c      -0.003017      0.001572      0.007437      0.000000
     23 Si    c      -0.000083      0.000156      0.000296      0.000000
     24 Si    c       0.000277      0.000673      0.000479      0.000000
     25 Si    c      -0.001217     -0.000307      0.001404      0.000000
     26 Si    c       0.000126     -0.000257      0.000031      0.000000
     27 Si    c       0.000033      0.000524     -0.000107      0.000000
     28 Si    c       0.000044      0.000054     -0.002950      0.000000
     29 Si    c      -0.000153      0.000026     -0.000712      0.000000
     30 Si    c       0.000963     -0.000328     -0.000519      0.000000
     31 Si    c       0.000191      0.000085      0.001382      0.000000
     32 Si    c       0.000214     -0.000089      0.001062      0.000000
     33 Si    c       0.000551      0.000185      0.000386      0.000000
     34 Si    c      -0.000634     -0.000133     -0.000116      0.000000
     35 Si    c       0.000189     -0.000064      0.000140      0.000000
     36 Si    c      -0.000290      0.000410      0.000696      0.000000
     37 Si    c       0.000156      0.000617     -0.001266      0.000000
     38 Si    c      -0.000055     -0.000190      0.000110      0.000000
     39 Si    c      -0.000223     -0.000304     -0.000199      0.000000
     40 Ge    c      -0.000276     -0.000075     -0.001045      0.000000
     41 Si    c       0.000439      0.000453      0.000074      0.000000
     42 Si    c       0.000729     -0.000069      0.000673      0.000000
     43 Si    c       0.000162     -0.000180     -0.000767      0.000000
     44 Si    c       0.000302      0.000753     -0.000667      0.000000
     45 Si    c      -0.000221     -0.000424     -0.000416      0.000000
     46 Si    c      -0.000025      0.000408      0.002640      0.000000
     47 Si    c       0.000470      0.000199      0.000766      0.000000
     48 Si    c      -0.000355      0.000866     -0.000128      0.000000
     49 Si    c       0.000163      0.000153      0.001797      0.000000
     50 Si    c       0.000212      0.000322      0.000726      0.000000
     51 Si    c      -0.000303     -0.000467      0.000475      0.000000
     52 Si    c      -0.000144      0.000554      0.000532      0.000000
     53 Si    c      -0.000198     -0.000610     -0.000524      0.000000
     54 Si    c       0.000070      0.000203      0.002724      0.000000
     55 Si    c       0.000396      0.000031     -0.000226      0.000000
     56 Si    c      -0.000333     -0.000325     -0.000631      0.000000
     57 Si    c      -0.000207     -0.000113      0.000391      0.000000
     58 Si    c       0.000505     -0.000152      0.000870      0.000000
     59 Si    c      -0.000057     -0.000091      0.001181      0.000000
     60 Si    c      -0.000031     -0.000302     -0.001355      0.000000
     61 O2    c       0.000035      0.000155     -0.000057      0.000000
     62 O2    c      -0.000127      0.000092      0.000152      0.000000
     63 O2    c       0.000048      0.000446      0.000199      0.000000
     64 O2    c      -0.000290     -0.000123     -0.000465      0.000000
     65 O2    c       0.000277     -0.000374      0.000567      0.000000
     66 O2    c      -0.000323     -0.000143     -0.000473      0.000000
     67 O2    c      -0.000261     -0.000078     -0.000008      0.000000
     68 O2    c       0.000179      0.000027     -0.000128      0.000000
     69 O2    c      -0.000137      0.000135      0.000538      0.000000
     70 O3    c       0.000883      0.000332      0.000508      0.000000
     71 O2    c      -0.000615      0.000242     -0.000179      0.000000
     72 O2    c       0.000515     -0.000916      0.000712      0.000000
     73 O3    c       0.000614     -0.000448      0.001736      0.000000
     74 O2    c       0.000252     -0.000019      0.000149      0.000000
     75 O2    c       0.000521     -0.000974     -0.001491      0.000000
     76 O2    c      -0.000287      0.000905      0.000723      0.000000
     77 O2    c      -0.000010     -0.000267     -0.000010      0.000000
     78 O2    c      -0.000394     -0.000052     -0.000084      0.000000
     79 O2    c      -0.000196      0.000043      0.000584      0.000000
     80 O2    c      -0.000451      0.000015     -0.000095      0.000000
     81 O2    c       0.000083      0.000260     -0.000236      0.000000
     82 O3    c      -0.001417     -0.000376      0.001200      0.000000
     83 O2    c       0.000899     -0.000527      0.000293      0.000000
     84 O2    c      -0.000099     -0.000333      0.000234      0.000000
     85 O2    c       0.000018     -0.000357     -0.000552      0.000000
     86 O2    c      -0.000016      0.000256      0.000235      0.000000
     87 O2    c       0.000187      0.000023     -0.000352      0.000000
     88 O2    c       0.000094     -0.000601     -0.000199      0.000000
     89 O2    c      -0.000475      0.000927     -0.000608      0.000000
     90 O2    c      -0.000151     -0.000098     -0.000227      0.000000
     91 O2    c      -0.000509      0.000226      0.001533      0.000000
     92 O2    c      -0.000096      0.000263     -0.000770      0.000000
     93 O2    c       0.000169     -0.000169     -0.000485      0.000000
     94 O2    c       0.000494     -0.000051      0.001546      0.000000
     95 O2    c       0.000215     -0.000286     -0.001291      0.000000
     96 O2    c       0.000305     -0.000013     -0.002102      0.000000
     97 O2    c       0.000030      0.000041      0.000342      0.000000
     98 O2    c      -0.000019     -0.000171     -0.000662      0.000000
     99 O2    c       0.000457      0.000073     -0.000232      0.000000
    100 O2    c       0.001488     -0.001105      0.000570      0.000000
    101 O2    c      -0.000147      0.000352      0.000045      0.000000
    102 O2    c      -0.000629     -0.000077     -0.000188      0.000000
    103 O2    c      -0.000116     -0.000160      0.000029      0.000000
    104 O2    c      -0.000078     -0.000088      0.000362      0.000000
    105 O2    c       0.000175      0.000151     -0.000519      0.000000
    106 O2    c      -0.000351      0.000330     -0.000212      0.000000
    107 O2    c       0.000604      0.000011     -0.000683      0.000000
    108 O2    c      -0.000249     -0.000280      0.000284      0.000000
    109 O2    c       0.000059     -0.000644      0.000246      0.000000
    110 O2    c       0.000661     -0.000010      0.000385      0.000000
    111 O2    c       0.000143     -0.000399      0.001196      0.000000
    112 O2    c       0.000110      0.000294      0.000041      0.000000
    113 O2    c      -0.000857      0.000022     -0.002257      0.000000
    114 O2    c       0.000059     -0.000469     -0.000435      0.000000
    115 O3    c      -0.001987     -0.000025      0.001008      0.000000
    116 O2    c      -0.000310      0.000127      0.000276      0.000000
    117 O2    c       0.000155      0.000138      0.000035      0.000000
    118 O3    c       0.000229     -0.000209      0.000113      0.000000
    119 O2    c      -0.000072      0.000100      0.000209      0.000000
    120 O2    c       0.000091     -0.000245      0.000522      0.000000
    121 O2    c      -0.000360      0.000292     -0.000564      0.000000
    122 O2    c       0.000339     -0.000113      0.000173      0.000000
    123 O2    c       0.000329     -0.000022      0.000016      0.000000
    124 O3    c       0.001013      0.000250     -0.000289      0.000000
    125 O2    c       0.000586      0.000044      0.000348      0.000000
    126 O2    c      -0.000826      0.000332     -0.000413      0.000000
    127 O2    c      -0.000411     -0.000004     -0.000104      0.000000
    128 O2    c      -0.000107     -0.000430      0.000182      0.000000
    129 O2    c       0.000263      0.000026     -0.000152      0.000000
    130 O2    c       0.000340      0.000317     -0.001163      0.000000
    131 O2    c      -0.000030      0.000247      0.000784      0.000000
    132 O2    c      -0.000226     -0.000212     -0.000238      0.000000
    133 O2    c      -0.000006     -0.000502      0.001041      0.000000
    134 O2    c      -0.000037     -0.000030      0.000027      0.000000
    135 O2    c       0.000231      0.000113     -0.000042      0.000000
    136 O2    c       0.000181     -0.000189      0.000858      0.000000
    137 O2    c       0.000031     -0.000233      0.000042      0.000000
    138 O2    c      -0.000303     -0.000200      0.000671      0.000000
    139 O2    c      -0.000415      0.000039     -0.001008      0.000000
    140 O2    c       0.000055     -0.000233     -0.000298      0.000000
    141 O2    c       0.000268      0.000121     -0.000768      0.000000
    142 O2    c       0.000322     -0.000136     -0.000337      0.000000
    143 O2    c      -0.000031     -0.000123      0.000508      0.000000
    144 O2    c      -0.000434     -0.000351     -0.001233      0.000000
    145 O2    c      -0.000199     -0.000257      0.000334      0.000000
    146 O2    c       0.000082     -0.000347     -0.000302      0.000000
    147 O2    c       0.000267      0.000347      0.000668      0.000000
    148 O2    c      -0.000440      0.000353      0.000589      0.000000
    149 O3    c       0.000443     -0.000419      0.000691      0.000000
    150 O2    c      -0.000832      0.000004      0.000682      0.000000
    151 O2    c       0.000149      0.000163      0.001273      0.000000
    152 O2    c      -0.000136     -0.000032      0.000149      0.000000
    153 O2    c      -0.000128      0.000616      0.001079      0.000000
    154 O3    c       0.000872     -0.000419      0.001305      0.000000
    155 O2    c       0.000046      0.000063      0.000657      0.000000
    156 O2    c       0.000067     -0.000661     -0.000312      0.000000
    157 O2    c      -0.000150     -0.000323      0.001571      0.000000
    158 O2    c      -0.000053      0.000202      0.001917      0.000000
    159 O2    c       0.000405     -0.000226     -0.000526      0.000000
    160 O2    c      -0.000007      0.000092     -0.000521      0.000000
    161 O2    c       0.000047      0.000206     -0.000359      0.000000
    162 O2    c      -0.000846      0.000294      0.000633      0.000000
    163 O3    c      -0.000274      0.002279      0.005606      0.000000
    164 O2    c      -0.000204      0.000055      0.000549      0.000000
    165 O2    c      -0.000111      0.000475     -0.000616      0.000000
    166 O2    c      -0.000287      0.000178      0.000356      0.000000
    167 O2    c       0.000066     -0.000087      0.000448      0.000000
    168 O2    c       0.000022     -0.000319      0.000091      0.000000
    169 O2    c      -0.000405     -0.000036     -0.000526      0.000000
    170 O2    c       0.000268     -0.000238     -0.000275      0.000000
    171 O2    c       0.000381      0.000026      0.000160      0.000000
    172 O3    c       0.000638     -0.001127     -0.003275      0.000000
    173 O2    c      -0.000222      0.000664     -0.001236      0.000000
    174 O2    c       0.000100     -0.000543     -0.000635      0.000000
    175 O2    c      -0.000200     -0.000003     -0.000843      0.000000
    176 O2    c       0.000449      0.000041      0.000670      0.000000
    177 O1    c       0.002435     -0.000754     -0.003797      0.000000
    178 O2    c       0.000105     -0.000034     -0.000455      0.000000
    179 O2    c       0.000298      0.000136      0.000370      0.000000
    180 O2    c      -0.000585      0.000509      0.000688      0.000000
    181 F     c       0.000259     -0.000053      0.000128      0.000000
    182 F     c      -0.000120     -0.000203     -0.000233      0.000000
    183 F     c       0.001874     -0.002233      0.001452      0.000000
    184 F     c      -0.000067      0.000041     -0.000026      0.000000
    185 F     c      -0.000029      0.000024      0.000283      0.000000
    186 F     c       0.000522     -0.000192      0.000932      0.000000
    187 O2    s       0.000129     -0.000005     -0.000191      0.000000
    188 O2    s      -0.000513     -0.000117     -0.000203      0.000000
    189 O2    s       0.000007      0.000118      0.001010      0.000000
    190 O2    s      -0.000128      0.000453      0.000646      0.000000
    191 O2    s       0.000221      0.000147     -0.000644      0.000000
    192 O2    s      -0.000058     -0.000371      0.000891      0.000000
    193 O2    s      -0.000431     -0.000058      0.000025      0.000000
    194 O2    s       0.000003      0.000285      0.000081      0.000000
    195 O2    s      -0.000265      0.000257     -0.000191      0.000000
    196 O3    s       0.000107     -0.000359     -0.002450      0.000000
    197 O2    s      -0.000486     -0.000920      0.001381      0.000000
    198 O2    s       0.000062      0.000442     -0.000509      0.000000
    199 O3    s      -0.000185      0.000746     -0.001803      0.000000
    200 O2    s       0.000118      0.000117      0.000093      0.000000
    201 O2    s      -0.000054     -0.000328     -0.000209      0.000000
    202 O2    s       0.000120     -0.000110      0.000295      0.000000
    203 O2    s      -0.000590     -0.000340     -0.000320      0.000000
    204 O2    s      -0.000082      0.000214     -0.000287      0.000000
    205 O2    s       0.000214     -0.000444      0.000454      0.000000
    206 O2    s      -0.000206      0.000109      0.000393      0.000000
    207 O2    s       0.000434      0.000252      0.000165      0.000000
    208 O3    s      -0.000584      0.000372     -0.000788      0.000000
    209 O2    s       0.000088     -0.000268     -0.000478      0.000000
    210 O2    s      -0.000278     -0.000021      0.000956      0.000000
    211 O2    s      -0.000831     -0.000270     -0.000096      0.000000
    212 O2    s       0.000091     -0.000087     -0.000946      0.000000
    213 O2    s       0.000357      0.000206      0.000119      0.000000
    214 O2    s      -0.000175     -0.000154      0.000471      0.000000
    215 O2    s      -0.000198      0.000377     -0.000046      0.000000
    216 O2    s       0.000090     -0.000495     -0.000170      0.000000
    217 O2    s      -0.000300     -0.000473      0.000912      0.000000
    218 O2    s       0.000268     -0.000464      0.001290      0.000000
    219 O2    s      -0.000186     -0.000082     -0.000402      0.000000
    220 O2    s       0.000221      0.000159      0.001167      0.000000
    221 O2    s      -0.000563      0.000125      0.001002      0.000000
    222 O2    s      -0.000294      0.000596     -0.000067      0.000000
    223 O2    s      -0.000339      0.000253     -0.001034      0.000000
    224 O2    s      -0.000176     -0.000911     -0.000253      0.000000
    225 O2    s       0.000744      0.000041      0.000446      0.000000
    226 O2    s       0.000781     -0.000011      0.000830      0.000000
    227 O2    s       0.000090      0.001008      0.000927      0.000000
    228 O2    s      -0.000478     -0.000067     -0.000179      0.000000
    229 O2    s      -0.000061     -0.000220      0.000111      0.000000
    230 O2    s       0.000247      0.000093      0.001124      0.000000
    231 O2    s       0.000337      0.000347     -0.000025      0.000000
    232 O2    s       0.000165     -0.000232     -0.000607      0.000000
    233 O2    s       0.000261     -0.000223      0.000251      0.000000
    234 O2    s      -0.000248     -0.000248      0.000650      0.000000
    235 O2    s      -0.000409     -0.000075      0.000554      0.000000
    236 O2    s       0.000299      0.000307     -0.000084      0.000000
    237 O2    s      -0.000123      0.000008      0.001355      0.000000
    238 O2    s       0.000124      0.000219      0.000283      0.000000
    239 O2    s       0.000556      0.000107     -0.000391      0.000000
    240 O2    s      -0.000467     -0.000015      0.000730      0.000000
    241 O3    s       0.002300     -0.000597      0.002868      0.000000
    242 O2    s      -0.000188     -0.000030      0.000309      0.000000
    243 O2    s       0.000755      0.000330     -0.000415      0.000000
    244 O3    s       0.000849     -0.000634     -0.000622      0.000000
    245 O2    s       0.000384      0.000049     -0.000594      0.000000
    246 O2    s      -0.000185     -0.001021      0.000859      0.000000
    247 O2    s      -0.000280      0.000010      0.000136      0.000000
    248 O2    s       0.000322      0.000015     -0.000871      0.000000
    249 O2    s       0.000427      0.000757      0.001216      0.000000
    250 O3    s      -0.000957     -0.000803      0.001110      0.000000
    251 O2    s       0.000161      0.000657      0.001022      0.000000
    252 O2    s      -0.000285     -0.001018      0.000082      0.000000
    253 O2    s      -0.000017      0.000219     -0.000017      0.000000
    254 O2    s      -0.000345      0.000067      0.000327      0.000000
    255 O2    s       0.000442      0.000391      0.000207      0.000000
    256 O2    s       0.000280      0.000180      0.000047      0.000000
    257 O2    s      -0.000022     -0.000316     -0.000112      0.000000
    258 O2    s      -0.000269      0.000040      0.000373      0.000000
    259 O2    s      -0.000537      0.000145      0.000315      0.000000
    260 O2    s      -0.000309     -0.000212      0.000295      0.000000
    261 O2    s       0.000491      0.000278      0.000265      0.000000
    262 O2    s       0.000264     -0.000288      0.000121      0.000000
    263 O2    s       0.000012     -0.000285      0.000529      0.000000
    264 O2    s      -0.000198     -0.000042      0.000122      0.000000
    265 O2    s       0.000163     -0.000459     -0.000173      0.000000
    266 O2    s      -0.000288     -0.000073      0.000012      0.000000
    267 O2    s       0.000400     -0.000178     -0.000150      0.000000
    268 O2    s      -0.000307      0.000531      0.000994      0.000000
    269 O2    s       0.000019     -0.000338     -0.000066      0.000000
    270 O2    s      -0.000135     -0.000127      0.000396      0.000000
    271 O2    s      -0.000320     -0.000060      0.000419      0.000000
    272 O2    s      -0.000383     -0.000171      0.000886      0.000000
    273 O2    s       0.000214      0.000287      0.000487      0.000000
    274 O2    s       0.000585     -0.000802     -0.001621      0.000000
    275 O3    s      -0.000795     -0.000357     -0.001504      0.000000
    276 O2    s      -0.000234     -0.000358      0.000413      0.000000
    277 O2    s      -0.000510     -0.000216     -0.001385      0.000000
    278 O2    s      -0.000508      0.000052      0.000008      0.000000
    279 O2    s       0.000380      0.000313      0.000774      0.000000
    280 O3    s      -0.001380      0.000183      0.004373      0.000000
    281 O2    s       0.000550     -0.000336      0.000757      0.000000
    282 O2    s      -0.000324      0.000331     -0.000287      0.000000
    283 O2    s      -0.000107     -0.000006      0.000322      0.000000
    284 O2    s      -0.000100     -0.000239      0.000567      0.000000
    285 O2    s       0.000290     -0.000053      0.000173      0.000000
    286 O2    s       0.000316      0.000219     -0.000564      0.000000
    287 O2    s      -0.000198      0.000559     -0.000453      0.000000
    288 O2    s       0.000111     -0.000674      0.000367      0.000000
    289 O3    s       0.000664     -0.000185     -0.001737      0.000000
    290 O2    s      -0.000071     -0.000338      0.000519      0.000000
    291 O2    s       0.000148      0.000105     -0.000756      0.000000
    292 O2    s       0.000144     -0.000351     -0.000232      0.000000
    293 O2    s      -0.000304     -0.000233     -0.000693      0.000000
    294 O2    s      -0.000202      0.000160      0.001110      0.000000
    295 O2    s       0.000153     -0.000244     -0.000010      0.000000
    296 O2    s      -0.000605      0.000052     -0.000816      0.000000
    297 O2    s       0.000269     -0.000029      0.001053      0.000000
    298 O3    s       0.002993      0.001010      0.006724      0.000000
    299 O2    s       0.001081     -0.000826      0.002277      0.000000
    300 O2    s      -0.000429     -0.000258      0.000941      0.000000
    301 O2    s      -0.000001     -0.000414     -0.000294      0.000000
    302 O2    s       0.000859      0.000119     -0.000231      0.000000
    303 O1    s      -0.000326     -0.001191      0.004551      0.000000
    304 O2    s       0.000072      0.000488     -0.001003      0.000000
    305 O2    s       0.000013     -0.000187      0.000672      0.000000
    306 O2    s       0.000020     -0.000300      0.000671      0.000000
    307 F     s      -0.000205     -0.000022     -0.000282      0.000000
    308 F     s       0.000164      0.000101      0.000489      0.000000
    309 F     s      -0.001358      0.002672     -0.008030      0.000000
    310 F     s       0.000041     -0.000107     -0.000123      0.000000
    311 F     s      -0.000225      0.000115     -0.000560      0.000000
    312 F     s       0.000050      0.000262      0.000091      0.000000
--------------------------------------------------------------------------------
  Maximum abs         0.003017      0.002672      0.008030      0.000000
--------------------------------------------------------------------------------


  Time to end of optimisation =     418.8903 seconds


  Peak dynamic memory used =      19.13 MB 


  Timing analysis for GULP :

--------------------------------------------------------------------------------
  Task / Subroutine                                          Time (Seconds)
--------------------------------------------------------------------------------
  Calculation of reciprocal space energy and derivatives          9.8458
  Calculation of real space energy and derivatives              366.0449
  Calculation of three-body energy and derivatives               38.3480
  Calculation of matrix inversion                                 4.0949
  Global summation overhead                                       0.0010
--------------------------------------------------------------------------------
  Total CPU time                                                418.8904
--------------------------------------------------------------------------------


  Dump file written as out.res                                                 
  CIF file written as out.cif                                                 


  Job Finished at 06:55.20 16th November   2016                               

