********************************************************************************
*                       GENERAL UTILITY LATTICE PROGRAM                        *
*                                 Julian Gale                                  *
*                      Nanochemistry Research Institute                        *
*                           Department of Chemistry                            *
*                    Curtin University, Western Australia                      *
********************************************************************************
* Version = 4.2.0 * Last modified =  20th January 2014                         *
********************************************************************************
*  optimise     - perform optimisation run                                     *
*  conp         - constant pressure calculation                                *
*  qok          - running with non charge neutral cell is OK                   *
********************************************************************************

  Job Started  at 17:12.18 16th November   2016                               

  Number of CPUs =     1


  Total number of configurations input =   1

********************************************************************************
*  Input for Configuration =   1                                               *
********************************************************************************

  Formula = Si57Ge3O120F6                                               

  Number of irreducible atoms/shells =     312


  Total number atoms/shells =     312

  Dimensionality = 3               :  Bulk   


  Charge on solid   =  -6.000000 =>neutralising background added


  Cartesian lattice vectors (Angstroms) :

       11.970954    0.000000    0.000000
       -5.970199   10.385045    0.000000
       -0.128717    0.032998   29.498907

  Cell parameters (Angstroms/Degrees):

  a =      11.9710    alpha =  89.8198
  b =      11.9788    beta  =  90.2500
  c =      29.4992    gamma = 119.8939

  Initial cell volume =        3667.271544 Angs**3

  Temperature of configuration =  0.000     K 

  Pressure of configuration =         0.000 GPa 

  Fractional coordinates of asymmetric unit :

--------------------------------------------------------------------------------
   No.  Atomic       x           y          z         Charge      Occupancy
        Label      (Frac)      (Frac)     (Frac)        (e)         (Frac)  
--------------------------------------------------------------------------------
      1 Si    c    0.699600    0.375700    0.033890     4.00000    1.000000    
      2 Si    c    0.628480 *  0.325430 *  0.368672 *   4.00000    1.000000    
      3 Si    c    0.676689 *  0.285650 *  0.701597 *   4.00000    1.000000    
      4 Si    c    0.305470 *  0.618255 *  0.532798 *   4.00000    1.000000    
      5 Si    c    0.382775 *  0.666035 *  0.868416 *   4.00000    1.000000    
      6 Si    c    0.330755 *  0.704089 *  0.200796 *   4.00000    1.000000    
      7 Si    c    0.380526 *  0.703269 *  0.302132 *   4.00000    1.000000    
      8 Si    c    0.324060 *  0.615900 *  0.970505 *   4.00000    1.000000    
      9 Si    c    0.297368 *  0.667333 *  0.634972 *   4.00000    1.000000    
     10 Si    c    0.621658 *  0.284877 *  0.801998 *   4.00000    1.000000    
     11 Si    c    0.691496 *  0.380235 *  0.469589 *   4.00000    1.000000    
     12 Si    c    0.709247 *  0.326180 *  0.135428 *   4.00000    1.000000    
     13 Ge    c    0.530338 *  0.426063 *  0.967540 *   4.00000    1.000000    
     14 Si    c    0.584946 *  0.116577 *  0.302373 *   4.00000    1.000000    
     15 Si    c    0.877645 *  0.459720 *  0.635243 *   4.00000    1.000000    
     16 Si    c    0.482365 *  0.583707 *  0.469102 *   4.00000    1.000000    
     17 Si    c    0.419197 *  0.874859 *  0.802183 *   4.00000    1.000000    
     18 Si    c    0.120325 *  0.533473 *  0.135163 *   4.00000    1.000000    
     19 Si    c    0.423711 *  0.535153 *  0.368099 *   4.00000    1.000000    
     20 Si    c    0.111463 *  0.580122 *  0.033917 *   4.00000    1.000000    
     21 Si    c    0.469966 *  0.875655 *  0.701052 *   4.00000    1.000000    
     22 Si    c    0.594597 *  0.458119 *  0.868662 *   4.00000    1.000000    
     23 Ge    c    0.910008 *  0.428467 *  0.536364 *   4.00000    1.000000    
     24 Si    c    0.537474 *  0.115925 *  0.200508 *   4.00000    1.000000    
     25 Si    c    0.307581 *  0.384603 *  0.854798 *   4.00000    1.000000    
     26 Si    c    0.609561 *  0.906150 *  0.187370 *   4.00000    1.000000    
     27 Si    c    0.104334 *  0.700844 *  0.514773 *   4.00000    1.000000    
     28 Si    c    0.702207 *  0.601986 *  0.353323 *   4.00000    1.000000    
     29 Si    c    0.398564 *  0.084199 *  0.687100 *   4.00000    1.000000    
     30 Si    c    0.903945 *  0.300588 *  0.020072 *   4.00000    1.000000    
     31 Si    c    0.411661 *  0.304709 *  0.484283 *   4.00000    1.000000    
     32 Si    c    0.910706 *  0.604087 *  0.149299 *   4.00000    1.000000    
     33 Si    c    0.698591 *  0.083091 *  0.816226 *   4.00000    1.000000    
     34 Si    c    0.607308 *  0.698486 *  0.988864 *   4.00000    1.000000    
     35 Si    c    0.091382 *  0.386154 *  0.648841 *   4.00000    1.000000    
     36 Si    c    0.304876 *  0.906217 *  0.315320 *   4.00000    1.000000    
     37 Si    c    0.251143 *  0.328547 *  0.956893 *   4.00000    1.000000    
     38 Si    c    0.660012 *  0.913733 *  0.288447 *   4.00000    1.000000    
     39 Si    c    0.083864 *  0.739702 *  0.617707 *   4.00000    1.000000    
     40 Si    c    0.760313 *  0.662008 *  0.453487 *   4.00000    1.000000    
     41 Si    c    0.340498 *  0.075650 *  0.787633 *   4.00000    1.000000    
     42 Si    c    0.919009 *  0.255330 *  0.120568 *   4.00000    1.000000    
     43 Si    c    0.349630 *  0.258011 *  0.384017 *   4.00000    1.000000    
     44 Si    c    0.910794 *  0.657690 *  0.048455 *   4.00000    1.000000    
     45 Si    c    0.748889 *  0.076091 *  0.715699 *   4.00000    1.000000    
     46 Si    c    0.668250 *  0.738253 *  0.886005 *   4.00000    1.000000    
     47 Si    c    0.091757 *  0.330868 *  0.546689 *   4.00000    1.000000    
     48 Si    c    0.259248 *  0.913516 *  0.214295 *   4.00000    1.000000    
     49 Si    c    0.967147 *  0.118723 *  0.969318 *   4.00000    1.000000    
     50 Ge    c    0.882582 *  0.852906 *  0.302062 *   4.00000    1.000000    
     51 Si    c    0.153140 *  0.021431 *  0.635226 *   4.00000    1.000000    
     52 Si    c    0.041264 *  0.884151 *  0.467516 *   4.00000    1.000000    
     53 Si    c    0.123767 *  0.139551 *  0.802590 *   4.00000    1.000000    
     54 Si    c    0.857636 *  0.976447 *  0.136039 *   4.00000    1.000000    
     55 Si    c    0.131517 *  0.980437 *  0.367130 *   4.00000    1.000000    
     56 Si    c    0.853217 *  0.881458 *  0.035673 *   4.00000    1.000000    
     57 Si    c    0.029628 *  0.140512 *  0.700980 *   4.00000    1.000000    
     58 Si    c    0.881054 *  0.019969 *  0.868271 *   4.00000    1.000000    
     59 Si    c    0.166063 *  0.120932 *  0.534204 *   4.00000    1.000000    
     60 Si    c    0.981250 *  0.853235 *  0.199221 *   4.00000    1.000000    
     61 O2    c    0.931466 *  0.998208 *  0.001339 *   0.87073    1.000000    
     62 O3    c    0.012115 *  0.947668 *  0.335857 *   1.33043    1.000000    
     63 O2    c    0.072999 *  0.062298 *  0.668290 *   0.87073    1.000000    
     64 O2    c    0.081763 *  0.001446 *  0.501793 *   0.87073    1.000000    
     65 O2    c    0.002125 *  0.060667 *  0.835221 *   0.87073    1.000000    
     66 O2    c    0.939567 *  0.934589 *  0.167186 *   0.87073    1.000000    
     67 O2    c    0.344394 *  0.582243 *  0.335801 *   0.87073    1.000000    
     68 O2    c    0.417946 *  0.750034 *  0.668445 *   0.87073    1.000000    
     69 O2    c    0.236713 *  0.654643 *  0.000673 *   0.87073    1.000000    
     70 O2    c    0.664713 *  0.412406 *  0.831979 *   0.87073    1.000000    
     71 O2    c    0.586962 *  0.241281 *  0.168189 *   0.87073    1.000000    
     72 O3    c    0.773767 *  0.342661 *  0.500745 *   1.33043    1.000000    
     73 O3    c    0.579192 *  0.338405 *  0.003084 *   1.33043    1.000000    
     74 O2    c    0.761662 *  0.413770 *  0.671861 *   0.87073    1.000000    
     75 O2    c    0.663270 *  0.240259 *  0.335105 *   0.87073    1.000000    
     76 O2    c    0.431389 *  0.657967 *  0.502425 *   0.87073    1.000000    
     77 O2    c    0.246710 *  0.582505 *  0.167447 *   0.87073    1.000000    
     78 O2    c    0.345345 *  0.748964 *  0.834731 *   0.87073    1.000000    
     79 O2    c    0.118998 *  0.210556 *  0.975449 *   0.87073    1.000000    
     80 O3    c    0.783941 *  0.916970 *  0.310172 *   1.33043    1.000000    
     81 O2    c    0.088201 *  0.866713 *  0.638866 *   0.87073    1.000000    
     82 O2    c    0.888137 *  0.787879 *  0.473324 *   0.87073    1.000000    
     83 O2    c    0.212945 *  0.073820 *  0.807242 *   0.87073    1.000000    
     84 O2    c    0.919644 *  0.130053 *  0.141428 *   0.87073    1.000000    
     85 O2    c    0.225320 *  0.133615 *  0.363131 *   0.87073    1.000000    
     86 O2    c    0.908638 *  0.784132 *  0.029133 *   0.87073    1.000000    
     87 O2    c    0.874953 *  0.074908 *  0.696096 *   0.87073    1.000000    
     88 O2    c    0.791289 *  0.865212 *  0.864982 *   0.87073    1.000000    
     89 O2    c    0.105971 *  0.212922 *  0.528089 *   0.87073    1.000000    
     90 O2    c    0.134728 *  0.913701 *  0.192634 *   0.87073    1.000000    
     91 O3    c    0.945142 *  0.871253 *  0.248961 *   1.33043    1.000000    
     92 O2    c    0.147494 *  0.067131 *  0.585050 *   0.87073    1.000000    
     93 O2    c    0.932404 *  0.066556 *  0.918324 *   0.87073    1.000000    
     94 O2    c    0.072560 *  0.132141 *  0.751806 *   0.87073    1.000000    
     95 O2    c    0.871971 *  0.938036 *  0.085519 *   0.87073    1.000000    
     96 O2    c    0.077462 *  0.938989 *  0.417510 *   0.87073    1.000000    
     97 O2    c    0.896650 *  0.199396 *  0.981485 *   0.87073    1.000000    
     98 O3    c    0.798192 *  0.691493 *  0.314113 *   1.33043    1.000000    
     99 O2    c    0.303054 *  0.087736 *  0.648892 *   0.87073    1.000000    
    100 O2    c    0.121421 *  0.811972 *  0.479263 *   0.87073    1.000000    
    101 O2    c    0.209982 *  0.289845 *  0.815936 *   0.87073    1.000000    
    102 O2    c    0.706760 *  0.905429 *  0.149162 *   0.87073    1.000000    
    103 O2    c    0.206794 *  0.904844 *  0.353450 *   0.87073    1.000000    
    104 O2    c    0.700901 *  0.810054 *  0.024249 *   0.87073    1.000000    
    105 O2    c    0.093943 *  0.291016 *  0.687726 *   0.87073    1.000000    
    106 O2    c    0.797426 *  0.086270 *  0.854416 *   0.87073    1.000000    
    107 O2    c    0.317705 *  0.202814 *  0.522795 *   0.87073    1.000000    
    108 O2    c    0.909508 *  0.701366 *  0.187328 *   0.87073    1.000000    
    109 O2    c    0.326990 *  0.646281 *  0.251445 *   0.87073    1.000000    
    110 O2    c    0.350661 *  0.666051 *  0.584821 *   0.87073    1.000000    
    111 O2    c    0.327601 *  0.664510 *  0.918490 *   0.87073    1.000000    
    112 O2    c    0.676113 *  0.339406 *  0.751819 *   0.87073    1.000000    
    113 O2    c    0.651673 *  0.325510 *  0.085638 *   0.87073    1.000000    
    114 O2    c    0.686576 *  0.325601 *  0.418339 *   0.87073    1.000000    
    115 O3    c    0.363527 *  0.310808 *  0.976782 *   1.33043    1.000000    
    116 O2    c    0.670583 *  0.046717 *  0.305661 *   0.87073    1.000000    
    117 O2    c    0.952614 *  0.617972 *  0.636413 *   0.87073    1.000000    
    118 O2    c    0.638344 *  0.673163 *  0.472474 *   0.87073    1.000000    
    119 O2    c    0.331243 *  0.943019 *  0.805821 *   0.87073    1.000000    
    120 O2    c    0.051939 *  0.377374 *  0.138674 *   0.87073    1.000000    
    121 O2    c    0.337316 *  0.379133 *  0.365539 *   0.87073    1.000000    
    122 O2    c    0.044554 *  0.669333 *  0.030029 *   0.87073    1.000000    
    123 O2    c    0.625935 *  0.943687 *  0.697380 *   0.87073    1.000000    
    124 O2    c    0.677776 *  0.616360 *  0.867417 *   0.87073    1.000000    
    125 O3    c    0.961445 *  0.313085 *  0.526961 *   1.33043    1.000000    
    126 O2    c    0.381524 *  0.045955 *  0.196404 *   0.87073    1.000000    
    127 O2    c    0.770742 *  0.300747 *  0.013311 *   0.87073    1.000000    
    128 O2    c    0.701084 *  0.467788 *  0.346315 *   0.87073    1.000000    
    129 O2    c    0.533346 *  0.216151 *  0.679264 *   0.87073    1.000000    
    130 O2    c    0.237944 *  0.696144 *  0.512744 *   0.87073    1.000000    
    131 O2    c    0.311996 *  0.521099 *  0.848415 *   0.87073    1.000000    
    132 O2    c    0.475132 *  0.772764 *  0.179459 *   0.87073    1.000000    
    133 O2    c    0.304619 *  0.772040 *  0.323256 *   0.87073    1.000000    
    134 O2    c    0.468946 *  0.693698 *  0.990787 *   0.87073    1.000000    
    135 O2    c    0.223413 *  0.522385 *  0.655102 *   0.87073    1.000000    
    136 O2    c    0.695444 *  0.214926 *  0.824185 *   0.87073    1.000000    
    137 O2    c    0.545979 *  0.306864 *  0.490784 *   0.87073    1.000000    
    138 O2    c    0.778869 *  0.469316 *  0.157731 *   0.87073    1.000000    
    139 O2    c    0.787282 *  0.532451 *  0.028397 *   0.87073    1.000000    
    140 O2    c    0.473061 *  0.254302 *  0.364673 *   0.87073    1.000000    
    141 O2    c    0.749832 *  0.202566 *  0.696204 *   0.87073    1.000000    
    142 O2    c    0.215590 *  0.464221 *  0.529525 *   0.87073    1.000000    
    143 O2    c    0.537247 *  0.730084 *  0.867578 *   0.87073    1.000000    
    144 O2    c    0.257993 *  0.786889 *  0.195344 *   0.87073    1.000000    
    145 O2    c    0.535600 *  0.786281 *  0.307572 *   0.87073    1.000000    
    146 O2    c    0.260108 *  0.461890 *  0.973818 *   0.87073    1.000000    
    147 O2    c    0.206748 *  0.731316 *  0.635938 *   0.87073    1.000000    
    148 O2    c    0.465581 *  0.201801 *  0.807271 *   0.87073    1.000000    
    149 O2    c    0.760820 *  0.537165 *  0.473169 *   0.87073    1.000000    
    150 O2    c    0.792778 *  0.253733 *  0.140088 *   0.87073    1.000000    
    151 O2    c    0.240270 *  0.316250 *  0.901712 *   0.87073    1.000000    
    152 O2    c    0.681770 *  0.908484 *  0.234251 *   0.87073    1.000000    
    153 O2    c    0.087583 *  0.756375 *  0.563640 *   0.87073    1.000000    
    154 O2    c    0.776778 *  0.680766 *  0.398974 *   0.87073    1.000000    
    155 O2    c    0.324110 *  0.079267 *  0.733414 *   0.87073    1.000000    
    156 O2    c    0.914611 *  0.233163 *  0.066356 *   0.87073    1.000000    
    157 O2    c    0.332936 *  0.237034 *  0.438270 *   0.87073    1.000000    
    158 O2    c    0.910809 *  0.675773 *  0.102706 *   0.87073    1.000000    
    159 O2    c    0.768418 *  0.078702 *  0.769916 *   0.87073    1.000000    
    160 O2    c    0.680108 *  0.754368 *  0.940077 *   0.87073    1.000000    
    161 O2    c    0.090509 *  0.318221 *  0.601869 *   0.87073    1.000000    
    162 O2    c    0.235801 *  0.910270 *  0.268459 *   0.87073    1.000000    
    163 O3    c    0.599763 *  0.567963 *  0.002563 *   1.33043    1.000000    
    164 O2    c    0.442884 *  0.032439 *  0.324550 *   0.87073    1.000000    
    165 O2    c    0.969316 *  0.405607 *  0.655798 *   0.87073    1.000000    
    166 O2    c    0.423758 *  0.443577 *  0.493499 *   0.87073    1.000000    
    167 O2    c    0.560613 *  0.955921 *  0.825257 *   0.87073    1.000000    
    168 O2    c    0.037620 *  0.592203 *  0.158087 *   0.87073    1.000000    
    169 O2    c    0.564184 *  0.592381 *  0.344602 *   0.87073    1.000000    
    170 O2    c    0.030211 *  0.439225 *  0.010197 *   0.87073    1.000000    
    171 O2    c    0.409711 *  0.957111 *  0.677998 *   0.87073    1.000000    
    172 O2    c    0.449067 *  0.403990 *  0.847996 *   0.87073    1.000000    
    173 O3    c    0.981589 *  0.570344 *  0.501296 *   1.33043    1.000000    
    174 O2    c    0.596723 *  0.032342 *  0.178666 *   0.87073    1.000000    
    175 O2    c    0.586722 *  0.170027 *  0.251477 *   0.87073    1.000000    
    176 O3    c    0.816393 *  0.406035 *  0.587139 *   1.33043    1.000000    
    177 O3    c    0.602033 *  0.404132 *  0.916768 *   1.33043    1.000000    
    178 O2    c    0.416997 *  0.819863 *  0.751591 *   0.87073    1.000000    
    179 O2    c    0.171939 *  0.584705 *  0.083950 *   0.87073    1.000000    
    180 O2    c    0.425151 *  0.587770 *  0.419231 *   0.87073    1.000000    
    181 F     c    0.457357 *  0.907001 *  0.251470 *   0.56000    1.000000    
    182 F     c    0.054948 *  0.518797 *  0.574494 *   0.56000    1.000000    
    183 F     c    0.475972 *  0.516792 *  0.929262 *   0.56000    1.000000    
    184 F     c    0.545711 *  0.077789 *  0.751650 *   0.56000    1.000000    
    185 F     c    0.916146 *  0.456371 *  0.084472 *   0.56000    1.000000    
    186 F     c    0.554489 *  0.460995 *  0.418705 *   0.56000    1.000000    
    187 O2    s    0.926688 *  0.998789 *  0.001549 *  -2.87073    1.000000    
    188 O3    s    0.013988 *  0.943029 *  0.336356 *  -3.33043    1.000000    
    189 O2    s    0.076914 *  0.066508 *  0.668316 *  -2.87073    1.000000    
    190 O2    s    0.086826 *  0.001862 *  0.501644 *  -2.87073    1.000000    
    191 O2    s    0.002424 *  0.064957 *  0.835197 *  -2.87073    1.000000    
    192 O2    s    0.934818 *  0.930322 *  0.167172 *  -2.87073    1.000000    
    193 O2    s    0.356072 *  0.589789 *  0.335633 *  -2.87073    1.000000    
    194 O2    s    0.410498 *  0.754052 *  0.668215 *  -2.87073    1.000000    
    195 O2    s    0.233760 *  0.643191 *  0.000692 *  -2.87073    1.000000    
    196 O2    s    0.653041 *  0.403562 *  0.832513 *  -2.87073    1.000000    
    197 O2    s    0.594409 *  0.237007 *  0.168167 *  -2.87073    1.000000    
    198 O3    s    0.774295 *  0.352812 *  0.499824 *  -3.33043    1.000000    
    199 O3    s    0.588950 *  0.348616 *  0.003967 *  -3.33043    1.000000    
    200 O2    s    0.764468 *  0.404910 *  0.671302 *  -2.87073    1.000000    
    201 O2    s    0.651541 *  0.236230 *  0.335184 *  -2.87073    1.000000    
    202 O2    s    0.422939 *  0.646458 *  0.502423 *  -2.87073    1.000000    
    203 O2    s    0.242471 *  0.589940 *  0.167584 *  -2.87073    1.000000    
    204 O2    s    0.356790 *  0.752991 *  0.834987 *  -2.87073    1.000000    
    205 O2    s    0.116432 *  0.213240 *  0.972730 *  -2.87073    1.000000    
    206 O3    s    0.779664 *  0.911288 *  0.307321 *  -3.33043    1.000000    
    207 O2    s    0.094602 *  0.869901 *  0.636317 *  -2.87073    1.000000    
    208 O2    s    0.891346 *  0.785289 *  0.470730 *  -2.87073    1.000000    
    209 O2    s    0.216644 *  0.080928 *  0.804760 *  -2.87073    1.000000    
    210 O2    s    0.912953 *  0.126578 *  0.138727 *  -2.87073    1.000000    
    211 O2    s    0.228461 *  0.130327 *  0.365773 *  -2.87073    1.000000    
    212 O2    s    0.902982 *  0.781587 *  0.031759 *  -2.87073    1.000000    
    213 O2    s    0.878296 *  0.081933 *  0.698601 *  -2.87073    1.000000    
    214 O2    s    0.788054 *  0.868420 *  0.867475 *  -2.87073    1.000000    
    215 O2    s    0.111225 *  0.215614 *  0.530817 *  -2.87073    1.000000    
    216 O2    s    0.131525 *  0.907303 *  0.195556 *  -2.87073    1.000000    
    217 O3    s    0.943527 *  0.867628 *  0.248215 *  -3.33043    1.000000    
    218 O2    s    0.150191 *  0.067790 *  0.585222 *  -2.87073    1.000000    
    219 O2    s    0.930308 *  0.066926 *  0.918179 *  -2.87073    1.000000    
    220 O2    s    0.073461 *  0.133866 *  0.751798 *  -2.87073    1.000000    
    221 O2    s    0.868179 *  0.935824 *  0.085453 *  -2.87073    1.000000    
    222 O2    s    0.079282 *  0.937199 *  0.417748 *  -2.87073    1.000000    
    223 O2    s    0.904937 *  0.200706 *  0.983974 *  -2.87073    1.000000    
    224 O3    s    0.795986 *  0.696344 *  0.316887 *  -3.33043    1.000000    
    225 O2    s    0.296900 *  0.080206 *  0.651439 *  -2.87073    1.000000    
    226 O2    s    0.111318 *  0.808161 *  0.481685 *  -2.87073    1.000000    
    227 O2    s    0.210860 *  0.283680 *  0.818495 *  -2.87073    1.000000    
    228 O2    s    0.712810 *  0.912999 *  0.151657 *  -2.87073    1.000000    
    229 O2    s    0.208917 *  0.912883 *  0.350976 *  -2.87073    1.000000    
    230 O2    s    0.707258 *  0.806150 *  0.021821 *  -2.87073    1.000000    
    231 O2    s    0.086907 *  0.284879 *  0.685154 *  -2.87073    1.000000    
    232 O2    s    0.796070 *  0.078760 *  0.851886 *  -2.87073    1.000000    
    233 O2    s    0.310761 *  0.204083 *  0.520241 *  -2.87073    1.000000    
    234 O2    s    0.917136 *  0.707353 *  0.184711 *  -2.87073    1.000000    
    235 O2    s    0.332741 *  0.657789 *  0.251463 *  -2.87073    1.000000    
    236 O2    s    0.340523 *  0.661400 *  0.584896 *  -2.87073    1.000000    
    237 O2    s    0.333053 *  0.659807 *  0.918425 *  -2.87073    1.000000    
    238 O2    s    0.670360 *  0.327844 *  0.751811 *  -2.87073    1.000000    
    239 O2    s    0.662568 *  0.330599 *  0.085755 *  -2.87073    1.000000    
    240 O2    s    0.680932 *  0.330993 *  0.418162 *  -2.87073    1.000000    
    241 O3    s    0.362644 *  0.320507 *  0.973977 *  -3.33043    1.000000    
    242 O2    s    0.660350 *  0.040011 *  0.303464 *  -2.87073    1.000000    
    243 O2    s    0.959164 *  0.615465 *  0.634324 *  -2.87073    1.000000    
    244 O2    s    0.634687 *  0.662888 *  0.470203 *  -2.87073    1.000000    
    245 O2    s    0.341248 *  0.949685 *  0.803558 *  -2.87073    1.000000    
    246 O2    s    0.045072 *  0.380621 *  0.136412 *  -2.87073    1.000000    
    247 O2    s    0.347534 *  0.382608 *  0.367751 *  -2.87073    1.000000    
    248 O2    s    0.037890 *  0.659032 *  0.032296 *  -2.87073    1.000000    
    249 O2    s    0.622570 *  0.950331 *  0.699656 *  -2.87073    1.000000    
    250 O2    s    0.668726 *  0.613883 *  0.869503 *  -2.87073    1.000000    
    251 O3    s    0.972000 *  0.322808 *  0.529754 *  -3.33043    1.000000    
    252 O2    s    0.384778 *  0.039247 *  0.198722 *  -2.87073    1.000000    
    253 O2    s    0.778225 *  0.308223 *  0.016143 *  -2.87073    1.000000    
    254 O2    s    0.693549 *  0.467098 *  0.349455 *  -2.87073    1.000000    
    255 O2    s    0.533822 *  0.209276 *  0.682432 *  -2.87073    1.000000    
    256 O2    s    0.231459 *  0.688446 *  0.515090 *  -2.87073    1.000000    
    257 O2    s    0.318947 *  0.522062 *  0.851183 *  -2.87073    1.000000    
    258 O2    s    0.474374 *  0.779630 *  0.182499 *  -2.87073    1.000000    
    259 O2    s    0.312409 *  0.778979 *  0.320226 *  -2.87073    1.000000    
    260 O2    s    0.467783 *  0.686016 *  0.988428 *  -2.87073    1.000000    
    261 O2    s    0.217400 *  0.523360 *  0.652336 *  -2.87073    1.000000    
    262 O2    s    0.688122 *  0.208091 *  0.821014 *  -2.87073    1.000000    
    263 O2    s    0.545633 *  0.313916 *  0.487937 *  -2.87073    1.000000    
    264 O2    s    0.785632 *  0.468844 *  0.154533 *  -2.87073    1.000000    
    265 O2    s    0.792478 *  0.530841 *  0.031110 *  -2.87073    1.000000    
    266 O2    s    0.475991 *  0.262356 *  0.367203 *  -2.87073    1.000000    
    267 O2    s    0.742130 *  0.197359 *  0.698824 *  -2.87073    1.000000    
    268 O2    s    0.212434 *  0.467220 *  0.531642 *  -2.87073    1.000000    
    269 O2    s    0.534593 *  0.723989 *  0.869624 *  -2.87073    1.000000    
    270 O2    s    0.265928 *  0.792042 *  0.197965 *  -2.87073    1.000000    
    271 O2    s    0.532545 *  0.791309 *  0.304946 *  -2.87073    1.000000    
    272 O2    s    0.266307 *  0.464907 *  0.971720 *  -2.87073    1.000000    
    273 O2    s    0.203316 *  0.725246 *  0.633897 *  -2.87073    1.000000    
    274 O2    s    0.468103 *  0.196624 *  0.804647 *  -2.87073    1.000000    
    275 O2    s    0.753656 *  0.535284 *  0.470669 *  -2.87073    1.000000    
    276 O2    s    0.797892 *  0.261585 *  0.137500 *  -2.87073    1.000000    
    277 O2    s    0.248693 *  0.324902 *  0.902105 *  -2.87073    1.000000    
    278 O2    s    0.672082 *  0.908721 *  0.234885 *  -2.87073    1.000000    
    279 O2    s    0.088735 *  0.749117 *  0.564839 *  -2.87073    1.000000    
    280 O2    s    0.767581 *  0.670985 *  0.400011 *  -2.87073    1.000000    
    281 O2    s    0.333670 *  0.079384 *  0.734353 *  -2.87073    1.000000    
    282 O2    s    0.913998 *  0.242510 *  0.067223 *  -2.87073    1.000000    
    283 O2    s    0.342883 *  0.246320 *  0.437374 *  -2.87073    1.000000    
    284 O2    s    0.910815 *  0.666327 *  0.101854 *  -2.87073    1.000000    
    285 O2    s    0.758988 *  0.078867 *  0.768975 *  -2.87073    1.000000    
    286 O2    s    0.671765 *  0.747135 *  0.938862 *  -2.87073    1.000000    
    287 O2    s    0.090704 *  0.326860 *  0.601480 *  -2.87073    1.000000    
    288 O2    s    0.245402 *  0.910164 *  0.267696 *  -2.87073    1.000000    
    289 O3    s    0.595700 *  0.572610 *  0.998738 *  -3.33043    1.000000    
    290 O2    s    0.442827 *  0.027445 *  0.321228 *  -2.87073    1.000000    
    291 O2    s    0.973886 *  0.408902 *  0.652997 *  -2.87073    1.000000    
    292 O2    s    0.428602 *  0.443325 *  0.490042 *  -2.87073    1.000000    
    293 O2    s    0.560448 *  0.961054 *  0.821871 *  -2.87073    1.000000    
    294 O2    s    0.032491 *  0.587184 *  0.154751 *  -2.87073    1.000000    
    295 O2    s    0.564203 *  0.587306 *  0.347981 *  -2.87073    1.000000    
    296 O2    s    0.025176 *  0.439126 *  0.013663 *  -2.87073    1.000000    
    297 O2    s    0.414961 *  0.962201 *  0.681389 *  -2.87073    1.000000    
    298 O2    s    0.447739 *  0.407283 *  0.850788 *  -2.87073    1.000000    
    299 O3    s    0.990340 *  0.574980 *  0.505115 *  -3.33043    1.000000    
    300 O2    s    0.591771 *  0.027315 *  0.181884 *  -2.87073    1.000000    
    301 O2    s    0.581433 *  0.158897 *  0.251478 *  -2.87073    1.000000    
    302 O3    s    0.829064 *  0.413262 *  0.588969 *  -3.33043    1.000000    
    303 O3    s    0.596583 *  0.411362 *  0.914924 *  -3.33043    1.000000    
    304 O2    s    0.422686 *  0.831290 *  0.751599 *  -2.87073    1.000000    
    305 O2    s    0.160484 *  0.579010 *  0.084032 *  -2.87073    1.000000    
    306 O2    s    0.430853 *  0.582014 *  0.419139 *  -2.87073    1.000000    
    307 F     s    0.457258 *  0.906709 *  0.251487 *  -1.56000    1.000000    
    308 F     s    0.045192 *  0.512884 *  0.572034 *  -1.56000    1.000000    
    309 F     s    0.479796 *  0.510889 *  0.931723 *  -1.56000    1.000000    
    310 F     s    0.545600 *  0.077556 *  0.751646 *  -1.56000    1.000000    
    311 F     s    0.916780 *  0.456618 *  0.084457 *  -1.56000    1.000000    
    312 F     s    0.554253 *  0.461455 *  0.418684 *  -1.56000    1.000000    
--------------------------------------------------------------------------------



********************************************************************************
*  General input information                                                   *
********************************************************************************

  Species output for all configurations : 

--------------------------------------------------------------------------------
  Species    Type    Atomic    Atomic    Charge       Radii (Angs)     Library
                     Number     Mass       (e)     Cova   Ionic  VDW   Symbol
--------------------------------------------------------------------------------
    Si       Core       14      28.09   4.000000   1.200  0.000  2.100          
    O1       Core        8      16.00   1.733957   0.730  0.000  1.360          
    O1       Shell       8       0.00  -3.733957   0.730  0.000  1.360          
    O2       Core        8      16.00   0.870733   0.730  0.000  1.360          
    O2       Shell       8       0.00  -2.870733   0.730  0.000  1.360          
    O3       Core        8      16.00   1.330431   0.730  0.000  1.360          
    O3       Shell       8       0.00  -3.330431   0.730  0.000  1.360          
    F        Core        9      19.00   0.560000   0.710  0.000  1.300          
    F        Shell       9       0.00  -1.560000   0.710  0.000  1.300          
    Ge       Core       32      72.61   4.000000   1.170  0.000  1.750          
--------------------------------------------------------------------------------


  Lattice summation method               =    Ewald          (3-D)
                                         =    Parry          (2-D)
                                         =    Saunders et al (1-D)
  Accuracy factor for lattice sums       =   12.000


  Time limit = Infinity

  Maximum range for interatomic potentials =        16.000000 Angstroms

  Taper potentials to zero over   1.0000 Angstroms using polynomial

  General interatomic potentials :

--------------------------------------------------------------------------------
Atom  Types   Potential         A         B         C         D     Cutoffs(Ang)
  1     2                                                            Min    Max 
--------------------------------------------------------------------------------
Si   c O1   s Buckingham    0.132E+04 0.318      10.1      0.00     0.000 16.000
Si   c O2   s Buckingham    0.132E+04 0.318      10.1      0.00     0.000 16.000
Si   c O3   s Buckingham    0.132E+04 0.318      10.1      0.00     0.000 16.000
Ge   c O1   s Buckingham    0.150E+04 0.326      16.8      0.00     0.000 16.000
Ge   c O2   s Buckingham    0.150E+04 0.326      16.8      0.00     0.000 16.000
Ge   c O3   s Buckingham    0.150E+04 0.326      16.8      0.00     0.000 16.000
O1   s O1   s Buckingham    0.228E+05 0.149      10.9      0.00     0.000 16.000
O1   s O2   s Buckingham    0.228E+05 0.149      10.9      0.00     0.000 16.000
O1   s O3   s Buckingham    0.228E+05 0.149      10.9      0.00     0.000 16.000
O2   s O2   s Buckingham    0.228E+05 0.149      10.9      0.00     0.000 16.000
O2   s O3   s Buckingham    0.228E+05 0.149      10.9      0.00     0.000 16.000
O3   s O3   s Buckingham    0.228E+05 0.149      10.9      0.00     0.000 16.000
Si   c F    s Buckingham     977.     0.282      0.00      0.00     0.000 16.000
Ge   c F    s Buckingham     681.     0.320      0.00      0.00     0.000 16.000
F    s F    s Buckingham     540.     0.262      0.00      0.00     0.000 16.000
O1   s F    s Buckingham    0.168E+04 0.268      0.00      0.00     0.000 16.000
O2   s F    s Buckingham    0.168E+04 0.268      0.00      0.00     0.000 16.000
O3   s F    s Buckingham    0.168E+04 0.268      0.00      0.00     0.000 16.000
O2   c O2   s Spring (c-s)   76.0      0.00      0.00      0.00     0.000  0.800
O3   c O3   s Spring (c-s)   128.      0.00      0.00      0.00     0.000  0.800
O1   c O1   s Spring (c-s)   180.      0.00      0.00      0.00     0.000  0.800
F    c F    s Spring (c-s)   33.5      0.00      0.00      0.00     0.000  0.800
--------------------------------------------------------------------------------

  General Three-body potentials :

  Harmonic form:

--------------------------------------------------------------------------------
Atom    Atom    Atom           Force Constants            Theta     Cutoffs  
  1       2       3     (eVrad**-2/eVrad**-3/eVrad**-4)   (deg)  1-2  1-3  2-3
--------------------------------------------------------------------------------
Si    c O1    s O1    s  1.261        0.0000    0.0000   109.470 0.00 0.00 0.00
                                                                 1.90 1.90 3.50
Si    c O1    s O2    s  1.261        0.0000    0.0000   109.470 0.00 0.00 0.00
                                                                 1.90 1.90 3.50
Si    c O2    s O2    s  1.261        0.0000    0.0000   109.470 0.00 0.00 0.00
                                                                 1.90 1.90 3.50
--------------------------------------------------------------------------------

********************************************************************************
*  Output for configuration   1                                                *
********************************************************************************


  Components of energy : 

--------------------------------------------------------------------------------
  Interatomic potentials     =        2064.13409671 eV
  Three-body potentials      =           0.45883821 eV
  Monopole - monopole (real) =       -6616.53317420 eV
  Monopole - monopole (recip)=       -3168.32421038 eV
  Monopole - monopole (total)=       -9784.85738458 eV
  Neutralising energy        =          -6.45388053 eV
--------------------------------------------------------------------------------
  Total lattice energy       =       -7726.71833020 eV
--------------------------------------------------------------------------------
  Total lattice energy       =         -745510.2052 kJ/(mole unit cells)
--------------------------------------------------------------------------------


  Number of variables =      939

  Maximum number of calculations  =          5000
  Maximum Hessian update interval =            10
  Maximum step size               =   0.100000000
  Maximum parameter tolerance     =   0.000010000
  Maximum function  tolerance     =   0.000010000
  Maximum gradient  tolerance     =   0.001000000
  Maximum gradient  component     =   0.010000000

  Symmetry not applied to optimisation

  Cell parameters to be optimised using strains

  Newton-Raphson optimiser to be used

  BFGS hessian update to be used

  Dumpfile to be written after every cycle

  Start of bulk optimisation :

  Cycle:      0 Energy:     -7726.718330  Gnorm:      0.000206  CPU:    2.020
  ** Hessian calculated **
  Cycle:      1 Energy:     -7726.720886  Gnorm:      0.000124  CPU:    6.718
  Cycle:      2 Energy:     -7726.721527  Gnorm:      0.000097  CPU:   11.030
  Cycle:      3 Energy:     -7726.721688  Gnorm:      0.000059  CPU:   15.342
  Cycle:      4 Energy:     -7726.721716  Gnorm:      0.000043  CPU:   18.247
  Cycle:      5 Energy:     -7726.721729  Gnorm:      0.000030  CPU:   21.152


  **** Optimisation achieved ****


  Final energy =   -7726.72173605 eV
  Final Gnorm  =       0.00002143

  Components of energy : 

--------------------------------------------------------------------------------
  Interatomic potentials     =        2064.10562634 eV
  Three-body potentials      =           0.46099902 eV
  Monopole - monopole (real) =       -6616.68060244 eV
  Monopole - monopole (recip)=       -3168.15422474 eV
  Monopole - monopole (total)=       -9784.83482719 eV
  Neutralising energy        =          -6.45353422 eV
--------------------------------------------------------------------------------
  Total lattice energy       =       -7726.72173605 eV
--------------------------------------------------------------------------------
  Total lattice energy       =         -745510.5338 kJ/(mole unit cells)
--------------------------------------------------------------------------------

  Final fractional coordinates of atoms :

--------------------------------------------------------------------------------
   No.  Atomic        x           y          z          Radius
        Label       (Frac)      (Frac)     (Frac)       (Angs) 
--------------------------------------------------------------------------------
     1  Si    c     0.699600    0.375700    0.033890    0.000000
     2  Si    c     0.629555    0.323905    0.368418    0.000000
     3  Si    c     0.675706    0.281742    0.701322    0.000000
     4  Si    c     0.305186    0.614857    0.532453    0.000000
     5  Si    c     0.381967    0.662292    0.868036    0.000000
     6  Si    c     0.331976    0.703174    0.200432    0.000000
     7  Si    c     0.381760    0.701711    0.301765    0.000000
     8  Si    c     0.323425    0.613225    0.970155    0.000000
     9  Si    c     0.296553    0.663445    0.634625    0.000000
    10  Si    c     0.620240    0.280806    0.801722    0.000000
    11  Si    c     0.691934    0.378100    0.469356    0.000000
    12  Si    c     0.710445    0.325987    0.135366    0.000000
    13  Ge    c     0.528787    0.422999    0.967321    0.000000
    14  Si    c     0.586334    0.115169    0.302214    0.000000
    15  Si    c     0.876888    0.455837    0.634979    0.000000
    16  Si    c     0.482794    0.581370    0.468753    0.000000
    17  Si    c     0.417912    0.870764    0.801760    0.000000
    18  Si    c     0.121471    0.532762    0.134757    0.000000
    19  Si    c     0.424739    0.533361    0.367720    0.000000
    20  Si    c     0.111422    0.578774    0.033556    0.000000
    21  Si    c     0.469010    0.871691    0.700679    0.000000
    22  Si    c     0.593353    0.454117    0.868482    0.000000
    23  Ge    c     0.909842    0.425043    0.536115    0.000000
    24  Si    c     0.539051    0.115225    0.200389    0.000000
    25  Si    c     0.306398    0.380730    0.854554    0.000000
    26  Si    c     0.610855    0.905311    0.187232    0.000000
    27  Si    c     0.104002    0.697358    0.514386    0.000000
    28  Si    c     0.703374    0.600465    0.352985    0.000000
    29  Si    c     0.397665    0.080246    0.686806    0.000000
    30  Si    c     0.903400    0.299536    0.019728    0.000000
    31  Si    c     0.412041    0.302383    0.484030    0.000000
    32  Si    c     0.912242    0.603745    0.149097    0.000000
    33  Si    c     0.697133    0.078935    0.815827    0.000000
    34  Si    c     0.606440    0.695526    0.988755    0.000000
    35  Si    c     0.090629    0.382265    0.648510    0.000000
    36  Si    c     0.306329    0.904777    0.315092    0.000000
    37  Si    c     0.249810    0.325567    0.956702    0.000000
    38  Si    c     0.661290    0.912313    0.288260    0.000000
    39  Si    c     0.083096    0.735871    0.617334    0.000000
    40  Si    c     0.760723    0.659810    0.453212    0.000000
    41  Si    c     0.339134    0.071495    0.787300    0.000000
    42  Si    c     0.919808    0.254617    0.120197    0.000000
    43  Si    c     0.350618    0.256205    0.383716    0.000000
    44  Si    c     0.911565    0.657156    0.048293    0.000000
    45  Si    c     0.747889    0.072091    0.715344    0.000000
    46  Si    c     0.667336    0.734472    0.885843    0.000000
    47  Si    c     0.091485    0.327424    0.546330    0.000000
    48  Si    c     0.260747    0.912804    0.214109    0.000000
    49  Si    c     0.965502    0.116816    0.968955    0.000000
    50  Ge    c     0.883842    0.851558    0.301763    0.000000
    51  Si    c     0.152453    0.017694    0.634899    0.000000
    52  Si    c     0.041789    0.881389    0.467173    0.000000
    53  Si    c     0.122542    0.135571    0.802325    0.000000
    54  Si    c     0.858764    0.975744    0.135732    0.000000
    55  Si    c     0.132681    0.978520    0.366885    0.000000
    56  Si    c     0.852424    0.879627    0.035408    0.000000
    57  Si    c     0.028675    0.136520    0.700666    0.000000
    58  Si    c     0.879829    0.016423    0.868028    0.000000
    59  Si    c     0.166451    0.118052    0.533931    0.000000
    60  Si    c     0.982885    0.853057    0.198898    0.000000
    61  O2    c     0.929161    0.996102    0.000888    0.000000
    62  O3    c     0.013515    0.945859    0.335519    0.000000
    63  O2    c     0.072095    0.058273    0.667997    0.000000
    64  O2    c     0.082781    0.998570    0.501502    0.000000
    65  O2    c     0.000920    0.056843    0.834991    0.000000
    66  O2    c     0.941554    0.934330    0.166637    0.000000
    67  O2    c     0.345578    0.580499    0.335359    0.000000
    68  O2    c     0.417082    0.746095    0.668091    0.000000
    69  O2    c     0.236404    0.652698    0.000166    0.000000
    70  O2    c     0.663280    0.408205    0.831781    0.000000
    71  O2    c     0.588436    0.240849    0.168209    0.000000
    72  O3    c     0.773656    0.339841    0.500500    0.000000
    73  O3    c     0.578750    0.337003    0.003200    0.000000
    74  O2    c     0.760882    0.409897    0.671609    0.000000
    75  O2    c     0.664624    0.238809    0.334935    0.000000
    76  O2    c     0.431275    0.655094    0.502105    0.000000
    77  O2    c     0.247999    0.581848    0.166972    0.000000
    78  O2    c     0.344259    0.744838    0.834287    0.000000
    79  O2    c     0.117364    0.208100    0.975252    0.000000
    80  O3    c     0.785033    0.915360    0.310048    0.000000
    81  O2    c     0.087401    0.862945    0.638426    0.000000
    82  O2    c     0.888601    0.785632    0.473020    0.000000
    83  O2    c     0.211556    0.069640    0.806910    0.000000
    84  O2    c     0.920639    0.129377    0.141003    0.000000
    85  O2    c     0.226328    0.131726    0.362893    0.000000
    86  O2    c     0.909161    0.783399    0.028913    0.000000
    87  O2    c     0.874015    0.070968    0.695763    0.000000
    88  O2    c     0.790580    0.861567    0.864959    0.000000
    89  O2    c     0.105903    0.209614    0.527730    0.000000
    90  O2    c     0.136418    0.913478    0.192515    0.000000
    91  O3    c     0.946051    0.870979    0.248549    0.000000
    92  O2    c     0.147496    0.064076    0.584765    0.000000
    93  O2    c     0.931083    0.064491    0.917976    0.000000
    94  O2    c     0.071402    0.128237    0.751534    0.000000
    95  O2    c     0.871804    0.936866    0.085153    0.000000
    96  O2    c     0.078262    0.936597    0.417209    0.000000
    97  O2    c     0.895506    0.198036    0.981104    0.000000
    98  O3    c     0.799538    0.690097    0.313810    0.000000
    99  O2    c     0.302267    0.083874    0.648604    0.000000
   100  O2    c     0.121321    0.808537    0.478857    0.000000
   101  O2    c     0.208868    0.285797    0.815727    0.000000
   102  O2    c     0.708121    0.904555    0.149081    0.000000
   103  O2    c     0.208213    0.903156    0.353261    0.000000
   104  O2    c     0.699966    0.806958    0.024178    0.000000
   105  O2    c     0.093083    0.286999    0.687367    0.000000
   106  O2    c     0.795845    0.082133    0.854016    0.000000
   107  O2    c     0.318100    0.200434    0.522553    0.000000
   108  O2    c     0.911354    0.701146    0.187130    0.000000
   109  O2    c     0.328255    0.645113    0.251040    0.000000
   110  O2    c     0.350077    0.662236    0.584515    0.000000
   111  O2    c     0.326772    0.661097    0.918062    0.000000
   112  O2    c     0.674830    0.335358    0.751546    0.000000
   113  O2    c     0.652451    0.325821    0.085722    0.000000
   114  O2    c     0.687403    0.323895    0.418085    0.000000
   115  O3    c     0.362032    0.307510    0.976578    0.000000
   116  O2    c     0.671936    0.045286    0.305518    0.000000
   117  O2    c     0.951927    0.614123    0.636108    0.000000
   118  O2    c     0.638751    0.670994    0.472201    0.000000
   119  O2    c     0.329859    0.938815    0.805448    0.000000
   120  O2    c     0.052875    0.376629    0.138224    0.000000
   121  O2    c     0.338360    0.377329    0.365187    0.000000
   122  O2    c     0.044986    0.668459    0.029673    0.000000
   123  O2    c     0.624976    0.939723    0.697012    0.000000
   124  O2    c     0.676649    0.612418    0.867259    0.000000
   125  O3    c     0.961157    0.309576    0.526629    0.000000
   126  O2    c     0.383126    0.045222    0.196269    0.000000
   127  O2    c     0.770561    0.300435    0.013274    0.000000
   128  O2    c     0.702219    0.466241    0.346030    0.000000
   129  O2    c     0.532421    0.212245    0.678984    0.000000
   130  O2    c     0.237679    0.692802    0.512463    0.000000
   131  O2    c     0.311196    0.517357    0.848045    0.000000
   132  O2    c     0.476437    0.772051    0.179167    0.000000
   133  O2    c     0.305919    0.770493    0.322927    0.000000
   134  O2    c     0.468269    0.691175    0.990424    0.000000
   135  O2    c     0.222565    0.518528    0.654797    0.000000
   136  O2    c     0.693937    0.210725    0.823839    0.000000
   137  O2    c     0.546377    0.304647    0.490515    0.000000
   138  O2    c     0.780450    0.469060    0.157707    0.000000
   139  O2    c     0.787509    0.532214    0.028339    0.000000
   140  O2    c     0.474152    0.252700    0.364365    0.000000
   141  O2    c     0.748797    0.198614    0.695922    0.000000
   142  O2    c     0.215271    0.460824    0.529147    0.000000
   143  O2    c     0.536455    0.726342    0.867303    0.000000
   144  O2    c     0.259381    0.786167    0.195103    0.000000
   145  O2    c     0.536784    0.784710    0.307257    0.000000
   146  O2    c     0.259459    0.459214    0.973635    0.000000
   147  O2    c     0.205974    0.727483    0.635551    0.000000
   148  O2    c     0.464172    0.197647    0.806940    0.000000
   149  O2    c     0.761227    0.535014    0.472969    0.000000
   150  O2    c     0.793863    0.253384    0.139811    0.000000
   151  O2    c     0.238989    0.312971    0.901529    0.000000
   152  O2    c     0.683092    0.907361    0.234062    0.000000
   153  O2    c     0.086759    0.752512    0.563269    0.000000
   154  O2    c     0.777555    0.678876    0.398715    0.000000
   155  O2    c     0.322953    0.075175    0.733081    0.000000
   156  O2    c     0.914686    0.232361    0.065987    0.000000
   157  O2    c     0.333669    0.234991    0.437956    0.000000
   158  O2    c     0.912076    0.675499    0.102540    0.000000
   159  O2    c     0.767155    0.074582    0.769560    0.000000
   160  O2    c     0.679252    0.750691    0.939907    0.000000
   161  O2    c     0.090035    0.314613    0.601510    0.000000
   162  O2    c     0.237309    0.909228    0.268278    0.000000
   163  O3    c     0.598105    0.564742    0.002460    0.000000
   164  O2    c     0.444282    0.030932    0.324397    0.000000
   165  O2    c     0.968504    0.401612    0.655491    0.000000
   166  O2    c     0.424119    0.441252    0.493180    0.000000
   167  O2    c     0.559234    0.951734    0.824868    0.000000
   168  O2    c     0.039154    0.591805    0.157780    0.000000
   169  O2    c     0.565297    0.590697    0.344263    0.000000
   170  O2    c     0.029858    0.437977    0.009802    0.000000
   171  O2    c     0.408804    0.953186    0.677631    0.000000
   172  O2    c     0.447812    0.399879    0.847842    0.000000
   173  O3    c     0.981477    0.566775    0.500930    0.000000
   174  O2    c     0.598372    0.031729    0.178515    0.000000
   175  O2    c     0.588249    0.168969    0.251373    0.000000
   176  O3    c     0.815895    0.402277    0.586865    0.000000
   177  O3    c     0.600502    0.400309    0.916643    0.000000
   178  O2    c     0.415817    0.815767    0.751186    0.000000
   179  O2    c     0.172637    0.583707    0.083483    0.000000
   180  O2    c     0.425899    0.585784    0.418861    0.000000
   181  F     c     0.458917    0.906020    0.251242    0.000000
   182  F     c     0.054480    0.515145    0.574214    0.000000
   183  F     c     0.474816    0.513448    0.929000    0.000000
   184  F     c     0.544379    0.073547    0.751310    0.000000
   185  F     c     0.917210    0.456436    0.084229    0.000000
   186  F     c     0.555267    0.459211    0.418438    0.000000
   187  O2    s     0.924609    0.996738    0.001132    0.000000
   188  O3    s     0.015331    0.941234    0.336029    0.000000
   189  O2    s     0.076021    0.062520    0.668020    0.000000
   190  O2    s     0.087733    0.999007    0.501350    0.000000
   191  O2    s     0.001226    0.061150    0.834960    0.000000
   192  O2    s     0.936682    0.930030    0.166678    0.000000
   193  O2    s     0.357235    0.588055    0.335204    0.000000
   194  O2    s     0.409632    0.750125    0.667862    0.000000
   195  O2    s     0.233443    0.641219    0.000215    0.000000
   196  O2    s     0.651636    0.399406    0.832309    0.000000
   197  O2    s     0.595869    0.236574    0.168163    0.000000
   198  O3    s     0.774264    0.350041    0.499584    0.000000
   199  O3    s     0.588477    0.347268    0.004044    0.000000
   200  O2    s     0.763663    0.401037    0.671048    0.000000
   201  O2    s     0.652858    0.234773    0.335007    0.000000
   202  O2    s     0.422862    0.643581    0.502098    0.000000
   203  O2    s     0.243744    0.589242    0.167128    0.000000
   204  O2    s     0.355728    0.748923    0.834550    0.000000
   205  O2    s     0.114867    0.210819    0.972512    0.000000
   206  O3    s     0.780786    0.909720    0.307177    0.000000
   207  O2    s     0.093817    0.866137    0.635896    0.000000
   208  O2    s     0.891816    0.782997    0.470425    0.000000
   209  O2    s     0.215275    0.076771    0.804435    0.000000
   210  O2    s     0.913944    0.125901    0.138320    0.000000
   211  O2    s     0.229485    0.128448    0.365528    0.000000
   212  O2    s     0.903390    0.780753    0.031542    0.000000
   213  O2    s     0.877344    0.077980    0.698267    0.000000
   214  O2    s     0.787278    0.864776    0.867414    0.000000
   215  O2    s     0.111186    0.212346    0.530468    0.000000
   216  O2    s     0.133183    0.907032    0.195408    0.000000
   217  O3    s     0.944548    0.867271    0.247824    0.000000
   218  O2    s     0.150154    0.064677    0.584932    0.000000
   219  O2    s     0.928966    0.064709    0.917842    0.000000
   220  O2    s     0.072320    0.129944    0.751522    0.000000
   221  O2    s     0.868082    0.934628    0.085106    0.000000
   222  O2    s     0.080091    0.934820    0.417446    0.000000
   223  O2    s     0.903782    0.199296    0.983586    0.000000
   224  O3    s     0.797310    0.694934    0.316577    0.000000
   225  O2    s     0.296107    0.076342    0.651150    0.000000
   226  O2    s     0.111256    0.804791    0.481287    0.000000
   227  O2    s     0.209727    0.279659    0.818275    0.000000
   228  O2    s     0.714159    0.912165    0.151551    0.000000
   229  O2    s     0.210310    0.911201    0.350777    0.000000
   230  O2    s     0.706344    0.803201    0.021727    0.000000
   231  O2    s     0.086048    0.280874    0.684803    0.000000
   232  O2    s     0.794534    0.074668    0.851494    0.000000
   233  O2    s     0.311155    0.201653    0.519997    0.000000
   234  O2    s     0.918931    0.707126    0.184497    0.000000
   235  O2    s     0.333990    0.656594    0.251067    0.000000
   236  O2    s     0.339939    0.657618    0.584583    0.000000
   237  O2    s     0.332257    0.656427    0.918009    0.000000
   238  O2    s     0.669099    0.323821    0.751538    0.000000
   239  O2    s     0.663315    0.330830    0.085819    0.000000
   240  O2    s     0.681736    0.329275    0.417910    0.000000
   241  O3    s     0.361175    0.317241    0.973779    0.000000
   242  O2    s     0.661694    0.038582    0.303314    0.000000
   243  O2    s     0.958460    0.611623    0.634018    0.000000
   244  O2    s     0.635102    0.660708    0.469924    0.000000
   245  O2    s     0.339873    0.945501    0.803184    0.000000
   246  O2    s     0.046026    0.379889    0.135977    0.000000
   247  O2    s     0.348564    0.380804    0.367400    0.000000
   248  O2    s     0.038284    0.658155    0.031961    0.000000
   249  O2    s     0.621615    0.946369    0.699289    0.000000
   250  O2    s     0.667631    0.609969    0.869338    0.000000
   251  O3    s     0.971724    0.319304    0.529424    0.000000
   252  O2    s     0.386361    0.038511    0.198584    0.000000
   253  O2    s     0.778107    0.307822    0.016066    0.000000
   254  O2    s     0.694682    0.465565    0.349166    0.000000
   255  O2    s     0.532905    0.205375    0.682152    0.000000
   256  O2    s     0.231185    0.685080    0.514793    0.000000
   257  O2    s     0.318107    0.518294    0.850825    0.000000
   258  O2    s     0.475656    0.778876    0.182216    0.000000
   259  O2    s     0.313720    0.777439    0.319902    0.000000
   260  O2    s     0.467090    0.683436    0.988092    0.000000
   261  O2    s     0.216562    0.519493    0.652024    0.000000
   262  O2    s     0.686623    0.203920    0.820667    0.000000
   263  O2    s     0.546020    0.311698    0.487673    0.000000
   264  O2    s     0.787162    0.468576    0.154487    0.000000
   265  O2    s     0.792667    0.530473    0.031049    0.000000
   266  O2    s     0.477060    0.260735    0.366901    0.000000
   267  O2    s     0.741106    0.193408    0.698535    0.000000
   268  O2    s     0.212126    0.463819    0.531269    0.000000
   269  O2    s     0.533791    0.720250    0.869348    0.000000
   270  O2    s     0.267308    0.791297    0.197716    0.000000
   271  O2    s     0.533736    0.789750    0.304640    0.000000
   272  O2    s     0.265588    0.462191    0.971518    0.000000
   273  O2    s     0.202539    0.721411    0.633517    0.000000
   274  O2    s     0.466708    0.192488    0.804321    0.000000
   275  O2    s     0.754063    0.533116    0.470460    0.000000
   276  O2    s     0.798964    0.261211    0.137233    0.000000
   277  O2    s     0.247422    0.321595    0.901911    0.000000
   278  O2    s     0.673392    0.907597    0.234708    0.000000
   279  O2    s     0.087965    0.745301    0.564470    0.000000
   280  O2    s     0.768350    0.669091    0.399735    0.000000
   281  O2    s     0.332516    0.075301    0.734029    0.000000
   282  O2    s     0.914085    0.241684    0.066864    0.000000
   283  O2    s     0.343611    0.244277    0.437073    0.000000
   284  O2    s     0.912057    0.666025    0.101678    0.000000
   285  O2    s     0.757732    0.074758    0.768609    0.000000
   286  O2    s     0.670910    0.743522    0.938697    0.000000
   287  O2    s     0.090222    0.323240    0.601127    0.000000
   288  O2    s     0.246895    0.909114    0.267505    0.000000
   289  O3    s     0.594152    0.569501    0.998629    0.000000
   290  O2    s     0.444224    0.025950    0.321066    0.000000
   291  O2    s     0.973087    0.404931    0.652693    0.000000
   292  O2    s     0.428967    0.440982    0.489727    0.000000
   293  O2    s     0.559079    0.956891    0.821476    0.000000
   294  O2    s     0.033983    0.586760    0.154445    0.000000
   295  O2    s     0.565317    0.585631    0.347636    0.000000
   296  O2    s     0.024831    0.437883    0.013275    0.000000
   297  O2    s     0.414052    0.958271    0.681029    0.000000
   298  O2    s     0.446492    0.403210    0.850621    0.000000
   299  O3    s     0.990230    0.571471    0.504750    0.000000
   300  O2    s     0.593374    0.026679    0.181736    0.000000
   301  O2    s     0.582942    0.157829    0.251364    0.000000
   302  O3    s     0.828556    0.409517    0.588712    0.000000
   303  O3    s     0.595098    0.407566    0.914772    0.000000
   304  O2    s     0.421523    0.827217    0.751196    0.000000
   305  O2    s     0.161157    0.578004    0.083591    0.000000
   306  O2    s     0.431594    0.580013    0.418768    0.000000
   307  F     s     0.458836    0.905744    0.251259    0.000000
   308  F     s     0.044667    0.509191    0.571737    0.000000
   309  F     s     0.478657    0.507467    0.931497    0.000000
   310  F     s     0.544254    0.073292    0.751307    0.000000
   311  F     s     0.917894    0.456762    0.084211    0.000000
   312  F     s     0.555030    0.459686    0.418422    0.000000
--------------------------------------------------------------------------------

  Final Cartesian lattice vectors (Angstroms) :

       11.971931    0.000641    0.001808
       -5.970130   10.384941    0.000285
       -0.124270    0.036363   29.500622


  Final cell parameters and derivatives :

--------------------------------------------------------------------------------
       a           11.971931 Angstrom     dE/de1(xx)     0.003367 eV/strain
       b           11.978708 Angstrom     dE/de2(yy)     0.002640 eV/strain
       c           29.500906 Angstrom     dE/de3(zz)     0.004080 eV/strain
       alpha       89.817118 Degrees      dE/de4(yz)    -0.000109 eV/strain
       beta        90.232699 Degrees      dE/de5(xz)     0.000316 eV/strain
       gamma      119.890809 Degrees      dE/de6(xy)    -0.000056 eV/strain
--------------------------------------------------------------------------------

  Primitive cell volume =          3667.861966 Angs**3

  Density of cell =      1.744366 g/cm**3

  Non-primitive cell volume =          3667.861966 Angs**3


  Final internal derivatives :

--------------------------------------------------------------------------------
   No.  Atomic          a             b             c           Radius
        Label          (eV)          (eV)          (eV)        (eV/Angs)
--------------------------------------------------------------------------------
      1 Si    c       0.000000      0.000000      0.000000      0.000000
      2 Si    c      -0.000329      0.000002      0.000067      0.000000
      3 Si    c       0.000061      0.000318      0.000384      0.000000
      4 Si    c      -0.000341      0.000262      0.000401      0.000000
      5 Si    c       0.000177      0.000216     -0.000125      0.000000
      6 Si    c      -0.000317     -0.000105     -0.000493      0.000000
      7 Si    c      -0.000307     -0.000067      0.000318      0.000000
      8 Si    c       0.000593     -0.000204     -0.000189      0.000000
      9 Si    c      -0.000016      0.000377      0.000573      0.000000
     10 Si    c       0.000115      0.000480     -0.000208      0.000000
     11 Si    c      -0.000750      0.000399     -0.000685      0.000000
     12 Si    c       0.000003     -0.000129      0.001227      0.000000
     13 Ge    c      -0.002746      0.003521     -0.004275      0.000000
     14 Si    c      -0.000351     -0.000138      0.000287      0.000000
     15 Si    c       0.000029      0.000443      0.000717      0.000000
     16 Si    c      -0.000019     -0.000216     -0.000227      0.000000
     17 Si    c       0.000169      0.000452     -0.000182      0.000000
     18 Si    c      -0.000256     -0.000266      0.000036      0.000000
     19 Si    c      -0.000276     -0.000097     -0.000008      0.000000
     20 Si    c      -0.000097     -0.000249     -0.000649      0.000000
     21 Si    c       0.000007      0.000444      0.000327      0.000000
     22 Si    c       0.000102      0.000703     -0.001020      0.000000
     23 Ge    c       0.000273      0.000334      0.000803      0.000000
     24 Si    c      -0.000317     -0.000381     -0.000379      0.000000
     25 Si    c       0.000160      0.000528     -0.001007      0.000000
     26 Si    c      -0.000188     -0.000070     -0.000975      0.000000
     27 Si    c      -0.000117      0.000252     -0.000042      0.000000
     28 Si    c      -0.000332     -0.000065     -0.000464      0.000000
     29 Si    c       0.000047      0.000387      0.000404      0.000000
     30 Si    c       0.000751     -0.000131     -0.000663      0.000000
     31 Si    c      -0.000199      0.000137      0.000530      0.000000
     32 Si    c      -0.000313     -0.000081     -0.000154      0.000000
     33 Si    c       0.000128      0.000401     -0.000047      0.000000
     34 Si    c       0.000442      0.000269      0.000824      0.000000
     35 Si    c       0.000014      0.000423      0.000592      0.000000
     36 Si    c      -0.000305     -0.000079      0.000297      0.000000
     37 Si    c       0.000590      0.000560     -0.000027      0.000000
     38 Si    c      -0.000389     -0.000032      0.000090      0.000000
     39 Si    c       0.000008      0.000302      0.000348      0.000000
     40 Si    c      -0.000149     -0.000089      0.000658      0.000000
     41 Si    c       0.000043      0.000539     -0.000093      0.000000
     42 Si    c       0.000062     -0.000195      0.000978      0.000000
     43 Si    c      -0.000353      0.000056     -0.000266      0.000000
     44 Si    c      -0.000555      0.000383      0.000053      0.000000
     45 Si    c       0.000038      0.000389      0.000531      0.000000
     46 Si    c       0.000121      0.000222      0.000212      0.000000
     47 Si    c      -0.000068      0.000393      0.000119      0.000000
     48 Si    c      -0.000195     -0.000170     -0.000727      0.000000
     49 Si    c      -0.000355      0.000210      0.000875      0.000000
     50 Ge    c      -0.000928     -0.000128      0.003231      0.000000
     51 Si    c       0.000061      0.000219      0.001366      0.000000
     52 Si    c      -0.000223      0.000234     -0.000073      0.000000
     53 Si    c      -0.000002      0.000513     -0.000063      0.000000
     54 Si    c      -0.001083      0.000707      0.001683      0.000000
     55 Si    c      -0.000245      0.000058     -0.000397      0.000000
     56 Si    c      -0.000283      0.000257      0.001361      0.000000
     57 Si    c       0.000053      0.000401      0.000222      0.000000
     58 Si    c      -0.000079      0.000003     -0.005454      0.000000
     59 Si    c      -0.000110      0.000071      0.000208      0.000000
     60 Si    c      -0.000176     -0.000465     -0.001348      0.000000
     61 O2    c       0.001241      0.001209     -0.003028      0.000000
     62 O3    c      -0.000311      0.000115      0.000150      0.000000
     63 O2    c      -0.000025      0.000428      0.000195      0.000000
     64 O2    c      -0.000649      0.000281      0.000178      0.000000
     65 O2    c       0.000066      0.000479      0.000380      0.000000
     66 O2    c       0.000240     -0.000465     -0.000135      0.000000
     67 O2    c      -0.000393     -0.000032     -0.000137      0.000000
     68 O2    c       0.000029      0.000402      0.000339      0.000000
     69 O2    c      -0.000335      0.000644      0.000706      0.000000
     70 O2    c       0.000164      0.000485      0.000073      0.000000
     71 O2    c      -0.000479      0.000029     -0.000443      0.000000
     72 O3    c       0.000276     -0.000526      0.000235      0.000000
     73 O3    c      -0.000615     -0.002604     -0.001344      0.000000
     74 O2    c       0.000042      0.000448      0.000216      0.000000
     75 O2    c      -0.000293     -0.000174     -0.000376      0.000000
     76 O2    c      -0.000114      0.000384      0.000153      0.000000
     77 O2    c      -0.000288     -0.000204     -0.000650      0.000000
     78 O2    c      -0.000079      0.000611     -0.000122      0.000000
     79 O2    c       0.000455      0.000008      0.000875      0.000000
     80 O3    c      -0.000440     -0.000005      0.000078      0.000000
     81 O2    c       0.000030      0.000298      0.000477      0.000000
     82 O2    c      -0.000474     -0.000009      0.000294      0.000000
     83 O2    c       0.000184      0.000424     -0.000216      0.000000
     84 O2    c      -0.000267     -0.000109     -0.000354      0.000000
     85 O2    c      -0.000289     -0.000022     -0.000252      0.000000
     86 O2    c       0.001228     -0.001436     -0.000959      0.000000
     87 O2    c       0.000078      0.000369      0.000317      0.000000
     88 O2    c       0.000066      0.000133     -0.000324      0.000000
     89 O2    c      -0.000361      0.000509     -0.000251      0.000000
     90 O2    c      -0.000271     -0.000068     -0.000585      0.000000
     91 O3    c       0.000458      0.000064     -0.004955      0.000000
     92 O2    c      -0.000338      0.000481     -0.001377      0.000000
     93 O2    c       0.000870      0.000675      0.007255      0.000000
     94 O2    c       0.000094      0.000443      0.000539      0.000000
     95 O2    c       0.000487     -0.000458     -0.002959      0.000000
     96 O2    c      -0.000301      0.000165      0.000562      0.000000
     97 O2    c      -0.000181      0.000315      0.000148      0.000000
     98 O3    c      -0.000380     -0.000025      0.000342      0.000000
     99 O2    c      -0.000047      0.000391      0.000110      0.000000
    100 O2    c       0.000237     -0.000068      0.000232      0.000000
    101 O2    c       0.000082      0.000574     -0.000030      0.000000
    102 O2    c      -0.000506     -0.000077     -0.000600      0.000000
    103 O2    c      -0.000393     -0.000093     -0.000044      0.000000
    104 O2    c      -0.001414      0.000386     -0.000941      0.000000
    105 O2    c       0.000066      0.000406      0.000256      0.000000
    106 O2    c      -0.000188      0.000774      0.000133      0.000000
    107 O2    c       0.000013      0.000110     -0.000208      0.000000
    108 O2    c      -0.000446     -0.000153     -0.000194      0.000000
    109 O2    c      -0.000314     -0.000200     -0.000138      0.000000
    110 O2    c       0.000045      0.000344      0.000074      0.000000
    111 O2    c      -0.000067      0.000624     -0.001019      0.000000
    112 O2    c       0.000103      0.000424      0.000209      0.000000
    113 O2    c      -0.000644     -0.000056     -0.000616      0.000000
    114 O2    c      -0.000204     -0.000101      0.000081      0.000000
    115 O3    c       0.000139      0.000537      0.000547      0.000000
    116 O2    c      -0.000425     -0.000016      0.000049      0.000000
    117 O2    c       0.000039      0.000334      0.000275      0.000000
    118 O2    c      -0.000153      0.000053      0.000180      0.000000
    119 O2    c       0.000078      0.000471      0.000172      0.000000
    120 O2    c      -0.000244     -0.000132     -0.000319      0.000000
    121 O2    c      -0.000304     -0.000016      0.000070      0.000000
    122 O2    c       0.000137      0.000156     -0.000243      0.000000
    123 O2    c       0.000018      0.000434      0.000239      0.000000
    124 O2    c       0.000116      0.000452      0.000052      0.000000
    125 O3    c      -0.000045      0.000269     -0.000008      0.000000
    126 O2    c      -0.000334     -0.000061     -0.000332      0.000000
    127 O2    c      -0.001092      0.000386     -0.000848      0.000000
    128 O2    c      -0.000296     -0.000090      0.000150      0.000000
    129 O2    c       0.000069      0.000363      0.000297      0.000000
    130 O2    c       0.000079      0.000145      0.000109      0.000000
    131 O2    c       0.000004      0.000620      0.000103      0.000000
    132 O2    c      -0.000349     -0.000239     -0.000718      0.000000
    133 O2    c      -0.000290     -0.000190      0.000050      0.000000
    134 O2    c      -0.000577      0.000570     -0.000072      0.000000
    135 O2    c       0.000042      0.000377      0.000458      0.000000
    136 O2    c       0.000129      0.000497      0.000032      0.000000
    137 O2    c      -0.000254      0.000075      0.000128      0.000000
    138 O2    c      -0.000397     -0.000032     -0.000015      0.000000
    139 O2    c      -0.001101      0.000379     -0.000461      0.000000
    140 O2    c      -0.000305     -0.000080     -0.000116      0.000000
    141 O2    c       0.000021      0.000444      0.000284      0.000000
    142 O2    c      -0.000011      0.000238      0.000074      0.000000
    143 O2    c       0.000065      0.000466     -0.000103      0.000000
    144 O2    c      -0.000434     -0.000015     -0.000562      0.000000
    145 O2    c      -0.000420     -0.000164      0.000367      0.000000
    146 O2    c      -0.000069      0.000518      0.000247      0.000000
    147 O2    c       0.000036      0.000360      0.000420      0.000000
    148 O2    c       0.000024      0.000523     -0.000112      0.000000
    149 O2    c      -0.000189      0.000065      0.000209      0.000000
    150 O2    c      -0.000203     -0.000271     -0.000109      0.000000
    151 O2    c      -0.000031      0.000237      0.000850      0.000000
    152 O2    c      -0.000295     -0.000158     -0.000033      0.000000
    153 O2    c      -0.000083      0.000441      0.000431      0.000000
    154 O2    c      -0.000181      0.000064     -0.000226      0.000000
    155 O2    c       0.000049      0.000456      0.000019      0.000000
    156 O2    c       0.000145     -0.000354     -0.000863      0.000000
    157 O2    c      -0.000363     -0.000018      0.000040      0.000000
    158 O2    c      -0.000356      0.000060      0.000310      0.000000
    159 O2    c       0.000128      0.000412     -0.000420      0.000000
    160 O2    c       0.000371      0.000354     -0.001248      0.000000
    161 O2    c      -0.000027      0.000251      0.000001      0.000000
    162 O2    c      -0.000469     -0.000025      0.000107      0.000000
    163 O3    c       0.001479     -0.000425      0.002181      0.000000
    164 O2    c      -0.000310     -0.000085     -0.000175      0.000000
    165 O2    c       0.000062      0.000365      0.000494      0.000000
    166 O2    c      -0.000227      0.000045      0.000236      0.000000
    167 O2    c       0.000150      0.000447     -0.000134      0.000000
    168 O2    c      -0.000389     -0.000051     -0.000228      0.000000
    169 O2    c      -0.000350     -0.000014     -0.000011      0.000000
    170 O2    c      -0.000001      0.000022     -0.000009      0.000000
    171 O2    c       0.000091      0.000301      0.000430      0.000000
    172 O2    c       0.000163      0.000525     -0.000282      0.000000
    173 O3    c      -0.000316      0.000407     -0.000652      0.000000
    174 O2    c      -0.000427      0.000041     -0.000468      0.000000
    175 O2    c      -0.000397     -0.000009     -0.000234      0.000000
    176 O3    c      -0.000118      0.000255     -0.000139      0.000000
    177 O3    c       0.000757     -0.000180     -0.001246      0.000000
    178 O2    c       0.000088      0.000415      0.000028      0.000000
    179 O2    c       0.000213     -0.000115      0.001008      0.000000
    180 O2    c      -0.000323      0.000061     -0.000077      0.000000
    181 F     c      -0.000327     -0.000167     -0.000044      0.000000
    182 F     c      -0.000081      0.000353     -0.000120      0.000000
    183 F     c       0.000111      0.000495      0.000635      0.000000
    184 F     c       0.000105      0.000445     -0.000006      0.000000
    185 F     c      -0.000104     -0.000185     -0.000417      0.000000
    186 F     c      -0.000283     -0.000012      0.000121      0.000000
    187 O2    s       0.000606      0.000519     -0.000091      0.000000
    188 O3    s      -0.000453     -0.000045      0.000684      0.000000
    189 O2    s       0.000018      0.000374      0.000003      0.000000
    190 O2    s      -0.000436      0.000280     -0.000222      0.000000
    191 O2    s       0.000467      0.000318     -0.001190      0.000000
    192 O2    s      -0.000135     -0.000065      0.001285      0.000000
    193 O2    s      -0.000318     -0.000104      0.000251      0.000000
    194 O2    s       0.000058      0.000394     -0.000505      0.000000
    195 O2    s       0.000129      0.000221     -0.000203      0.000000
    196 O2    s       0.000130      0.000446     -0.000054      0.000000
    197 O2    s      -0.000405     -0.000080      0.000843      0.000000
    198 O3    s      -0.000249      0.000597      0.000203      0.000000
    199 O3    s      -0.000278      0.002733      0.000945      0.000000
    200 O2    s      -0.000017      0.000333     -0.000486      0.000000
    201 O2    s      -0.000368     -0.000065      0.000301      0.000000
    202 O2    s      -0.000089      0.000030     -0.000067      0.000000
    203 O2    s      -0.000270     -0.000113      0.000792      0.000000
    204 O2    s       0.000167      0.000458     -0.000030      0.000000
    205 O2    s       0.000096      0.000303     -0.000495      0.000000
    206 O3    s      -0.000452      0.000120      0.000197      0.000000
    207 O2    s      -0.000028      0.000281     -0.000638      0.000000
    208 O2    s      -0.000320      0.000081     -0.000465      0.000000
    209 O2    s       0.000154      0.000433      0.000397      0.000000
    210 O2    s      -0.000209      0.000218      0.001070      0.000000
    211 O2    s      -0.000286      0.000039      0.000465      0.000000
    212 O2    s       0.000246     -0.000318      0.001301      0.000000
    213 O2    s       0.000011      0.000445     -0.000584      0.000000
    214 O2    s       0.000293     -0.000236     -0.000014      0.000000
    215 O2    s      -0.000208      0.000307      0.000345      0.000000
    216 O2    s      -0.000227     -0.000224      0.000545      0.000000
    217 O3    s      -0.000646     -0.000258      0.003007      0.000000
    218 O2    s       0.000058      0.000105      0.000611      0.000000
    219 O2    s      -0.000194      0.000258     -0.001266      0.000000
    220 O2    s       0.000116      0.000408     -0.000390      0.000000
    221 O2    s      -0.000256      0.000563      0.002098      0.000000
    222 O2    s      -0.000225      0.000150     -0.000552      0.000000
    223 O2    s       0.000148      0.000009     -0.001156      0.000000
    224 O3    s      -0.000196     -0.000299     -0.000289      0.000000
    225 O2    s       0.000126      0.000395     -0.000260      0.000000
    226 O2    s       0.000048      0.000115     -0.000016      0.000000
    227 O2    s       0.000183      0.000336     -0.000150      0.000000
    228 O2    s      -0.000692      0.000065      0.001122      0.000000
    229 O2    s      -0.000345     -0.000102      0.000142      0.000000
    230 O2    s      -0.000691      0.000568      0.000229      0.000000
    231 O2    s      -0.000007      0.000396     -0.000350      0.000000
    232 O2    s      -0.000238      0.001035     -0.000900      0.000000
    233 O2    s      -0.000112     -0.000025      0.000073      0.000000
    234 O2    s      -0.000312     -0.000213      0.000604      0.000000
    235 O2    s      -0.000367     -0.000005      0.000204      0.000000
    236 O2    s      -0.000063      0.000424      0.000168      0.000000
    237 O2    s       0.000077      0.000448      0.000175      0.000000
    238 O2    s       0.000026      0.000440     -0.000097      0.000000
    239 O2    s      -0.000150     -0.000102     -0.000383      0.000000
    240 O2    s      -0.000320     -0.000038     -0.000371      0.000000
    241 O3    s       0.000410     -0.000217     -0.000740      0.000000
    242 O2    s      -0.000299     -0.000097      0.000040      0.000000
    243 O2    s      -0.000062      0.000372     -0.000390      0.000000
    244 O2    s      -0.000209      0.000027     -0.000365      0.000000
    245 O2    s       0.000142      0.000473     -0.000082      0.000000
    246 O2    s      -0.000080     -0.000116      0.000940      0.000000
    247 O2    s      -0.000324     -0.000035     -0.000072      0.000000
    248 O2    s      -0.000201     -0.000057      0.000507      0.000000
    249 O2    s       0.000097      0.000331     -0.000437      0.000000
    250 O2    s       0.000184      0.000381     -0.000296      0.000000
    251 O3    s      -0.000124      0.000256     -0.000002      0.000000
    252 O2    s      -0.000364     -0.000110      0.000605      0.000000
    253 O2    s      -0.000225      0.000386      0.000937      0.000000
    254 O2    s      -0.000326     -0.000043     -0.000116      0.000000
    255 O2    s      -0.000018      0.000473     -0.000550      0.000000
    256 O2    s      -0.000172      0.000353     -0.000241      0.000000
    257 O2    s      -0.000066      0.000526     -0.000276      0.000000
    258 O2    s      -0.000258     -0.000052      0.001041      0.000000
    259 O2    s      -0.000452     -0.000049      0.000112      0.000000
    260 O2    s       0.000165      0.000346      0.000609      0.000000
    261 O2    s       0.000035      0.000366     -0.000682      0.000000
    262 O2    s       0.000106      0.000439      0.000088      0.000000
    263 O2    s      -0.000242     -0.000026     -0.000185      0.000000
    264 O2    s      -0.000449      0.000026      0.000964      0.000000
    265 O2    s       0.001411     -0.001657     -0.000215      0.000000
    266 O2    s      -0.000309     -0.000053      0.000162      0.000000
    267 O2    s       0.000071      0.000391     -0.000549      0.000000
    268 O2    s      -0.000200      0.000331     -0.000039      0.000000
    269 O2    s       0.000025      0.000479      0.000090      0.000000
    270 O2    s      -0.000245     -0.000141      0.000955      0.000000
    271 O2    s      -0.000298     -0.000037     -0.000181      0.000000
    272 O2    s       0.000066      0.000213      0.000160      0.000000
    273 O2    s       0.000009      0.000382     -0.000634      0.000000
    274 O2    s       0.000227      0.000326      0.000246      0.000000
    275 O2    s      -0.000262      0.000011     -0.000372      0.000000
    276 O2    s      -0.000176     -0.000170      0.000502      0.000000
    277 O2    s       0.000235      0.000331     -0.000126      0.000000
    278 O2    s      -0.000271     -0.000072      0.000064      0.000000
    279 O2    s       0.000076      0.000393     -0.000150      0.000000
    280 O2    s      -0.000341     -0.000061      0.000360      0.000000
    281 O2    s       0.000095      0.000406     -0.000009      0.000000
    282 O2    s      -0.000387      0.000237      0.000715      0.000000
    283 O2    s      -0.000154     -0.000024     -0.000067      0.000000
    284 O2    s       0.000083     -0.000183      0.000260      0.000000
    285 O2    s       0.000056      0.000470      0.000443      0.000000
    286 O2    s      -0.000121      0.000862      0.000287      0.000000
    287 O2    s      -0.000061      0.000347     -0.000202      0.000000
    288 O2    s      -0.000356     -0.000163     -0.000068      0.000000
    289 O3    s      -0.001087      0.000507     -0.002507      0.000000
    290 O2    s      -0.000425      0.000012      0.000345      0.000000
    291 O2    s      -0.000065      0.000426     -0.000786      0.000000
    292 O2    s      -0.000232      0.000096     -0.000292      0.000000
    293 O2    s       0.000030      0.000522      0.000240      0.000000
    294 O2    s      -0.000281      0.000009      0.000994      0.000000
    295 O2    s      -0.000262     -0.000119      0.000029      0.000000
    296 O2    s       0.000207      0.000163     -0.000646      0.000000
    297 O2    s      -0.000006      0.000453     -0.000656      0.000000
    298 O2    s       0.000388      0.000255      0.000279      0.000000
    299 O3    s       0.000058      0.000158      0.000784      0.000000
    300 O2    s      -0.000275     -0.000223      0.000814      0.000000
    301 O2    s      -0.000332     -0.000127      0.000412      0.000000
    302 O3    s       0.000030      0.000473      0.000056      0.000000
    303 O3    s      -0.000146      0.000858      0.000777      0.000000
    304 O2    s       0.000065      0.000447      0.000160      0.000000
    305 O2    s      -0.000373      0.000221     -0.000291      0.000000
    306 O2    s      -0.000227     -0.000050      0.000021      0.000000
    307 F     s      -0.000490     -0.000128      0.000081      0.000000
    308 F     s      -0.000113      0.000225     -0.000024      0.000000
    309 F     s       0.000477     -0.000239     -0.000236      0.000000
    310 F     s       0.000055      0.000464      0.000132      0.000000
    311 F     s      -0.000508      0.000083      0.000917      0.000000
    312 F     s      -0.000249     -0.000085     -0.000227      0.000000
--------------------------------------------------------------------------------
  Maximum abs         0.002746      0.003521      0.007255      0.000000
--------------------------------------------------------------------------------


  Time to end of optimisation =      24.0602 seconds


  Peak dynamic memory used =      19.13 MB 


  Timing analysis for GULP :

--------------------------------------------------------------------------------
  Task / Subroutine                                          Time (Seconds)
--------------------------------------------------------------------------------
  Calculation of reciprocal space energy and derivatives          0.6536
  Calculation of real space energy and derivatives               20.9290
  Calculation of three-body energy and derivatives                2.0505
  Calculation of matrix inversion                                 0.3722
--------------------------------------------------------------------------------
  Total CPU time                                                 24.0602
--------------------------------------------------------------------------------


  Dump file written as out.res                                                 
  CIF file written as out.cif                                                 


  Job Finished at 17:12.42 16th November   2016                               

