********************************************************************************
*                       GENERAL UTILITY LATTICE PROGRAM                        *
*                                 Julian Gale                                  *
*                      Nanochemistry Research Institute                        *
*                           Department of Chemistry                            *
*                    Curtin University, Western Australia                      *
********************************************************************************
* Version = 4.2.0 * Last modified =  20th January 2014                         *
********************************************************************************
*  optimise     - perform optimisation run                                     *
*  conp         - constant pressure calculation                                *
*  qok          - running with non charge neutral cell is OK                   *
********************************************************************************

  Job Started  at 14:47.07 16th November   2016                               

  Number of CPUs =     1


  Total number of configurations input =   1

********************************************************************************
*  Input for Configuration =   1                                               *
********************************************************************************

  Formula = Si57Ge3O120F6                                               

  Number of irreducible atoms/shells =     312


  Total number atoms/shells =     312

  Dimensionality = 3               :  Bulk   


  Charge on solid   =  -6.000000 =>neutralising background added


  Cartesian lattice vectors (Angstroms) :

       11.911907    0.000000    0.000000
       -5.989792   10.402404    0.000000
       -0.004322    0.050176   29.522952

  Cell parameters (Angstroms/Degrees):

  a =      11.9119    alpha =  89.9114
  b =      12.0037    beta  =  90.0084
  c =      29.5230    gamma = 119.9337

  Initial cell volume =        3658.261848 Angs**3

  Temperature of configuration =  0.000     K 

  Pressure of configuration =         0.000 GPa 

  Fractional coordinates of asymmetric unit :

--------------------------------------------------------------------------------
   No.  Atomic       x           y          z         Charge      Occupancy
        Label      (Frac)      (Frac)     (Frac)        (e)         (Frac)  
--------------------------------------------------------------------------------
      1 Si    c    0.699600    0.375700    0.033890     4.00000    1.000000    
      2 Si    c    0.624466 *  0.324970 *  0.366438 *   4.00000    1.000000    
      3 Si    c    0.674539 *  0.297569 *  0.700825 *   4.00000    1.000000    
      4 Si    c    0.300282 *  0.622512 *  0.530402 *   4.00000    1.000000    
      5 Si    c    0.383999 *  0.665370 *  0.868021 *   4.00000    1.000000    
      6 Si    c    0.325205 *  0.703964 *  0.200323 *   4.00000    1.000000    
      7 Si    c    0.379224 *  0.703254 *  0.300957 *   4.00000    1.000000    
      8 Si    c    0.323017 *  0.616710 *  0.969775 *   4.00000    1.000000    
      9 Si    c    0.295513 *  0.675283 *  0.632296 *   4.00000    1.000000    
     10 Si    c    0.625192 *  0.299025 *  0.803292 *   4.00000    1.000000    
     11 Si    c    0.683463 *  0.377361 *  0.467776 *   4.00000    1.000000    
     12 Si    c    0.704372 *  0.324738 *  0.135272 *   4.00000    1.000000    
     13 Ge    c    0.534278 *  0.431728 *  0.968181 *   4.00000    1.000000    
     14 Si    c    0.584712 *  0.114157 *  0.301682 *   4.00000    1.000000    
     15 Si    c    0.876398 *  0.468389 *  0.633574 *   4.00000    1.000000    
     16 Si    c    0.473369 *  0.580013 *  0.466977 *   4.00000    1.000000    
     17 Si    c    0.411902 *  0.872927 *  0.802380 *   4.00000    1.000000    
     18 Si    c    0.115705 *  0.532618 *  0.134769 *   4.00000    1.000000    
     19 Si    c    0.418596 *  0.531591 *  0.366019 *   4.00000    1.000000    
     20 Si    c    0.109932 *  0.580292 *  0.033717 *   4.00000    1.000000    
     21 Si    c    0.465724 *  0.882935 *  0.698892 *   4.00000    1.000000    
     22 Si    c    0.604264 *  0.469602 *  0.869919 *   4.00000    1.000000    
     23 Ge    c    0.903848 *  0.433904 *  0.534706 *   4.00000    1.000000    
     24 Si    c    0.531995 *  0.114425 *  0.200138 *   4.00000    1.000000    
     25 Si    c    0.313419 *  0.386206 *  0.854177 *   4.00000    1.000000    
     26 Si    c    0.604282 *  0.906092 *  0.185440 *   4.00000    1.000000    
     27 Si    c    0.099602 *  0.706556 *  0.512896 *   4.00000    1.000000    
     28 Si    c    0.700575 *  0.602505 *  0.352171 *   4.00000    1.000000    
     29 Si    c    0.392593 *  0.095162 *  0.682863 *   4.00000    1.000000    
     30 Si    c    0.903488 *  0.300052 *  0.020157 *   4.00000    1.000000    
     31 Si    c    0.402280 *  0.301472 *  0.481010 *   4.00000    1.000000    
     32 Si    c    0.904891 *  0.602845 *  0.148834 *   4.00000    1.000000    
     33 Si    c    0.696638 *  0.088679 *  0.816737 *   4.00000    1.000000    
     34 Si    c    0.607888 *  0.703019 *  0.989006 *   4.00000    1.000000    
     35 Si    c    0.090254 *  0.393650 *  0.646910 *   4.00000    1.000000    
     36 Si    c    0.303342 *  0.904879 *  0.315779 *   4.00000    1.000000    
     37 Si    c    0.253400 *  0.330841 *  0.956112 *   4.00000    1.000000    
     38 Si    c    0.660654 *  0.912293 *  0.286005 *   4.00000    1.000000    
     39 Si    c    0.081870 *  0.748314 *  0.615741 *   4.00000    1.000000    
     40 Si    c    0.753064 *  0.658121 *  0.452751 *   4.00000    1.000000    
     41 Ge    c    0.357518 *  0.083940 *  0.782826 *   4.00000    1.000000    
     42 Si    c    0.915548 *  0.254319 *  0.120686 *   4.00000    1.000000    
     43 Si    c    0.341840 *  0.253890 *  0.380790 *   4.00000    1.000000    
     44 Si    c    0.908469 *  0.658394 *  0.048082 *   4.00000    1.000000    
     45 Si    c    0.748460 *  0.084858 *  0.714565 *   4.00000    1.000000    
     46 Si    c    0.672455 *  0.746696 *  0.886546 *   4.00000    1.000000    
     47 Si    c    0.086207 *  0.335673 *  0.544953 *   4.00000    1.000000    
     48 Si    c    0.252995 *  0.912251 *  0.215411 *   4.00000    1.000000    
     49 Si    c    0.968480 *  0.120358 *  0.968725 *   4.00000    1.000000    
     50 Si    c    0.878814 *  0.849641 *  0.300685 *   4.00000    1.000000    
     51 Si    c    0.148888 *  0.028737 *  0.631827 *   4.00000    1.000000    
     52 Si    c    0.032173 *  0.885221 *  0.465251 *   4.00000    1.000000    
     53 Si    c    0.129801 *  0.142389 *  0.800645 *   4.00000    1.000000    
     54 Si    c    0.854831 *  0.976445 *  0.135683 *   4.00000    1.000000    
     55 Si    c    0.123504 *  0.975759 *  0.364811 *   4.00000    1.000000    
     56 Si    c    0.854073 *  0.884027 *  0.035464 *   4.00000    1.000000    
     57 Si    c    0.032392 *  0.151015 *  0.699996 *   4.00000    1.000000    
     58 Si    c    0.884331 *  0.027754 *  0.867084 *   4.00000    1.000000    
     59 Si    c    0.154656 *  0.122104 *  0.531080 *   4.00000    1.000000    
     60 Si    c    0.972028 *  0.849376 *  0.199949 *   4.00000    1.000000    
     61 O2    c    0.932363 *  0.999037 *  0.000369 *   0.87073    1.000000    
     62 O2    c    0.003343 *  0.934003 *  0.331536 *   0.87073    1.000000    
     63 O2    c    0.073633 *  0.072552 *  0.666380 *   0.87073    1.000000    
     64 O2    c    0.068771 *  0.003695 *  0.498444 *   0.87073    1.000000    
     65 O2    c    0.003361 *  0.070355 *  0.833155 *   0.87073    1.000000    
     66 O2    c    0.932383 *  0.932625 *  0.168443 *   0.87073    1.000000    
     67 O2    c    0.341531 *  0.580813 *  0.333785 *   0.87073    1.000000    
     68 O2    c    0.416604 *  0.759511 *  0.665664 *   0.87073    1.000000    
     69 O2    c    0.235008 *  0.654937 *  0.000141 *   0.87073    1.000000    
     70 O2    c    0.679924 *  0.428488 *  0.833346 *   0.87073    1.000000    
     71 O2    c    0.581031 *  0.239996 *  0.168104 *   0.87073    1.000000    
     72 O3    c    0.767541 *  0.343078 *  0.499421 *   1.33043    1.000000    
     73 O3    c    0.579026 *  0.340487 *  0.003267 *   1.33043    1.000000    
     74 O2    c    0.761963 *  0.424394 *  0.671189 *   0.87073    1.000000    
     75 O2    c    0.661902 *  0.239561 *  0.333807 *   0.87073    1.000000    
     76 O2    c    0.425278 *  0.658107 *  0.499701 *   0.87073    1.000000    
     77 O2    c    0.241730 *  0.582268 *  0.167274 *   0.87073    1.000000    
     78 O2    c    0.345591 *  0.743565 *  0.832860 *   0.87073    1.000000    
     79 O2    c    0.120909 *  0.212214 *  0.974871 *   0.87073    1.000000    
     80 O2    c    0.786938 *  0.911839 *  0.306281 *   0.87073    1.000000    
     81 O2    c    0.085079 *  0.874353 *  0.636993 *   0.87073    1.000000    
     82 O2    c    0.879893 *  0.784924 *  0.472594 *   0.87073    1.000000    
     83 O3    c    0.210650 *  0.073284 *  0.803913 *   1.33043    1.000000    
     84 O2    c    0.916766 *  0.129622 *  0.141590 *   0.87073    1.000000    
     85 O2    c    0.215863 *  0.129213 *  0.359826 *   0.87073    1.000000    
     86 O2    c    0.907595 *  0.785029 *  0.028718 *   0.87073    1.000000    
     87 O2    c    0.875911 *  0.086832 *  0.695066 *   0.87073    1.000000    
     88 O2    c    0.793712 *  0.873238 *  0.864517 *   0.87073    1.000000    
     89 O2    c    0.098312 *  0.217443 *  0.525442 *   0.87073    1.000000    
     90 O2    c    0.126748 *  0.912552 *  0.195085 *   0.87073    1.000000    
     91 O2    c    0.928793 *  0.858620 *  0.250144 *   0.87073    1.000000    
     92 O2    c    0.132171 *  0.067451 *  0.581829 *   0.87073    1.000000    
     93 O2    c    0.934627 *  0.072682 *  0.917326 *   0.87073    1.000000    
     94 O2    c    0.073750 *  0.143302 *  0.750564 *   0.87073    1.000000    
     95 O2    c    0.876185 *  0.940998 *  0.085436 *   0.87073    1.000000    
     96 O2    c    0.064635 *  0.937740 *  0.414739 *   0.87073    1.000000    
     97 O2    c    0.896721 *  0.199515 *  0.981660 *   0.87073    1.000000    
     98 O2    c    0.799541 *  0.699484 *  0.314141 *   0.87073    1.000000    
     99 O2    c    0.302526 *  0.094996 *  0.641296 *   0.87073    1.000000    
    100 O2    c    0.116752 *  0.817575 *  0.477400 *   0.87073    1.000000    
    101 O2    c    0.220256 *  0.293201 *  0.814626 *   0.87073    1.000000    
    102 O2    c    0.701641 *  0.905844 *  0.146789 *   0.87073    1.000000    
    103 O2    c    0.205303 *  0.904685 *  0.354272 *   0.87073    1.000000    
    104 O2    c    0.700611 *  0.813838 *  0.024871 *   0.87073    1.000000    
    105 O2    c    0.095069 *  0.300864 *  0.685989 *   0.87073    1.000000    
    106 O2    c    0.796681 *  0.091283 *  0.853877 *   0.87073    1.000000    
    107 O2    c    0.307049 *  0.200114 *  0.519529 *   0.87073    1.000000    
    108 O2    c    0.902228 *  0.699323 *  0.186764 *   0.87073    1.000000    
    109 O2    c    0.323092 *  0.646300 *  0.250674 *   0.87073    1.000000    
    110 O2    c    0.348024 *  0.672737 *  0.582067 *   0.87073    1.000000    
    111 O2    c    0.328375 *  0.666783 *  0.917937 *   0.87073    1.000000    
    112 O2    c    0.673262 *  0.346603 *  0.751534 *   0.87073    1.000000    
    113 O2    c    0.648317 *  0.323980 *  0.085333 *   0.87073    1.000000    
    114 O2    c    0.681535 *  0.325456 *  0.416330 *   0.87073    1.000000    
    115 O3    c    0.366540 *  0.316062 *  0.977111 *   1.33043    1.000000    
    116 O2    c    0.671613 *  0.044401 *  0.304642 *   0.87073    1.000000    
    117 O2    c    0.951212 *  0.625979 *  0.634915 *   0.87073    1.000000    
    118 O2    c    0.629763 *  0.668993 *  0.470798 *   0.87073    1.000000    
    119 O3    c    0.321482 *  0.933974 *  0.807571 *   1.33043    1.000000    
    120 O2    c    0.048415 *  0.377015 *  0.138599 *   0.87073    1.000000    
    121 O2    c    0.331098 *  0.375830 *  0.362602 *   0.87073    1.000000    
    122 O2    c    0.043182 *  0.669611 *  0.030121 *   0.87073    1.000000    
    123 O2    c    0.622766 *  0.955132 *  0.696551 *   0.87073    1.000000    
    124 O2    c    0.686801 *  0.627087 *  0.869075 *   0.87073    1.000000    
    125 O3    c    0.954790 *  0.318081 *  0.526181 *   1.33043    1.000000    
    126 O2    c    0.375053 *  0.044982 *  0.197205 *   0.87073    1.000000    
    127 O2    c    0.769671 *  0.300015 *  0.013128 *   0.87073    1.000000    
    128 O2    c    0.698241 *  0.467986 *  0.344141 *   0.87073    1.000000    
    129 O2    c    0.531421 *  0.227138 *  0.678266 *   0.87073    1.000000    
    130 O2    c    0.233262 *  0.700735 *  0.510323 *   0.87073    1.000000    
    131 O2    c    0.313371 *  0.520687 *  0.848762 *   0.87073    1.000000    
    132 O2    c    0.469625 *  0.772587 *  0.178250 *   0.87073    1.000000    
    133 O2    c    0.303674 *  0.771286 *  0.323434 *   0.87073    1.000000    
    134 O2    c    0.467364 *  0.694645 *  0.990966 *   0.87073    1.000000    
    135 O2    c    0.221855 *  0.531057 *  0.652705 *   0.87073    1.000000    
    136 O2    c    0.694026 *  0.220595 *  0.822885 *   0.87073    1.000000    
    137 O2    c    0.536297 *  0.302041 *  0.488320 *   0.87073    1.000000    
    138 O2    c    0.772906 *  0.467819 *  0.157337 *   0.87073    1.000000    
    139 O2    c    0.786038 *  0.532329 *  0.027978 *   0.87073    1.000000    
    140 O2    c    0.467902 *  0.252650 *  0.361752 *   0.87073    1.000000    
    141 O2    c    0.740290 *  0.207706 *  0.697413 *   0.87073    1.000000    
    142 O2    c    0.209822 *  0.468899 *  0.527451 *   0.87073    1.000000    
    143 O2    c    0.539677 *  0.733957 *  0.867391 *   0.87073    1.000000    
    144 O2    c    0.251330 *  0.786202 *  0.195749 *   0.87073    1.000000    
    145 O2    c    0.535759 *  0.785523 *  0.305561 *   0.87073    1.000000    
    146 O2    c    0.258344 *  0.462897 *  0.972212 *   0.87073    1.000000    
    147 O2    c    0.205965 *  0.740694 *  0.633674 *   0.87073    1.000000    
    148 O3    c    0.471547 *  0.225808 *  0.810694 *   1.33043    1.000000    
    149 O2    c    0.752350 *  0.533696 *  0.472947 *   0.87073    1.000000    
    150 O2    c    0.788422 *  0.252552 *  0.140253 *   0.87073    1.000000    
    151 O2    c    0.245545 *  0.316269 *  0.901060 *   0.87073    1.000000    
    152 O2    c    0.679116 *  0.910937 *  0.231807 *   0.87073    1.000000    
    153 O2    c    0.085054 *  0.763815 *  0.561692 *   0.87073    1.000000    
    154 O2    c    0.772027 *  0.675054 *  0.398526 *   0.87073    1.000000    
    155 O3    c    0.311164 *  0.091242 *  0.726040 *   1.33043    1.000000    
    156 O2    c    0.912381 *  0.232350 *  0.066524 *   0.87073    1.000000    
    157 O2    c    0.323742 *  0.232649 *  0.435033 *   0.87073    1.000000    
    158 O2    c    0.905950 *  0.674813 *  0.102326 *   0.87073    1.000000    
    159 O2    c    0.758232 *  0.083728 *  0.768627 *   0.87073    1.000000    
    160 O2    c    0.681815 *  0.763389 *  0.940593 *   0.87073    1.000000    
    161 O2    c    0.088845 *  0.324827 *  0.600109 *   0.87073    1.000000    
    162 O2    c    0.232384 *  0.909530 *  0.269623 *   0.87073    1.000000    
    163 O3    c    0.603589 *  0.574207 *  0.002690 *   1.33043    1.000000    
    164 O2    c    0.442924 *  0.030101 *  0.324808 *   0.87073    1.000000    
    165 O2    c    0.966530 *  0.411849 *  0.653845 *   0.87073    1.000000    
    166 O2    c    0.413080 *  0.439422 *  0.490958 *   0.87073    1.000000    
    167 O2    c    0.556211 *  0.963352 *  0.823773 *   0.87073    1.000000    
    168 O2    c    0.032531 *  0.591502 *  0.157582 *   0.87073    1.000000    
    169 O2    c    0.561158 *  0.590280 *  0.343364 *   0.87073    1.000000    
    170 O2    c    0.029521 *  0.439115 *  0.010403 *   0.87073    1.000000    
    171 O2    c    0.410465 *  0.969807 *  0.677394 *   0.87073    1.000000    
    172 O2    c    0.459314 *  0.414747 *  0.848423 *   0.87073    1.000000    
    173 O3    c    0.975531 *  0.575995 *  0.499948 *   1.33043    1.000000    
    174 O2    c    0.589147 *  0.030591 *  0.176889 *   0.87073    1.000000    
    175 O2    c    0.584804 *  0.166788 *  0.250916 *   0.87073    1.000000    
    176 O3    c    0.811757 *  0.413744 *  0.586021 *   1.33043    1.000000    
    177 O3    c    0.609902 *  0.413469 *  0.917726 *   1.33043    1.000000    
    178 O2    c    0.415920 *  0.830451 *  0.749696 *   0.87073    1.000000    
    179 O2    c    0.169525 *  0.584426 *  0.083778 *   0.87073    1.000000    
    180 O2    c    0.417043 *  0.583029 *  0.417036 *   0.87073    1.000000    
    181 F     c    0.452919 *  0.905385 *  0.251113 *   0.56000    1.000000    
    182 F     c    0.050871 *  0.525480 *  0.572700 *   0.56000    1.000000    
    183 F     c    0.479337 *  0.522192 *  0.929775 *   0.56000    1.000000    
    184 F     c    0.507683 *  0.086659 *  0.756073 *   0.56000    1.000000    
    185 F     c    0.912154 *  0.454759 *  0.084391 *   0.56000    1.000000    
    186 F     c    0.546054 *  0.455108 *  0.417274 *   0.56000    1.000000    
    187 O2    s    0.927668 *  0.999870 *  0.000712 *  -2.87073    1.000000    
    188 O2    s    0.002988 *  0.929267 *  0.331845 *  -2.87073    1.000000    
    189 O2    s    0.077237 *  0.076424 *  0.666329 *  -2.87073    1.000000    
    190 O2    s    0.074398 *  0.003797 *  0.498424 *  -2.87073    1.000000    
    191 O2    s    0.003029 *  0.073033 *  0.833604 *  -2.87073    1.000000    
    192 O2    s    0.928055 *  0.928210 *  0.168279 *  -2.87073    1.000000    
    193 O2    s    0.353289 *  0.588309 *  0.333723 *  -2.87073    1.000000    
    194 O2    s    0.408995 *  0.763351 *  0.665572 *  -2.87073    1.000000    
    195 O2    s    0.232030 *  0.643453 *  0.000201 *  -2.87073    1.000000    
    196 O2    s    0.666859 *  0.419162 *  0.833821 *  -2.87073    1.000000    
    197 O2    s    0.588569 *  0.235648 *  0.168059 *  -2.87073    1.000000    
    198 O3    s    0.767858 *  0.353174 *  0.498429 *  -3.33043    1.000000    
    199 O3    s    0.589069 *  0.350757 *  0.004125 *  -3.33043    1.000000    
    200 O2    s    0.764050 *  0.415123 *  0.670607 *  -2.87073    1.000000    
    201 O2    s    0.650146 *  0.235427 *  0.333857 *  -2.87073    1.000000    
    202 O2    s    0.416484 *  0.646591 *  0.499825 *  -2.87073    1.000000    
    203 O2    s    0.237467 *  0.589768 *  0.167365 *  -2.87073    1.000000    
    204 O2    s    0.356667 *  0.748702 *  0.833442 *  -2.87073    1.000000    
    205 O2    s    0.118140 *  0.214828 *  0.972142 *  -2.87073    1.000000    
    206 O2    s    0.783657 *  0.905223 *  0.303603 *  -2.87073    1.000000    
    207 O2    s    0.091365 *  0.877305 *  0.634275 *  -2.87073    1.000000    
    208 O2    s    0.883169 *  0.782664 *  0.469827 *  -2.87073    1.000000    
    209 O3    s    0.211130 *  0.081784 *  0.802169 *  -3.33043    1.000000    
    210 O2    s    0.910044 *  0.126105 *  0.138837 *  -2.87073    1.000000    
    211 O2    s    0.219014 *  0.125696 *  0.362493 *  -2.87073    1.000000    
    212 O2    s    0.902041 *  0.782564 *  0.031370 *  -2.87073    1.000000    
    213 O2    s    0.878092 *  0.093092 *  0.697615 *  -2.87073    1.000000    
    214 O2    s    0.790621 *  0.876354 *  0.867070 *  -2.87073    1.000000    
    215 O2    s    0.103377 *  0.219771 *  0.528215 *  -2.87073    1.000000    
    216 O2    s    0.123312 *  0.905741 *  0.197700 *  -2.87073    1.000000    
    217 O2    s    0.928011 *  0.856533 *  0.250204 *  -2.87073    1.000000    
    218 O2    s    0.136579 *  0.069005 *  0.581998 *  -2.87073    1.000000    
    219 O2    s    0.932586 *  0.072781 *  0.917247 *  -2.87073    1.000000    
    220 O2    s    0.074735 *  0.144070 *  0.749906 *  -2.87073    1.000000    
    221 O2    s    0.871288 *  0.938470 *  0.085350 *  -2.87073    1.000000    
    222 O2    s    0.067512 *  0.935956 *  0.414966 *  -2.87073    1.000000    
    223 O2    s    0.905108 *  0.201027 *  0.984107 *  -2.87073    1.000000    
    224 O2    s    0.797812 *  0.705529 *  0.316622 *  -2.87073    1.000000    
    225 O2    s    0.295485 *  0.088036 *  0.644469 *  -2.87073    1.000000    
    226 O2    s    0.106265 *  0.813339 *  0.479762 *  -2.87073    1.000000    
    227 O2    s    0.221032 *  0.287979 *  0.817376 *  -2.87073    1.000000    
    228 O2    s    0.707926 *  0.913303 *  0.149517 *  -2.87073    1.000000    
    229 O2    s    0.206540 *  0.912228 *  0.351506 *  -2.87073    1.000000    
    230 O2    s    0.707267 *  0.810028 *  0.022357 *  -2.87073    1.000000    
    231 O2    s    0.088022 *  0.294779 *  0.683419 *  -2.87073    1.000000    
    232 O2    s    0.795013 *  0.084307 *  0.851236 *  -2.87073    1.000000    
    233 O2    s    0.300019 *  0.201674 *  0.517001 *  -2.87073    1.000000    
    234 O2    s    0.909990 *  0.705505 *  0.184283 *  -2.87073    1.000000    
    235 O2    s    0.329012 *  0.657924 *  0.250698 *  -2.87073    1.000000    
    236 O2    s    0.337732 *  0.668019 *  0.582261 *  -2.87073    1.000000    
    237 O2    s    0.333655 *  0.661651 *  0.917906 *  -2.87073    1.000000    
    238 O2    s    0.668402 *  0.336355 *  0.751328 *  -2.87073    1.000000    
    239 O2    s    0.659413 *  0.329207 *  0.085557 *  -2.87073    1.000000    
    240 O2    s    0.675756 *  0.330572 *  0.416211 *  -2.87073    1.000000    
    241 O3    s    0.365568 *  0.325523 *  0.974184 *  -3.33043    1.000000    
    242 O2    s    0.661530 *  0.037772 *  0.302384 *  -2.87073    1.000000    
    243 O2    s    0.957656 *  0.623429 *  0.632744 *  -2.87073    1.000000    
    244 O2    s    0.626233 *  0.658680 *  0.468558 *  -2.87073    1.000000    
    245 O3    s    0.333472 *  0.938043 *  0.805283 *  -3.33043    1.000000    
    246 O2    s    0.041402 *  0.380126 *  0.136314 *  -2.87073    1.000000    
    247 O2    s    0.341212 *  0.379087 *  0.364869 *  -2.87073    1.000000    
    248 O2    s    0.036378 *  0.659300 *  0.032328 *  -2.87073    1.000000    
    249 O2    s    0.619724 *  0.961213 *  0.698668 *  -2.87073    1.000000    
    250 O2    s    0.677162 *  0.624353 *  0.871035 *  -2.87073    1.000000    
    251 O3    s    0.965602 *  0.327922 *  0.528857 *  -3.33043    1.000000    
    252 O2    s    0.378449 *  0.038224 *  0.199425 *  -2.87073    1.000000    
    253 O2    s    0.777226 *  0.307684 *  0.016041 *  -2.87073    1.000000    
    254 O2    s    0.690914 *  0.467475 *  0.347302 *  -2.87073    1.000000    
    255 O2    s    0.532067 *  0.220900 *  0.681112 *  -2.87073    1.000000    
    256 O2    s    0.226747 *  0.693108 *  0.512729 *  -2.87073    1.000000    
    257 O2    s    0.320956 *  0.522313 *  0.851407 *  -2.87073    1.000000    
    258 O2    s    0.469039 *  0.779640 *  0.181302 *  -2.87073    1.000000    
    259 O2    s    0.311346 *  0.778353 *  0.320310 *  -2.87073    1.000000    
    260 O2    s    0.466632 *  0.687321 *  0.988507 *  -2.87073    1.000000    
    261 O2    s    0.215948 *  0.531981 *  0.649943 *  -2.87073    1.000000    
    262 O2    s    0.687299 *  0.214171 *  0.820218 *  -2.87073    1.000000    
    263 O2    s    0.536282 *  0.309479 *  0.485439 *  -2.87073    1.000000    
    264 O2    s    0.779836 *  0.467410 *  0.154147 *  -2.87073    1.000000    
    265 O2    s    0.791339 *  0.530958 *  0.030741 *  -2.87073    1.000000    
    266 O2    s    0.470537 *  0.260447 *  0.364297 *  -2.87073    1.000000    
    267 O2    s    0.734266 *  0.203539 *  0.699614 *  -2.87073    1.000000    
    268 O2    s    0.206722 *  0.471883 *  0.529586 *  -2.87073    1.000000    
    269 O2    s    0.537094 *  0.727890 *  0.869494 *  -2.87073    1.000000    
    270 O2    s    0.259388 *  0.791370 *  0.198343 *  -2.87073    1.000000    
    271 O2    s    0.532867 *  0.790740 *  0.302982 *  -2.87073    1.000000    
    272 O2    s    0.265060 *  0.466155 *  0.970293 *  -2.87073    1.000000    
    273 O2    s    0.202384 *  0.734385 *  0.631639 *  -2.87073    1.000000    
    274 O3    s    0.478403 *  0.222440 *  0.807930 *  -3.33043    1.000000    
    275 O2    s    0.745416 *  0.531994 *  0.470242 *  -2.87073    1.000000    
    276 O2    s    0.793605 *  0.260352 *  0.137636 *  -2.87073    1.000000    
    277 O2    s    0.253641 *  0.325216 *  0.901531 *  -2.87073    1.000000    
    278 O2    s    0.669328 *  0.910589 *  0.232671 *  -2.87073    1.000000    
    279 O2    s    0.086050 *  0.756498 *  0.562892 *  -2.87073    1.000000    
    280 O2    s    0.762522 *  0.665659 *  0.399437 *  -2.87073    1.000000    
    281 O3    s    0.322823 *  0.091150 *  0.725551 *  -3.33043    1.000000    
    282 O2    s    0.911821 *  0.241698 *  0.067379 *  -2.87073    1.000000    
    283 O2    s    0.333740 *  0.242006 *  0.434119 *  -2.87073    1.000000    
    284 O2    s    0.906118 *  0.665514 *  0.101475 *  -2.87073    1.000000    
    285 O2    s    0.750572 *  0.084334 *  0.767760 *  -2.87073    1.000000    
    286 O2    s    0.673676 *  0.755702 *  0.939341 *  -2.87073    1.000000    
    287 O2    s    0.088723 *  0.333367 *  0.599706 *  -2.87073    1.000000    
    288 O2    s    0.242007 *  0.909342 *  0.268754 *  -2.87073    1.000000    
    289 O3    s    0.599178 *  0.578557 *  0.998888 *  -3.33043    1.000000    
    290 O2    s    0.442704 *  0.025232 *  0.321428 *  -2.87073    1.000000    
    291 O2    s    0.971298 *  0.415454 *  0.651083 *  -2.87073    1.000000    
    292 O2    s    0.418248 *  0.439450 *  0.487479 *  -2.87073    1.000000    
    293 O2    s    0.556905 *  0.967943 *  0.820871 *  -2.87073    1.000000    
    294 O2    s    0.027323 *  0.586426 *  0.154250 *  -2.87073    1.000000    
    295 O2    s    0.561236 *  0.585295 *  0.346689 *  -2.87073    1.000000    
    296 O2    s    0.024370 *  0.438958 *  0.013840 *  -2.87073    1.000000    
    297 O2    s    0.414627 *  0.973386 *  0.680265 *  -2.87073    1.000000    
    298 O2    s    0.457614 *  0.417228 *  0.851218 *  -2.87073    1.000000    
    299 O3    s    0.984327 *  0.580501 *  0.503704 *  -3.33043    1.000000    
    300 O2    s    0.584656 *  0.025725 *  0.180240 *  -2.87073    1.000000    
    301 O2    s    0.579330 *  0.155892 *  0.250936 *  -2.87073    1.000000    
    302 O3    s    0.824630 *  0.420914 *  0.587768 *  -3.33043    1.000000    
    303 O3    s    0.604373 *  0.420687 *  0.915932 *  -3.33043    1.000000    
    304 O2    s    0.420758 *  0.840115 *  0.749466 *  -2.87073    1.000000    
    305 O2    s    0.157924 *  0.578713 *  0.083826 *  -2.87073    1.000000    
    306 O2    s    0.423000 *  0.577461 *  0.416992 *  -2.87073    1.000000    
    307 F     s    0.452674 *  0.905012 *  0.251158 *  -1.56000    1.000000    
    308 F     s    0.041299 *  0.519747 *  0.570388 *  -1.56000    1.000000    
    309 F     s    0.483214 *  0.516559 *  0.932221 *  -1.56000    1.000000    
    310 F     s    0.499186 *  0.086521 *  0.757512 *  -1.56000    1.000000    
    311 F     s    0.912694 *  0.454910 *  0.084386 *  -1.56000    1.000000    
    312 F     s    0.545645 *  0.455301 *  0.417339 *  -1.56000    1.000000    
--------------------------------------------------------------------------------



********************************************************************************
*  General input information                                                   *
********************************************************************************

  Species output for all configurations : 

--------------------------------------------------------------------------------
  Species    Type    Atomic    Atomic    Charge       Radii (Angs)     Library
                     Number     Mass       (e)     Cova   Ionic  VDW   Symbol
--------------------------------------------------------------------------------
    Si       Core       14      28.09   4.000000   1.200  0.000  2.100          
    O1       Core        8      16.00   1.733957   0.730  0.000  1.360          
    O1       Shell       8       0.00  -3.733957   0.730  0.000  1.360          
    O2       Core        8      16.00   0.870733   0.730  0.000  1.360          
    O2       Shell       8       0.00  -2.870733   0.730  0.000  1.360          
    O3       Core        8      16.00   1.330431   0.730  0.000  1.360          
    O3       Shell       8       0.00  -3.330431   0.730  0.000  1.360          
    F        Core        9      19.00   0.560000   0.710  0.000  1.300          
    F        Shell       9       0.00  -1.560000   0.710  0.000  1.300          
    Ge       Core       32      72.61   4.000000   1.170  0.000  1.750          
--------------------------------------------------------------------------------


  Lattice summation method               =    Ewald          (3-D)
                                         =    Parry          (2-D)
                                         =    Saunders et al (1-D)
  Accuracy factor for lattice sums       =   12.000


  Time limit = Infinity

  Maximum range for interatomic potentials =        16.000000 Angstroms

  Taper potentials to zero over   1.0000 Angstroms using polynomial

  General interatomic potentials :

--------------------------------------------------------------------------------
Atom  Types   Potential         A         B         C         D     Cutoffs(Ang)
  1     2                                                            Min    Max 
--------------------------------------------------------------------------------
Si   c O1   s Buckingham    0.132E+04 0.318      10.1      0.00     0.000 16.000
Si   c O2   s Buckingham    0.132E+04 0.318      10.1      0.00     0.000 16.000
Si   c O3   s Buckingham    0.132E+04 0.318      10.1      0.00     0.000 16.000
Ge   c O1   s Buckingham    0.150E+04 0.326      16.8      0.00     0.000 16.000
Ge   c O2   s Buckingham    0.150E+04 0.326      16.8      0.00     0.000 16.000
Ge   c O3   s Buckingham    0.150E+04 0.326      16.8      0.00     0.000 16.000
O1   s O1   s Buckingham    0.228E+05 0.149      10.9      0.00     0.000 16.000
O1   s O2   s Buckingham    0.228E+05 0.149      10.9      0.00     0.000 16.000
O1   s O3   s Buckingham    0.228E+05 0.149      10.9      0.00     0.000 16.000
O2   s O2   s Buckingham    0.228E+05 0.149      10.9      0.00     0.000 16.000
O2   s O3   s Buckingham    0.228E+05 0.149      10.9      0.00     0.000 16.000
O3   s O3   s Buckingham    0.228E+05 0.149      10.9      0.00     0.000 16.000
Si   c F    s Buckingham     977.     0.282      0.00      0.00     0.000 16.000
Ge   c F    s Buckingham     681.     0.320      0.00      0.00     0.000 16.000
F    s F    s Buckingham     540.     0.262      0.00      0.00     0.000 16.000
O1   s F    s Buckingham    0.168E+04 0.268      0.00      0.00     0.000 16.000
O2   s F    s Buckingham    0.168E+04 0.268      0.00      0.00     0.000 16.000
O3   s F    s Buckingham    0.168E+04 0.268      0.00      0.00     0.000 16.000
O2   c O2   s Spring (c-s)   76.0      0.00      0.00      0.00     0.000  0.800
O3   c O3   s Spring (c-s)   128.      0.00      0.00      0.00     0.000  0.800
O1   c O1   s Spring (c-s)   180.      0.00      0.00      0.00     0.000  0.800
F    c F    s Spring (c-s)   33.5      0.00      0.00      0.00     0.000  0.800
--------------------------------------------------------------------------------

  General Three-body potentials :

  Harmonic form:

--------------------------------------------------------------------------------
Atom    Atom    Atom           Force Constants            Theta     Cutoffs  
  1       2       3     (eVrad**-2/eVrad**-3/eVrad**-4)   (deg)  1-2  1-3  2-3
--------------------------------------------------------------------------------
Si    c O1    s O1    s  1.261        0.0000    0.0000   109.470 0.00 0.00 0.00
                                                                 1.90 1.90 3.50
Si    c O1    s O2    s  1.261        0.0000    0.0000   109.470 0.00 0.00 0.00
                                                                 1.90 1.90 3.50
Si    c O2    s O2    s  1.261        0.0000    0.0000   109.470 0.00 0.00 0.00
                                                                 1.90 1.90 3.50
--------------------------------------------------------------------------------

********************************************************************************
*  Output for configuration   1                                                *
********************************************************************************


  Components of energy : 

--------------------------------------------------------------------------------
  Interatomic potentials     =        2066.78924409 eV
  Three-body potentials      =           0.47440178 eV
  Monopole - monopole (real) =       -6617.10808477 eV
  Monopole - monopole (recip)=       -3170.91429376 eV
  Monopole - monopole (total)=       -9788.02237853 eV
  Neutralising energy        =          -6.45917447 eV
--------------------------------------------------------------------------------
  Total lattice energy       =       -7727.21790712 eV
--------------------------------------------------------------------------------
  Total lattice energy       =         -745558.4067 kJ/(mole unit cells)
--------------------------------------------------------------------------------


  Number of variables =      939

  Maximum number of calculations  =          5000
  Maximum Hessian update interval =            10
  Maximum step size               =   0.100000000
  Maximum parameter tolerance     =   0.000010000
  Maximum function  tolerance     =   0.000010000
  Maximum gradient  tolerance     =   0.001000000
  Maximum gradient  component     =   0.010000000

  Symmetry not applied to optimisation

  Cell parameters to be optimised using strains

  Newton-Raphson optimiser to be used

  BFGS hessian update to be used

  Dumpfile to be written after every cycle

  Start of bulk optimisation :

  Cycle:      0 Energy:     -7727.217907  Gnorm:      0.009932  CPU:    2.035
  ** Hessian calculated **
  Cycle:      1 Energy:     -7727.240767  Gnorm:      0.006516  CPU:    6.621
  Cycle:      2 Energy:     -7727.253529  Gnorm:      0.003351  CPU:   10.832
  Cycle:      3 Energy:     -7727.256738  Gnorm:      0.001722  CPU:   15.041
  Cycle:      4 Energy:     -7727.257551  Gnorm:      0.000875  CPU:   19.250
  Cycle:      5 Energy:     -7727.257758  Gnorm:      0.000441  CPU:   23.458
  Cycle:      6 Energy:     -7727.257802  Gnorm:      0.000265  CPU:   26.986
  Cycle:      7 Energy:     -7727.257815  Gnorm:      0.000186  CPU:   29.825
  Cycle:      8 Energy:     -7727.257821  Gnorm:      0.000130  CPU:   32.666
  Cycle:      9 Energy:     -7727.257824  Gnorm:      0.000091  CPU:   35.506
  Cycle:     10 Energy:     -7727.257826  Gnorm:      0.000064  CPU:   38.346
  ** Hessian calculated **


  **** Optimisation achieved ****


  Final energy =   -7727.25782562 eV
  Final Gnorm  =       0.00002312

  Components of energy : 

--------------------------------------------------------------------------------
  Interatomic potentials     =        2066.78082476 eV
  Three-body potentials      =           0.47859642 eV
  Monopole - monopole (real) =       -6617.95115309 eV
  Monopole - monopole (recip)=       -3170.10856116 eV
  Monopole - monopole (total)=       -9788.05971426 eV
  Neutralising energy        =          -6.45753254 eV
--------------------------------------------------------------------------------
  Total lattice energy       =       -7727.25782562 eV
--------------------------------------------------------------------------------
  Total lattice energy       =         -745562.2582 kJ/(mole unit cells)
--------------------------------------------------------------------------------

  Final fractional coordinates of atoms :

--------------------------------------------------------------------------------
   No.  Atomic        x           y          z          Radius
        Label       (Frac)      (Frac)     (Frac)       (Angs) 
--------------------------------------------------------------------------------
     1  Si    c     0.699600    0.375700    0.033890    0.000000
     2  Si    c     0.628376    0.325676    0.365385    0.000000
     3  Si    c     0.669301    0.285620    0.700109    0.000000
     4  Si    c     0.297587    0.615241    0.529325    0.000000
     5  Si    c     0.384793    0.656799    0.866786    0.000000
     6  Si    c     0.331302    0.706207    0.198903    0.000000
     7  Si    c     0.384652    0.703907    0.299598    0.000000
     8  Si    c     0.323974    0.611955    0.968604    0.000000
     9  Si    c     0.289840    0.665180    0.631293    0.000000
    10  Si    c     0.619976    0.287508    0.802689    0.000000
    11  Si    c     0.684669    0.376378    0.466795    0.000000
    12  Si    c     0.710487    0.327472    0.135134    0.000000
    13  Ge    c     0.533415    0.427219    0.967552    0.000000
    14  Si    c     0.590500    0.115000    0.301127    0.000000
    15  Si    c     0.870603    0.457896    0.632674    0.000000
    16  Si    c     0.474127    0.577731    0.465754    0.000000
    17  Si    c     0.406779    0.861239    0.801322    0.000000
    18  Si    c     0.121676    0.534753    0.133220    0.000000
    19  Si    c     0.421984    0.531174    0.364709    0.000000
    20  Si    c     0.111396    0.578844    0.032227    0.000000
    21  Si    c     0.460996    0.871371    0.697923    0.000000
    22  Si    c     0.604997    0.461706    0.869493    0.000000
    23  Ge    c     0.902004    0.426780    0.533851    0.000000
    24  Si    c     0.538683    0.116739    0.199771    0.000000
    25  Si    c     0.313940    0.377569    0.853340    0.000000
    26  Si    c     0.610801    0.908742    0.184729    0.000000
    27  Si    c     0.096884    0.699093    0.511635    0.000000
    28  Si    c     0.704393    0.602932    0.350937    0.000000
    29  Si    c     0.387365    0.082941    0.682104    0.000000
    30  Si    c     0.903635    0.299187    0.019206    0.000000
    31  Si    c     0.403026    0.299461    0.480123    0.000000
    32  Si    c     0.911473    0.605463    0.147839    0.000000
    33  Si    c     0.690992    0.076787    0.815890    0.000000
    34  Si    c     0.608594    0.698681    0.988455    0.000000
    35  Si    c     0.084819    0.383576    0.645758    0.000000
    36  Si    c     0.309198    0.905719    0.314892    0.000000
    37  Si    c     0.252776    0.325378    0.955348    0.000000
    38  Si    c     0.666359    0.913470    0.285182    0.000000
    39  Si    c     0.076077    0.738122    0.614607    0.000000
    40  Si    c     0.753912    0.656594    0.451674    0.000000
    41  Ge    c     0.352413    0.071841    0.782017    0.000000
    42  Si    c     0.920962    0.256283    0.119625    0.000000
    43  Si    c     0.345256    0.253696    0.379689    0.000000
    44  Si    c     0.911051    0.657919    0.047116    0.000000
    45  Si    c     0.743603    0.073083    0.713769    0.000000
    46  Si    c     0.673286    0.739083    0.885772    0.000000
    47  Si    c     0.083601    0.328163    0.543654    0.000000
    48  Si    c     0.259459    0.914674    0.214623    0.000000
    49  Si    c     0.966640    0.117762    0.967648    0.000000
    50  Si    c     0.883870    0.850211    0.299644    0.000000
    51  Si    c     0.144995    0.019199    0.630693    0.000000
    52  Si    c     0.033908    0.881169    0.464049    0.000000
    53  Si    c     0.127821    0.134300    0.799628    0.000000
    54  Si    c     0.861057    0.978610    0.134573    0.000000
    55  Si    c     0.128062    0.974959    0.363941    0.000000
    56  Si    c     0.854870    0.881984    0.034519    0.000000
    57  Si    c     0.028576    0.141474    0.699100    0.000000
    58  Si    c     0.882295    0.020961    0.866347    0.000000
    59  Si    c     0.155688    0.117436    0.530245    0.000000
    60  Si    c     0.978679    0.852347    0.198879    0.000000
    61  O2    c     0.930098    0.996127    0.998980    0.000000
    62  O2    c     0.008398    0.933290    0.330533    0.000000
    63  O2    c     0.070060    0.063325    0.665365    0.000000
    64  O2    c     0.072342    0.999343    0.497410    0.000000
    65  O2    c     0.001380    0.065511    0.832256    0.000000
    66  O2    c     0.939809    0.935679    0.167106    0.000000
    67  O2    c     0.346043    0.580933    0.332199    0.000000
    68  O2    c     0.411003    0.748066    0.664700    0.000000
    69  O2    c     0.235890    0.651696    0.998257    0.000000
    70  O2    c     0.677623    0.417296    0.832762    0.000000
    71  O2    c     0.587897    0.243095    0.168269    0.000000
    72  O3    c     0.766245    0.339007    0.498364    0.000000
    73  O3    c     0.578215    0.338103    0.003661    0.000000
    74  O2    c     0.756062    0.412519    0.670400    0.000000
    75  O2    c     0.667094    0.240479    0.333182    0.000000
    76  O2    c     0.423545    0.653271    0.498738    0.000000
    77  O2    c     0.248443    0.585407    0.165423    0.000000
    78  O2    c     0.343030    0.731880    0.831583    0.000000
    79  O2    c     0.119181    0.208401    0.973988    0.000000
    80  O2    c     0.792328    0.912692    0.305535    0.000000
    81  O2    c     0.078840    0.864514    0.635403    0.000000
    82  O2    c     0.881077    0.783232    0.471374    0.000000
    83  O3    c     0.205554    0.061993    0.802870    0.000000
    84  O2    c     0.923396    0.131906    0.140168    0.000000
    85  O2    c     0.219529    0.128461    0.358960    0.000000
    86  O2    c     0.909650    0.784098    0.027636    0.000000
    87  O2    c     0.871763    0.075563    0.694620    0.000000
    88  O2    c     0.795374    0.866036    0.864249    0.000000
    89  O2    c     0.097013    0.210623    0.524315    0.000000
    90  O2    c     0.133576    0.915778    0.194428    0.000000
    91  O2    c     0.933830    0.860444    0.248990    0.000000
    92  O2    c     0.132297    0.061746    0.580850    0.000000
    93  O2    c     0.932758    0.070055    0.916253    0.000000
    94  O2    c     0.072264    0.136364    0.749566    0.000000
    95  O2    c     0.879308    0.940924    0.084242    0.000000
    96  O2    c     0.068504    0.935098    0.413749    0.000000
    97  O2    c     0.895616    0.197610    0.980766    0.000000
    98  O2    c     0.803962    0.700021    0.313007    0.000000
    99  O2    c     0.298113    0.083060    0.640459    0.000000
   100  O2    c     0.115683    0.810712    0.476238    0.000000
   101  O2    c     0.221597    0.284507    0.813675    0.000000
   102  O2    c     0.708255    0.908461    0.146120    0.000000
   103  O2    c     0.210822    0.904896    0.353417    0.000000
   104  O2    c     0.701019    0.809762    0.024284    0.000000
   105  O2    c     0.089416    0.290630    0.684705    0.000000
   106  O2    c     0.790849    0.079874    0.853047    0.000000
   107  O2    c     0.308176    0.198030    0.518734    0.000000
   108  O2    c     0.909573    0.702549    0.185649    0.000000
   109  O2    c     0.329088    0.648154    0.249166    0.000000
   110  O2    c     0.343580    0.663005    0.581259    0.000000
   111  O2    c     0.329734    0.660020    0.916576    0.000000
   112  O2    c     0.667092    0.334403    0.750783    0.000000
   113  O2    c     0.651889    0.326193    0.085682    0.000000
   114  O2    c     0.684555    0.326165    0.415301    0.000000
   115  O3    c     0.365766    0.310590    0.976410    0.000000
   116  O2    c     0.677478    0.045367    0.304119    0.000000
   117  O2    c     0.945831    0.615647    0.634118    0.000000
   118  O2    c     0.630538    0.667615    0.469776    0.000000
   119  O3    c     0.315471    0.921318    0.806614    0.000000
   120  O2    c     0.054223    0.379190    0.137217    0.000000
   121  O2    c     0.334525    0.375407    0.361299    0.000000
   122  O2    c     0.045168    0.668636    0.028576    0.000000
   123  O2    c     0.618141    0.943737    0.695387    0.000000
   124  O2    c     0.687824    0.619322    0.868368    0.000000
   125  O3    c     0.952054    0.310235    0.525004    0.000000
   126  O2    c     0.381784    0.047391    0.196616    0.000000
   127  O2    c     0.769872    0.299625    0.013161    0.000000
   128  O2    c     0.702115    0.468471    0.342993    0.000000
   129  O2    c     0.526376    0.214637    0.677542    0.000000
   130  O2    c     0.231113    0.694222    0.509688    0.000000
   131  O2    c     0.314699    0.512157    0.847672    0.000000
   132  O2    c     0.476180    0.775532    0.177150    0.000000
   133  O2    c     0.309225    0.771980    0.322162    0.000000
   134  O2    c     0.468075    0.690491    0.989923    0.000000
   135  O2    c     0.215592    0.521298    0.651853    0.000000
   136  O2    c     0.688583    0.208693    0.821908    0.000000
   137  O2    c     0.537304    0.300744    0.487185    0.000000
   138  O2    c     0.779938    0.470602    0.157062    0.000000
   139  O2    c     0.787259    0.531941    0.027639    0.000000
   140  O2    c     0.471795    0.253197    0.360647    0.000000
   141  O2    c     0.735530    0.196131    0.696911    0.000000
   142  O2    c     0.206700    0.461752    0.526003    0.000000
   143  O2    c     0.540733    0.725919    0.866096    0.000000
   144  O2    c     0.257875    0.788857    0.194767    0.000000
   145  O2    c     0.541144    0.786230    0.304341    0.000000
   146  O2    c     0.259448    0.458268    0.971402    0.000000
   147  O2    c     0.200514    0.730957    0.632457    0.000000
   148  O3    c     0.466345    0.213792    0.810052    0.000000
   149  O2    c     0.753238    0.532517    0.472145    0.000000
   150  O2    c     0.794489    0.255140    0.139658    0.000000
   151  O2    c     0.245544    0.309316    0.900353    0.000000
   152  O2    c     0.685550    0.913058    0.231000    0.000000
   153  O2    c     0.078976    0.753595    0.560590    0.000000
   154  O2    c     0.774553    0.674558    0.397525    0.000000
   155  O3    c     0.305783    0.078990    0.725263    0.000000
   156  O2    c     0.915326    0.233226    0.065518    0.000000
   157  O2    c     0.326000    0.231860    0.433875    0.000000
   158  O2    c     0.910665    0.676201    0.101312    0.000000
   159  O2    c     0.752085    0.070559    0.767803    0.000000
   160  O2    c     0.682218    0.756606    0.939771    0.000000
   161  O2    c     0.085503    0.316633    0.598770    0.000000
   162  O2    c     0.238700    0.911305    0.268824    0.000000
   163  O3    c     0.602749    0.569473    0.002219    0.000000
   164  O2    c     0.448633    0.030689    0.324254    0.000000
   165  O2    c     0.960338    0.400596    0.652584    0.000000
   166  O2    c     0.413758    0.437338    0.489821    0.000000
   167  O2    c     0.550462    0.951984    0.823066    0.000000
   168  O2    c     0.039652    0.594794    0.156209    0.000000
   169  O2    c     0.564865    0.590371    0.342131    0.000000
   170  O2    c     0.029819    0.437739    0.008986    0.000000
   171  O2    c     0.405231    0.957736    0.676559    0.000000
   172  O2    c     0.459943    0.405991    0.848113    0.000000
   173  O3    c     0.974104    0.568149    0.498571    0.000000
   174  O2    c     0.596380    0.033609    0.176258    0.000000
   175  O2    c     0.591216    0.168486    0.250543    0.000000
   176  O3    c     0.807580    0.404790    0.584936    0.000000
   177  O3    c     0.610757    0.407635    0.917620    0.000000
   178  O2    c     0.411433    0.818886    0.748702    0.000000
   179  O2    c     0.173583    0.584777    0.081936    0.000000
   180  O2    c     0.418894    0.581873    0.415743    0.000000
   181  F     c     0.459954    0.908058    0.250239    0.000000
   182  F     c     0.047079    0.516963    0.571803    0.000000
   183  F     c     0.479770    0.516346    0.928878    0.000000
   184  F     c     0.501758    0.073985    0.755342    0.000000
   185  F     c     0.917039    0.456999    0.083655    0.000000
   186  F     c     0.548570    0.455614    0.416173    0.000000
   187  O2    s     0.925751    0.997089    0.999417    0.000000
   188  O2    s     0.007949    0.928654    0.330848    0.000000
   189  O2    s     0.073594    0.067128    0.665317    0.000000
   190  O2    s     0.077549    0.999467    0.497398    0.000000
   191  O2    s     0.001068    0.067649    0.832704    0.000000
   192  O2    s     0.935279    0.931171    0.166999    0.000000
   193  O2    s     0.357748    0.588415    0.332180    0.000000
   194  O2    s     0.403507    0.752112    0.664622    0.000000
   195  O2    s     0.232994    0.640219    0.998425    0.000000
   196  O2    s     0.664571    0.408349    0.833267    0.000000
   197  O2    s     0.595377    0.238622    0.168137    0.000000
   198  O3    s     0.766921    0.349319    0.497423    0.000000
   199  O3    s     0.588484    0.348511    0.004460    0.000000
   200  O2    s     0.758278    0.403445    0.669811    0.000000
   201  O2    s     0.655233    0.236310    0.333196    0.000000
   202  O2    s     0.414916    0.641746    0.498819    0.000000
   203  O2    s     0.244063    0.592690    0.165601    0.000000
   204  O2    s     0.354267    0.737474    0.832175    0.000000
   205  O2    s     0.116630    0.211063    0.971235    0.000000
   206  O2    s     0.789044    0.906070    0.302817    0.000000
   207  O2    s     0.085414    0.867498    0.632788    0.000000
   208  O2    s     0.884395    0.780751    0.468620    0.000000
   209  O3    s     0.206393    0.070788    0.801169    0.000000
   210  O2    s     0.916511    0.128335    0.137492    0.000000
   211  O2    s     0.222757    0.125011    0.361611    0.000000
   212  O2    s     0.904010    0.781593    0.030313    0.000000
   213  O2    s     0.873898    0.081944    0.697096    0.000000
   214  O2    s     0.791808    0.869137    0.866692    0.000000
   215  O2    s     0.102191    0.213159    0.527106    0.000000
   216  O2    s     0.130075    0.908853    0.196985    0.000000
   217  O2    s     0.933233    0.858347    0.249073    0.000000
   218  O2    s     0.136332    0.062977    0.581013    0.000000
   219  O2    s     0.930699    0.069674    0.916215    0.000000
   220  O2    s     0.072911    0.136708    0.748909    0.000000
   221  O2    s     0.874495    0.938416    0.084192    0.000000
   222  O2    s     0.071206    0.933359    0.413962    0.000000
   223  O2    s     0.904017    0.199092    0.983158    0.000000
   224  O2    s     0.802236    0.706035    0.315488    0.000000
   225  O2    s     0.291029    0.076301    0.643632    0.000000
   226  O2    s     0.105294    0.806686    0.478587    0.000000
   227  O2    s     0.221947    0.279356    0.816432    0.000000
   228  O2    s     0.714532    0.915913    0.148815    0.000000
   229  O2    s     0.211991    0.912401    0.350646    0.000000
   230  O2    s     0.707696    0.806122    0.021738    0.000000
   231  O2    s     0.082566    0.284608    0.682189    0.000000
   232  O2    s     0.789601    0.073299    0.850397    0.000000
   233  O2    s     0.301109    0.199318    0.516199    0.000000
   234  O2    s     0.917207    0.708670    0.183176    0.000000
   235  O2    s     0.334935    0.659655    0.249207    0.000000
   236  O2    s     0.333310    0.658487    0.581402    0.000000
   237  O2    s     0.334955    0.654862    0.916584    0.000000
   238  O2    s     0.662458    0.324290    0.750581    0.000000
   239  O2    s     0.662926    0.331301    0.085765    0.000000
   240  O2    s     0.678637    0.331150    0.415173    0.000000
   241  O3    s     0.364769    0.320064    0.973494    0.000000
   242  O2    s     0.667365    0.038751    0.301825    0.000000
   243  O2    s     0.952188    0.613166    0.631923    0.000000
   244  O2    s     0.627038    0.657241    0.467505    0.000000
   245  O3    s     0.327573    0.925459    0.804341    0.000000
   246  O2    s     0.047214    0.382277    0.134958    0.000000
   247  O2    s     0.344598    0.378674    0.363579    0.000000
   248  O2    s     0.038360    0.658349    0.030841    0.000000
   249  O2    s     0.615085    0.949757    0.697555    0.000000
   250  O2    s     0.678206    0.616598    0.870331    0.000000
   251  O3    s     0.962962    0.320096    0.527674    0.000000
   252  O2    s     0.385122    0.040590    0.198847    0.000000
   253  O2    s     0.777568    0.307161    0.015927    0.000000
   254  O2    s     0.694779    0.467976    0.346153    0.000000
   255  O2    s     0.527027    0.208509    0.680401    0.000000
   256  O2    s     0.224486    0.686400    0.511993    0.000000
   257  O2    s     0.322169    0.513744    0.850332    0.000000
   258  O2    s     0.475496    0.782454    0.180217    0.000000
   259  O2    s     0.316922    0.779060    0.319064    0.000000
   260  O2    s     0.467381    0.683104    0.987507    0.000000
   261  O2    s     0.209807    0.522140    0.649041    0.000000
   262  O2    s     0.681854    0.202296    0.819277    0.000000
   263  O2    s     0.537205    0.308148    0.484340    0.000000
   264  O2    s     0.786705    0.470129    0.153808    0.000000
   265  O2    s     0.792528    0.530509    0.030363    0.000000
   266  O2    s     0.474364    0.260917    0.363189    0.000000
   267  O2    s     0.729467    0.191925    0.699061    0.000000
   268  O2    s     0.203733    0.464707    0.528183    0.000000
   269  O2    s     0.538118    0.719881    0.868248    0.000000
   270  O2    s     0.265880    0.793930    0.197341    0.000000
   271  O2    s     0.538265    0.791470    0.301788    0.000000
   272  O2    s     0.265969    0.461435    0.969454    0.000000
   273  O2    s     0.196891    0.724595    0.630460    0.000000
   274  O3    s     0.473335    0.210597    0.807290    0.000000
   275  O2    s     0.746303    0.530718    0.469395    0.000000
   276  O2    s     0.799616    0.262871    0.137040    0.000000
   277  O2    s     0.253635    0.318240    0.900789    0.000000
   278  O2    s     0.675688    0.912659    0.231877    0.000000
   279  O2    s     0.080333    0.746570    0.561788    0.000000
   280  O2    s     0.764990    0.665132    0.398377    0.000000
   281  O3    s     0.317494    0.078927    0.724759    0.000000
   282  O2    s     0.914729    0.242501    0.066385    0.000000
   283  O2    s     0.335987    0.241172    0.433014    0.000000
   284  O2    s     0.910802    0.666830    0.100465    0.000000
   285  O2    s     0.744632    0.071476    0.766922    0.000000
   286  O2    s     0.674153    0.749069    0.938557    0.000000
   287  O2    s     0.085235    0.325065    0.598411    0.000000
   288  O2    s     0.248285    0.911081    0.267932    0.000000
   289  O3    s     0.598522    0.573991    0.998409    0.000000
   290  O2    s     0.448423    0.025860    0.320833    0.000000
   291  O2    s     0.965262    0.404410    0.649878    0.000000
   292  O2    s     0.418920    0.437274    0.486354    0.000000
   293  O2    s     0.551313    0.956569    0.820109    0.000000
   294  O2    s     0.034267    0.589524    0.152906    0.000000
   295  O2    s     0.564949    0.585375    0.345446    0.000000
   296  O2    s     0.024769    0.437620    0.012453    0.000000
   297  O2    s     0.409470    0.961386    0.679437    0.000000
   298  O2    s     0.458232    0.408563    0.850834    0.000000
   299  O3    s     0.982895    0.572969    0.502342    0.000000
   300  O2    s     0.591753    0.028622    0.179624    0.000000
   301  O2    s     0.585671    0.157504    0.250543    0.000000
   302  O3    s     0.820408    0.411944    0.586798    0.000000
   303  O3    s     0.605156    0.414710    0.915714    0.000000
   304  O2    s     0.416213    0.828596    0.748464    0.000000
   305  O2    s     0.161926    0.579051    0.082087    0.000000
   306  O2    s     0.424882    0.576275    0.415710    0.000000
   307  F     s     0.459805    0.907801    0.250283    0.000000
   308  F     s     0.037169    0.510995    0.569377    0.000000
   309  F     s     0.483706    0.510503    0.931442    0.000000
   310  F     s     0.493059    0.073807    0.756816    0.000000
   311  F     s     0.917717    0.457302    0.083666    0.000000
   312  F     s     0.548175    0.455932    0.416241    0.000000
--------------------------------------------------------------------------------

  Final Cartesian lattice vectors (Angstroms) :

       11.910306   -0.002742    0.011715
       -5.991381   10.409639   -0.007396
        0.024702    0.045934   29.532844


  Final cell parameters and derivatives :

--------------------------------------------------------------------------------
       a           11.910312 Angstrom     dE/de1(xx)     0.002367 eV/strain
       b           12.010715 Angstrom     dE/de2(yy)     0.002922 eV/strain
       c           29.532890 Angstrom     dE/de3(zz)     0.003379 eV/strain
       alpha       89.981950 Degrees      dE/de4(yz)    -0.000040 eV/strain
       beta        89.895743 Degrees      dE/de5(xz)    -0.000150 eV/strain
       gamma      119.936254 Degrees      dE/de6(xy)     0.000302 eV/strain
--------------------------------------------------------------------------------

  Primitive cell volume =          3661.053076 Angs**3

  Density of cell =      1.747610 g/cm**3

  Non-primitive cell volume =          3661.053076 Angs**3


  Final internal derivatives :

--------------------------------------------------------------------------------
   No.  Atomic          a             b             c           Radius
        Label          (eV)          (eV)          (eV)        (eV/Angs)
--------------------------------------------------------------------------------
      1 Si    c       0.000000      0.000000      0.000000      0.000000
      2 Si    c      -0.000099     -0.000119      0.000054      0.000000
      3 Si    c       0.000137      0.000343      0.000046      0.000000
      4 Si    c      -0.000342     -0.000156      0.001304      0.000000
      5 Si    c       0.000175     -0.000592      0.001168      0.000000
      6 Si    c      -0.000293     -0.000112      0.000187      0.000000
      7 Si    c      -0.000011     -0.000066      0.000286      0.000000
      8 Si    c       0.000067     -0.000136      0.000171      0.000000
      9 Si    c       0.000072     -0.000011      0.000058      0.000000
     10 Si    c      -0.000172     -0.000298     -0.001920      0.000000
     11 Si    c      -0.001003      0.000309     -0.000554      0.000000
     12 Si    c       0.000284     -0.000372      0.002219      0.000000
     13 Ge    c      -0.000867      0.000842     -0.000045      0.000000
     14 Si    c      -0.000198     -0.000110     -0.000297      0.000000
     15 Si    c       0.000367      0.000322      0.000737      0.000000
     16 Si    c       0.000143     -0.000408     -0.001340      0.000000
     17 Si    c       0.000524      0.000903     -0.001297      0.000000
     18 Si    c      -0.000483     -0.000116      0.000755      0.000000
     19 Si    c      -0.000114     -0.000065     -0.000511      0.000000
     20 Si    c      -0.000620     -0.000005     -0.001147      0.000000
     21 Si    c       0.000293      0.000208      0.000002      0.000000
     22 Si    c      -0.000940      0.000729      0.001228      0.000000
     23 Ge    c       0.000832      0.000547      0.001684      0.000000
     24 Si    c      -0.000178     -0.000187      0.000150      0.000000
     25 Si    c      -0.000124     -0.000044     -0.000982      0.000000
     26 Si    c      -0.000116     -0.000053     -0.000261      0.000000
     27 Si    c      -0.000213     -0.000111     -0.000089      0.000000
     28 Si    c       0.000012      0.000012     -0.000140      0.000000
     29 Si    c       0.000246      0.000467     -0.000009      0.000000
     30 Si    c      -0.000063      0.000523     -0.001434      0.000000
     31 Si    c       0.000018     -0.000020      0.000724      0.000000
     32 Si    c       0.000187     -0.000200      0.000281      0.000000
     33 Si    c      -0.000010      0.000155     -0.000370      0.000000
     34 Si    c      -0.000004      0.000185      0.001102      0.000000
     35 Si    c       0.000194      0.000118      0.000123      0.000000
     36 Si    c      -0.000116     -0.000058      0.000090      0.000000
     37 Si    c       0.000044      0.000005      0.000267      0.000000
     38 Si    c      -0.000134     -0.000077     -0.000023      0.000000
     39 Si    c       0.000250     -0.000024     -0.000806      0.000000
     40 Si    c       0.000088     -0.000275      0.000435      0.000000
     41 Ge    c       0.000235      0.000688     -0.000334      0.000000
     42 Si    c      -0.000253      0.000136      0.000714      0.000000
     43 Si    c      -0.000020     -0.000264      0.000044      0.000000
     44 Si    c       0.000302     -0.000091     -0.000753      0.000000
     45 Si    c       0.000336      0.000192      0.000291      0.000000
     46 Si    c      -0.000378     -0.000066      0.000433      0.000000
     47 Si    c       0.000070      0.000378     -0.000038      0.000000
     48 Si    c      -0.000165     -0.000040      0.000157      0.000000
     49 Si    c      -0.000511      0.000115      0.000254      0.000000
     50 Si    c      -0.000220     -0.000150      0.000490      0.000000
     51 Si    c      -0.000060      0.000122      0.002367      0.000000
     52 Si    c       0.000100      0.000137     -0.000262      0.000000
     53 Si    c      -0.000320     -0.000010     -0.000090      0.000000
     54 Si    c      -0.000490      0.000182      0.001638      0.000000
     55 Si    c       0.000042     -0.000188     -0.000019      0.000000
     56 Si    c      -0.000323     -0.000397     -0.000622      0.000000
     57 Si    c       0.000200     -0.000177     -0.000250      0.000000
     58 Si    c       0.000333      0.000167     -0.001567      0.000000
     59 Si    c       0.000144     -0.000356      0.000084      0.000000
     60 Si    c      -0.000070     -0.000171     -0.000627      0.000000
     61 O2    c       0.000257      0.000594     -0.000665      0.000000
     62 O2    c      -0.000085     -0.000088     -0.000157      0.000000
     63 O2    c      -0.000172      0.000323     -0.000001      0.000000
     64 O2    c      -0.000607     -0.000026     -0.000294      0.000000
     65 O2    c      -0.000284     -0.000489      0.000532      0.000000
     66 O2    c      -0.000040     -0.000206     -0.000367      0.000000
     67 O2    c      -0.000109     -0.000049     -0.000268      0.000000
     68 O2    c       0.000260      0.000389      0.000568      0.000000
     69 O2    c      -0.000175      0.000348      0.000405      0.000000
     70 O2    c       0.000379      0.000576     -0.000540      0.000000
     71 O2    c      -0.000214     -0.000103      0.000256      0.000000
     72 O3    c      -0.000405     -0.000442      0.001189      0.000000
     73 O3    c      -0.000112     -0.000364      0.002992      0.000000
     74 O2    c       0.000174      0.000194      0.000550      0.000000
     75 O2    c      -0.000059     -0.000291     -0.000425      0.000000
     76 O2    c       0.000400      0.000080     -0.000107      0.000000
     77 O2    c      -0.000210     -0.000074      0.000304      0.000000
     78 O2    c      -0.000517      0.000369      0.000083      0.000000
     79 O2    c      -0.000218     -0.000268     -0.000120      0.000000
     80 O2    c      -0.000251     -0.000028     -0.000454      0.000000
     81 O2    c       0.000221     -0.000146     -0.000289      0.000000
     82 O2    c      -0.000661     -0.000339      0.000363      0.000000
     83 O3    c       0.001042     -0.000447      0.004952      0.000000
     84 O2    c      -0.000160     -0.000253     -0.000360      0.000000
     85 O2    c      -0.000077     -0.000144      0.001079      0.000000
     86 O2    c       0.000100     -0.000132      0.000559      0.000000
     87 O2    c      -0.000051      0.000231      0.001055      0.000000
     88 O2    c      -0.000494     -0.001408     -0.000579      0.000000
     89 O2    c      -0.000348      0.000355     -0.000288      0.000000
     90 O2    c      -0.000057     -0.000071     -0.000205      0.000000
     91 O2    c      -0.000007     -0.000060     -0.000221      0.000000
     92 O2    c      -0.000210      0.000353     -0.002409      0.000000
     93 O2    c       0.000203      0.000229      0.005151      0.000000
     94 O2    c       0.000185     -0.000198     -0.000666      0.000000
     95 O2    c      -0.000138      0.000083     -0.000536      0.000000
     96 O2    c      -0.000108     -0.000014      0.000065      0.000000
     97 O2    c      -0.000042     -0.000054      0.000365      0.000000
     98 O2    c      -0.000152     -0.000104      0.001501      0.000000
     99 O2    c       0.000742      0.000272      0.000627      0.000000
    100 O2    c       0.000491     -0.000521      0.000388      0.000000
    101 O2    c      -0.000134      0.001090      0.001401      0.000000
    102 O2    c      -0.000408     -0.000058      0.000528      0.000000
    103 O2    c      -0.000031     -0.000174      0.000623      0.000000
    104 O2    c      -0.000545      0.000063     -0.000758      0.000000
    105 O2    c       0.000287      0.000341      0.000125      0.000000
    106 O2    c      -0.001137      0.001598     -0.000612      0.000000
    107 O2    c       0.000684      0.000003     -0.000378      0.000000
    108 O2    c      -0.000147     -0.000017     -0.000393      0.000000
    109 O2    c      -0.000169     -0.000107     -0.001544      0.000000
    110 O2    c       0.000301      0.000201     -0.000461      0.000000
    111 O2    c      -0.000331      0.000329     -0.000338      0.000000
    112 O2    c       0.000111      0.000608     -0.000266      0.000000
    113 O2    c      -0.000404     -0.000562      0.000314      0.000000
    114 O2    c      -0.000051     -0.000436     -0.002418      0.000000
    115 O3    c      -0.000046     -0.000349      0.001511      0.000000
    116 O2    c      -0.000174     -0.000089     -0.000271      0.000000
    117 O2    c       0.000233      0.000137      0.000299      0.000000
    118 O2    c       0.000122     -0.000075     -0.001334      0.000000
    119 O3    c      -0.000108      0.000571      0.000116      0.000000
    120 O2    c      -0.000228     -0.000006     -0.000524      0.000000
    121 O2    c      -0.000180      0.000005     -0.000055      0.000000
    122 O2    c      -0.000036      0.000006     -0.000316      0.000000
    123 O2    c       0.000109      0.000177     -0.000685      0.000000
    124 O2    c      -0.000223      0.000029      0.000764      0.000000
    125 O3    c       0.000158     -0.000094     -0.002239      0.000000
    126 O2    c      -0.000165     -0.000102      0.000447      0.000000
    127 O2    c      -0.000536      0.000314     -0.000496      0.000000
    128 O2    c      -0.000122     -0.000148      0.000158      0.000000
    129 O2    c       0.000141      0.000393      0.000787      0.000000
    130 O2    c       0.000114     -0.000005      0.000529      0.000000
    131 O2    c      -0.000363      0.000307     -0.000985      0.000000
    132 O2    c      -0.000290     -0.000049     -0.000020      0.000000
    133 O2    c      -0.000067     -0.000166     -0.000022      0.000000
    134 O2    c      -0.000241      0.000169     -0.000028      0.000000
    135 O2    c       0.000353      0.000210     -0.000220      0.000000
    136 O2    c       0.000201      0.000390     -0.000556      0.000000
    137 O2    c      -0.000098     -0.000194      0.001080      0.000000
    138 O2    c      -0.000234     -0.000195      0.000158      0.000000
    139 O2    c      -0.000072     -0.000254     -0.000454      0.000000
    140 O2    c      -0.000125     -0.000156     -0.000625      0.000000
    141 O2    c       0.000124      0.000326     -0.000124      0.000000
    142 O2    c       0.000216      0.000013      0.000102      0.000000
    143 O2    c      -0.000432      0.000351      0.000118      0.000000
    144 O2    c      -0.000170     -0.000076      0.000026      0.000000
    145 O2    c      -0.000199     -0.000140     -0.000099      0.000000
    146 O2    c      -0.000232      0.000187      0.000175      0.000000
    147 O2    c       0.000237      0.000147     -0.000438      0.000000
    148 O3    c       0.000152      0.000539     -0.000408      0.000000
    149 O2    c       0.000153     -0.000073     -0.000049      0.000000
    150 O2    c      -0.000218     -0.000047     -0.000477      0.000000
    151 O2    c      -0.000289     -0.000067      0.000589      0.000000
    152 O2    c      -0.000158     -0.000150     -0.000536      0.000000
    153 O2    c       0.000033      0.000323      0.001810      0.000000
    154 O2    c      -0.000065     -0.000068     -0.002293      0.000000
    155 O3    c      -0.000066      0.000553      0.002973      0.000000
    156 O2    c      -0.000208     -0.000125      0.000181      0.000000
    157 O2    c      -0.000031     -0.000351     -0.001376      0.000000
    158 O2    c       0.000171     -0.000150      0.000591      0.000000
    159 O2    c       0.000411      0.000264     -0.001395      0.000000
    160 O2    c      -0.000090      0.000143      0.001046      0.000000
    161 O2    c      -0.000091      0.000060      0.001023      0.000000
    162 O2    c      -0.000214      0.000000     -0.001410      0.000000
    163 O3    c       0.000187     -0.000131      0.002255      0.000000
    164 O2    c      -0.000084     -0.000034     -0.000708      0.000000
    165 O2    c       0.000205      0.000265      0.000329      0.000000
    166 O2    c      -0.000067     -0.000007     -0.000485      0.000000
    167 O2    c       0.000359      0.000176     -0.000086      0.000000
    168 O2    c      -0.000245     -0.000099      0.000008      0.000000
    169 O2    c      -0.000187      0.000012      0.000142      0.000000
    170 O2    c       0.000039     -0.000048     -0.000858      0.000000
    171 O2    c       0.000155      0.000376      0.000249      0.000000
    172 O2    c      -0.000215     -0.000185     -0.001169      0.000000
    173 O3    c      -0.000598     -0.000011     -0.002422      0.000000
    174 O2    c      -0.000210     -0.000118     -0.000016      0.000000
    175 O2    c      -0.000135     -0.000079      0.000312      0.000000
    176 O3    c      -0.000052     -0.000291     -0.000383      0.000000
    177 O3    c      -0.000114     -0.000492     -0.000934      0.000000
    178 O2    c       0.000213      0.000101     -0.000351      0.000000
    179 O2    c       0.000045      0.000176      0.000940      0.000000
    180 O2    c      -0.000178      0.000163      0.001665      0.000000
    181 F     c      -0.000131     -0.000117     -0.000067      0.000000
    182 F     c      -0.000024      0.000120     -0.000319      0.000000
    183 F     c      -0.000097     -0.000060      0.000225      0.000000
    184 F     c       0.000209      0.000420      0.000030      0.000000
    185 F     c      -0.000123     -0.000024     -0.000140      0.000000
    186 F     c      -0.000046     -0.000205      0.000132      0.000000
    187 O2    s       0.000120     -0.000031     -0.001362      0.000000
    188 O2    s      -0.000246     -0.000054      0.000562      0.000000
    189 O2    s       0.000016     -0.000124      0.000389      0.000000
    190 O2    s      -0.000650      0.000530      0.000143      0.000000
    191 O2    s       0.000111     -0.000127     -0.000417      0.000000
    192 O2    s      -0.000226     -0.000002      0.001010      0.000000
    193 O2    s      -0.000110     -0.000135      0.000269      0.000000
    194 O2    s       0.000003      0.000380     -0.000419      0.000000
    195 O2    s      -0.000133      0.000413      0.000121      0.000000
    196 O2    s      -0.000459     -0.000035      0.000097      0.000000
    197 O2    s      -0.000245     -0.000040     -0.000167      0.000000
    198 O3    s       0.000931     -0.000202     -0.001288      0.000000
    199 O3    s       0.000137     -0.000076     -0.003866      0.000000
    200 O2    s       0.000275      0.000397     -0.000381      0.000000
    201 O2    s      -0.000237     -0.000072      0.000170      0.000000
    202 O2    s      -0.000192      0.000032      0.000023      0.000000
    203 O2    s      -0.000092     -0.000268     -0.000395      0.000000
    204 O2    s      -0.000005      0.000756     -0.000306      0.000000
    205 O2    s      -0.000130      0.000023      0.001026      0.000000
    206 O2    s      -0.000085     -0.000129      0.000446      0.000000
    207 O2    s       0.000204     -0.000402      0.001012      0.000000
    208 O2    s      -0.000448     -0.000128     -0.000447      0.000000
    209 O3    s       0.000759     -0.000604     -0.006367      0.000000
    210 O2    s      -0.000183     -0.000016      0.001351      0.000000
    211 O2    s      -0.000223      0.000089     -0.001373      0.000000
    212 O2    s      -0.000059     -0.000095     -0.000675      0.000000
    213 O2    s      -0.000220      0.000312     -0.002075      0.000000
    214 O2    s       0.000048     -0.001225      0.000034      0.000000
    215 O2    s      -0.000385      0.000378      0.000664      0.000000
    216 O2    s      -0.000110     -0.000096      0.000333      0.000000
    217 O2    s      -0.000269     -0.000067      0.000183      0.000000
    218 O2    s      -0.000385      0.000373     -0.000800      0.000000
    219 O2    s       0.000484     -0.000009      0.000606      0.000000
    220 O2    s      -0.000645      0.000355      0.001146      0.000000
    221 O2    s      -0.000101     -0.000419      0.000771      0.000000
    222 O2    s      -0.000169      0.000181     -0.000861      0.000000
    223 O2    s       0.000076     -0.000025     -0.001333      0.000000
    224 O2    s      -0.000231     -0.000155     -0.001973      0.000000
    225 O2    s       0.000554      0.000415      0.000846      0.000000
    226 O2    s       0.000857     -0.000623     -0.000305      0.000000
    227 O2    s      -0.000803      0.000988     -0.001073      0.000000
    228 O2    s      -0.000239     -0.000222     -0.000161      0.000000
    229 O2    s      -0.000203     -0.000077     -0.001336      0.000000
    230 O2    s      -0.000320     -0.000229      0.000945      0.000000
    231 O2    s       0.000074      0.000459     -0.000606      0.000000
    232 O2    s      -0.000933      0.001714     -0.001638      0.000000
    233 O2    s       0.000253     -0.000222     -0.000463      0.000000
    234 O2    s      -0.000213     -0.000083      0.001080      0.000000
    235 O2    s      -0.000248      0.000046      0.001377      0.000000
    236 O2    s       0.000102      0.000334      0.001509      0.000000
    237 O2    s      -0.000165     -0.000048     -0.000110      0.000000
    238 O2    s       0.000508     -0.000027     -0.000293      0.000000
    239 O2    s      -0.000203      0.000365      0.000565      0.000000
    240 O2    s      -0.000553      0.000063      0.001388      0.000000
    241 O3    s      -0.000451      0.000535     -0.002252      0.000000
    242 O2    s      -0.000191     -0.000044      0.000382      0.000000
    243 O2    s       0.000243      0.000073     -0.000190      0.000000
    244 O2    s       0.000150     -0.000310      0.001426      0.000000
    245 O3    s       0.000360      0.000510     -0.000624      0.000000
    246 O2    s       0.000040     -0.000273      0.001121      0.000000
    247 O2    s      -0.000013     -0.000167      0.000212      0.000000
    248 O2    s       0.000075      0.000198      0.000427      0.000000
    249 O2    s      -0.000195      0.000475      0.000870      0.000000
    250 O2    s      -0.000629      0.000380     -0.000995      0.000000
    251 O3    s       0.000099      0.000014      0.003162      0.000000
    252 O2    s      -0.000082     -0.000155     -0.000405      0.000000
    253 O2    s      -0.000363      0.000163      0.000687      0.000000
    254 O2    s      -0.000341      0.000013      0.000190      0.000000
    255 O2    s       0.000186      0.000294     -0.000862      0.000000
    256 O2    s       0.000234     -0.000259     -0.001705      0.000000
    257 O2    s      -0.000364     -0.000008      0.001626      0.000000
    258 O2    s      -0.000068     -0.000225      0.000160      0.000000
    259 O2    s      -0.000136     -0.000082     -0.000052      0.000000
    260 O2    s       0.000064     -0.000189      0.000132      0.000000
    261 O2    s       0.000315      0.000232      0.000177      0.000000
    262 O2    s       0.000189      0.000232      0.000817      0.000000
    263 O2    s      -0.000499      0.000162     -0.001886      0.000000
    264 O2    s      -0.000332     -0.000009      0.000382      0.000000
    265 O2    s      -0.000338      0.000122     -0.000016      0.000000
    266 O2    s      -0.000218      0.000037      0.001164      0.000000
    267 O2    s      -0.000021      0.000410      0.000174      0.000000
    268 O2    s      -0.000217      0.000076     -0.000042      0.000000
    269 O2    s      -0.000115     -0.000094     -0.000162      0.000000
    270 O2    s      -0.000070     -0.000044      0.000330      0.000000
    271 O2    s      -0.000180     -0.000057      0.000300      0.000000
    272 O2    s       0.000049     -0.000123     -0.000312      0.000000
    273 O2    s       0.000210      0.000226      0.000523      0.000000
    274 O3    s       0.000627     -0.000178     -0.000198      0.000000
    275 O2    s      -0.000685     -0.000123     -0.000292      0.000000
    276 O2    s      -0.000132     -0.000185      0.001049      0.000000
    277 O2    s      -0.000267      0.000577     -0.000297      0.000000
    278 O2    s      -0.000278     -0.000045      0.000419      0.000000
    279 O2    s       0.000215      0.000480     -0.000177      0.000000
    280 O2    s      -0.000279     -0.000216      0.002458      0.000000
    281 O3    s       0.000619     -0.000063     -0.002307      0.000000
    282 O2    s       0.000270     -0.000445      0.000010      0.000000
    283 O2    s      -0.000041      0.000200      0.001367      0.000000
    284 O2    s      -0.000397      0.000478      0.000233      0.000000
    285 O2    s      -0.000072      0.000794      0.001620      0.000000
    286 O2    s      -0.000209     -0.000012     -0.001543      0.000000
    287 O2    s       0.000146     -0.000045     -0.001814      0.000000
    288 O2    s      -0.000038     -0.000240      0.001260      0.000000
    289 O3    s      -0.000724      0.000248     -0.002731      0.000000
    290 O2    s      -0.000129     -0.000118      0.000977      0.000000
    291 O2    s       0.000073      0.000415     -0.000324      0.000000
    292 O2    s       0.000087     -0.000217      0.000419      0.000000
    293 O2    s       0.000001      0.000795     -0.000540      0.000000
    294 O2    s      -0.000075     -0.000118      0.000641      0.000000
    295 O2    s      -0.000038     -0.000358      0.000108      0.000000
    296 O2    s       0.000321      0.000039      0.000394      0.000000
    297 O2    s       0.000229      0.000365     -0.000060      0.000000
    298 O2    s      -0.000433      0.000637      0.001594      0.000000
    299 O3    s       0.000420     -0.000245      0.003250      0.000000
    300 O2    s      -0.000127     -0.000161      0.000332      0.000000
    301 O2    s      -0.000103     -0.000178     -0.000167      0.000000
    302 O3    s       0.000471      0.000521      0.000235      0.000000
    303 O3    s      -0.000577      0.000105      0.001240      0.000000
    304 O2    s      -0.000094      0.000746      0.000133      0.000000
    305 O2    s       0.000080     -0.000253     -0.000441      0.000000
    306 O2    s       0.000360     -0.000482     -0.001597      0.000000
    307 F     s      -0.000198     -0.000053      0.000013      0.000000
    308 F     s      -0.000243     -0.000327     -0.000590      0.000000
    309 F     s      -0.000216     -0.000237      0.000449      0.000000
    310 F     s       0.000031      0.000383      0.000077      0.000000
    311 F     s      -0.000176     -0.000041      0.001088      0.000000
    312 F     s      -0.000144     -0.000069     -0.000424      0.000000
--------------------------------------------------------------------------------
  Maximum abs         0.001137      0.001714      0.006367      0.000000
--------------------------------------------------------------------------------


  Time to end of optimisation =      42.8746 seconds


  Peak dynamic memory used =      19.13 MB 


  Timing analysis for GULP :

--------------------------------------------------------------------------------
  Task / Subroutine                                          Time (Seconds)
--------------------------------------------------------------------------------
  Calculation of reciprocal space energy and derivatives          1.2359
  Calculation of real space energy and derivatives               37.0758
  Calculation of three-body energy and derivatives                3.7201
  Calculation of matrix inversion                                 0.7442
--------------------------------------------------------------------------------
  Total CPU time                                                 42.8747
--------------------------------------------------------------------------------


  Dump file written as out.res                                                 
  CIF file written as out.cif                                                 


  Job Finished at 14:47.50 16th November   2016                               

