********************************************************************************
*                       GENERAL UTILITY LATTICE PROGRAM                        *
*                                 Julian Gale                                  *
*                      Nanochemistry Research Institute                        *
*                           Department of Chemistry                            *
*                    Curtin University, Western Australia                      *
********************************************************************************
* Version = 4.2.0 * Last modified =  20th January 2014                         *
********************************************************************************
*  optimise     - perform optimisation run                                     *
*  conp         - constant pressure calculation                                *
*  qok          - running with non charge neutral cell is OK                   *
********************************************************************************

  Job Started  at 22:29.48 16th November   2016                               

  Number of CPUs =     1


  Total number of configurations input =   1

********************************************************************************
*  Input for Configuration =   1                                               *
********************************************************************************

  Formula = Si57Ge3O120F6                                               

  Number of irreducible atoms/shells =     312


  Total number atoms/shells =     312

  Dimensionality = 3               :  Bulk   


  Charge on solid   =  -6.000000 =>neutralising background added


  Cartesian lattice vectors (Angstroms) :

       11.995594    0.000000    0.000000
       -5.918331   10.343307    0.000000
       -0.097385    0.249239   29.465722

  Cell parameters (Angstroms/Degrees):

  a =      11.9956    alpha =  89.4853
  b =      11.9168    beta  =  90.1894
  c =      29.4669    gamma = 119.7777

  Initial cell volume =        3655.933371 Angs**3

  Temperature of configuration =  0.000     K 

  Pressure of configuration =         0.000 GPa 

  Fractional coordinates of asymmetric unit :

--------------------------------------------------------------------------------
   No.  Atomic       x           y          z         Charge      Occupancy
        Label      (Frac)      (Frac)     (Frac)        (e)         (Frac)  
--------------------------------------------------------------------------------
      1 Si    c    0.699600    0.375700    0.033890     4.00000    1.000000    
      2 Si    c    0.622815 *  0.324215 *  0.371450 *   4.00000    1.000000    
      3 Si    c    0.676114 *  0.289352 *  0.699364 *   4.00000    1.000000    
      4 Si    c    0.299172 *  0.620014 *  0.536256 *   4.00000    1.000000    
      5 Si    c    0.384702 *  0.672968 *  0.870943 *   4.00000    1.000000    
      6 Si    c    0.319440 *  0.694703 *  0.200960 *   4.00000    1.000000    
      7 Si    c    0.383710 *  0.705526 *  0.303169 *   4.00000    1.000000    
      8 Si    c    0.328432 *  0.618342 *  0.973345 *   4.00000    1.000000    
      9 Si    c    0.297796 *  0.671976 *  0.636949 *   4.00000    1.000000    
     10 Si    c    0.623895 *  0.293183 *  0.799807 *   4.00000    1.000000    
     11 Si    c    0.676785 *  0.378463 *  0.471907 *   4.00000    1.000000    
     12 Si    c    0.692908 *  0.319336 *  0.136715 *   4.00000    1.000000    
     13 Ge    c    0.532173 *  0.427131 *  0.966734 *   4.00000    1.000000    
     14 Si    c    0.593803 *  0.125716 *  0.303104 *   4.00000    1.000000    
     15 Si    c    0.888176 *  0.465699 *  0.636228 *   4.00000    1.000000    
     16 Si    c    0.472803 *  0.584421 *  0.471799 *   4.00000    1.000000    
     17 Si    c    0.422233 *  0.882267 *  0.803452 *   4.00000    1.000000    
     18 Si    c    0.104009 *  0.522093 *  0.137963 *   4.00000    1.000000    
     19 Si    c    0.422737 *  0.534323 *  0.370344 *   4.00000    1.000000    
     20 Si    c    0.112985 *  0.576829 *  0.037066 *   4.00000    1.000000    
     21 Si    c    0.471333 *  0.879639 *  0.701924 *   4.00000    1.000000    
     22 Si    c    0.595424 *  0.463364 *  0.867496 *   4.00000    1.000000    
     23 Si    c    0.889415 *  0.415669 *  0.534849 *   4.00000    1.000000    
     24 Ge    c    0.528584 *  0.100097 *  0.203010 *   4.00000    1.000000    
     25 Si    c    0.308893 *  0.390877 *  0.855445 *   4.00000    1.000000    
     26 Ge    c    0.603773 *  0.899487 *  0.182087 *   4.00000    1.000000    
     27 Si    c    0.097797 *  0.696676 *  0.520982 *   4.00000    1.000000    
     28 Si    c    0.701608 *  0.604581 *  0.356502 *   4.00000    1.000000    
     29 Si    c    0.398579 *  0.088740 *  0.686450 *   4.00000    1.000000    
     30 Si    c    0.903024 *  0.298423 *  0.022483 *   4.00000    1.000000    
     31 Si    c    0.399898 *  0.302181 *  0.486224 *   4.00000    1.000000    
     32 Si    c    0.898929 *  0.598059 *  0.150472 *   4.00000    1.000000    
     33 Si    c    0.701337 *  0.091366 *  0.816011 *   4.00000    1.000000    
     34 Si    c    0.611439 *  0.700063 *  0.990637 *   4.00000    1.000000    
     35 Si    c    0.096124 *  0.393257 *  0.651122 *   4.00000    1.000000    
     36 Si    c    0.307767 *  0.911281 *  0.317572 *   4.00000    1.000000    
     37 Si    c    0.253826 *  0.329812 *  0.957664 *   4.00000    1.000000    
     38 Si    c    0.669988 *  0.919980 *  0.285467 *   4.00000    1.000000    
     39 Si    c    0.089120 *  0.744474 *  0.621622 *   4.00000    1.000000    
     40 Si    c    0.750687 *  0.661425 *  0.457166 *   4.00000    1.000000    
     41 Si    c    0.343205 *  0.083533 *  0.787285 *   4.00000    1.000000    
     42 Si    c    0.902831 *  0.245397 *  0.123374 *   4.00000    1.000000    
     43 Si    c    0.342725 *  0.253636 *  0.385510 *   4.00000    1.000000    
     44 Si    c    0.913129 *  0.656130 *  0.049513 *   4.00000    1.000000    
     45 Si    c    0.749607 *  0.080506 *  0.715455 *   4.00000    1.000000    
     46 Si    c    0.669423 *  0.743715 *  0.887312 *   4.00000    1.000000    
     47 Si    c    0.090449 *  0.338241 *  0.550477 *   4.00000    1.000000    
     48 Si    c    0.249646 *  0.912584 *  0.215388 *   4.00000    1.000000    
     49 Si    c    0.969676 *  0.120964 *  0.969779 *   4.00000    1.000000    
     50 Si    c    0.881388 *  0.851000 *  0.304124 *   4.00000    1.000000    
     51 Si    c    0.150952 *  0.024123 *  0.636816 *   4.00000    1.000000    
     52 Si    c    0.030554 *  0.878257 *  0.470043 *   4.00000    1.000000    
     53 Si    c    0.125533 *  0.145653 *  0.803778 *   4.00000    1.000000    
     54 Si    c    0.853893 *  0.965984 *  0.135431 *   4.00000    1.000000    
     55 Si    c    0.124867 *  0.974659 *  0.368923 *   4.00000    1.000000    
     56 Si    c    0.860046 *  0.881775 *  0.035735 *   4.00000    1.000000    
     57 Si    c    0.030029 *  0.144966 *  0.702614 *   4.00000    1.000000    
     58 Si    c    0.882310 *  0.026612 *  0.868706 *   4.00000    1.000000    
     59 Si    c    0.151933 *  0.119854 *  0.535761 *   4.00000    1.000000    
     60 Si    c    0.966453 *  0.842724 *  0.202567 *   4.00000    1.000000    
     61 O2    c    0.934495 *  0.996217 *  0.999929 *   0.87073    1.000000    
     62 O2    c    0.006030 *  0.933923 *  0.335237 *   0.87073    1.000000    
     63 O2    c    0.074488 *  0.066415 *  0.670647 *   0.87073    1.000000    
     64 O2    c    0.074584 *  0.000642 *  0.502256 *   0.87073    1.000000    
     65 O2    c    0.004817 *  0.065163 *  0.836722 *   0.87073    1.000000    
     66 O2    c    0.935135 *  0.932205 *  0.170710 *   0.87073    1.000000    
     67 O2    c    0.348621 *  0.585702 *  0.337265 *   0.87073    1.000000    
     68 O2    c    0.420177 *  0.753524 *  0.669894 *   0.87073    1.000000    
     69 O2    c    0.240745 *  0.653467 *  0.004927 *   0.87073    1.000000    
     70 O2    c    0.665606 *  0.421335 *  0.829487 *   0.87073    1.000000    
     71 O3    c    0.573951 *  0.239097 *  0.168434 *   1.33043    1.000000    
     72 O2    c    0.762797 *  0.338686 *  0.503475 *   0.87073    1.000000    
     73 O3    c    0.582548 *  0.339152 *  0.001575 *   1.33043    1.000000    
     74 O2    c    0.760471 *  0.414272 *  0.667236 *   0.87073    1.000000    
     75 O2    c    0.663968 *  0.239713 *  0.340424 *   0.87073    1.000000    
     76 O2    c    0.422939 *  0.660262 *  0.504005 *   0.87073    1.000000    
     77 O2    c    0.226029 *  0.567840 *  0.172168 *   0.87073    1.000000    
     78 O2    c    0.348544 *  0.757948 *  0.837328 *   0.87073    1.000000    
     79 O2    c    0.121027 *  0.212102 *  0.976055 *   0.87073    1.000000    
     80 O2    c    0.790101 *  0.913915 *  0.309193 *   0.87073    1.000000    
     81 O2    c    0.087185 *  0.869446 *  0.642041 *   0.87073    1.000000    
     82 O2    c    0.877092 *  0.787973 *  0.476626 *   0.87073    1.000000    
     83 O2    c    0.216679 *  0.081803 *  0.807659 *   0.87073    1.000000    
     84 O2    c    0.896871 *  0.116082 *  0.144354 *   0.87073    1.000000    
     85 O2    c    0.215367 *  0.129732 *  0.365265 *   0.87073    1.000000    
     86 O2    c    0.914144 *  0.783482 *  0.028617 *   0.87073    1.000000    
     87 O2    c    0.876264 *  0.079877 *  0.696370 *   0.87073    1.000000    
     88 O2    c    0.791348 *  0.871619 *  0.866002 *   0.87073    1.000000    
     89 O2    c    0.089543 *  0.211881 *  0.530069 *   0.87073    1.000000    
     90 O2    c    0.117650 *  0.899434 *  0.197244 *   0.87073    1.000000    
     91 O2    c    0.928846 *  0.855893 *  0.253470 *   0.87073    1.000000    
     92 O2    c    0.135569 *  0.064753 *  0.586388 *   0.87073    1.000000    
     93 O2    c    0.933390 *  0.074548 *  0.918483 *   0.87073    1.000000    
     94 O2    c    0.070375 *  0.135069 *  0.753600 *   0.87073    1.000000    
     95 O2    c    0.889945 *  0.943283 *  0.085264 *   0.87073    1.000000    
     96 O2    c    0.068515 *  0.929201 *  0.418971 *   0.87073    1.000000    
     97 O2    c    0.897869 *  0.198706 *  0.983885 *   0.87073    1.000000    
     98 O2    c    0.801450 *  0.700436 *  0.318542 *   0.87073    1.000000    
     99 O2    c    0.302253 *  0.091101 *  0.648062 *   0.87073    1.000000    
    100 O2    c    0.099942 *  0.795589 *  0.482245 *   0.87073    1.000000    
    101 O2    c    0.210477 *  0.296843 *  0.816767 *   0.87073    1.000000    
    102 O3    c    0.703895 *  0.879025 *  0.144008 *   1.33043    1.000000    
    103 O2    c    0.211309 *  0.909699 *  0.356420 *   0.87073    1.000000    
    104 O2    c    0.706601 *  0.809771 *  0.026391 *   0.87073    1.000000    
    105 O2    c    0.097711 *  0.296519 *  0.689922 *   0.87073    1.000000    
    106 O2    c    0.800948 *  0.095123 *  0.853946 *   0.87073    1.000000    
    107 O2    c    0.303503 *  0.202727 *  0.524583 *   0.87073    1.000000    
    108 O2    c    0.892735 *  0.692475 *  0.188936 *   0.87073    1.000000    
    109 O2    c    0.325069 *  0.651856 *  0.253484 *   0.87073    1.000000    
    110 O2    c    0.355297 *  0.674619 *  0.586654 *   0.87073    1.000000    
    111 O2    c    0.331065 *  0.670307 *  0.921562 *   0.87073    1.000000    
    112 O2    c    0.678702 *  0.347274 *  0.749231 *   0.87073    1.000000    
    113 O2    c    0.647582 *  0.323007 *  0.084958 *   0.87073    1.000000    
    114 O2    c    0.678221 *  0.323414 *  0.421823 *   0.87073    1.000000    
    115 O3    c    0.365899 *  0.310502 *  0.976633 *   1.33043    1.000000    
    116 O2    c    0.677188 *  0.050790 *  0.304306 *   0.87073    1.000000    
    117 O2    c    0.956803 *  0.622074 *  0.639850 *   0.87073    1.000000    
    118 O2    c    0.628450 *  0.672216 *  0.474963 *   0.87073    1.000000    
    119 O2    c    0.335101 *  0.951517 *  0.806555 *   0.87073    1.000000    
    120 O2    c    0.036605 *  0.365656 *  0.141943 *   0.87073    1.000000    
    121 O2    c    0.335140 *  0.378148 *  0.366768 *   0.87073    1.000000    
    122 O2    c    0.047186 *  0.667307 *  0.032148 *   0.87073    1.000000    
    123 O2    c    0.626963 *  0.946822 *  0.698353 *   0.87073    1.000000    
    124 O2    c    0.678701 *  0.622301 *  0.867739 *   0.87073    1.000000    
    125 O2    c    0.958766 *  0.328486 *  0.531746 *   0.87073    1.000000    
    126 O3    c    0.361435 *  0.045055 *  0.196584 *   1.33043    1.000000    
    127 O2    c    0.772931 *  0.302287 *  0.013817 *   0.87073    1.000000    
    128 O2    c    0.696868 *  0.468098 *  0.348903 *   0.87073    1.000000    
    129 O2    c    0.532540 *  0.221658 *  0.677848 *   0.87073    1.000000    
    130 O2    c    0.231207 *  0.696001 *  0.513774 *   0.87073    1.000000    
    131 O2    c    0.312752 *  0.528261 *  0.850537 *   0.87073    1.000000    
    132 O3    c    0.459639 *  0.753746 *  0.179570 *   1.33043    1.000000    
    133 O2    c    0.313902 *  0.779712 *  0.324319 *   0.87073    1.000000    
    134 O2    c    0.473210 *  0.695615 *  0.993384 *   0.87073    1.000000    
    135 O2    c    0.228913 *  0.527371 *  0.658901 *   0.87073    1.000000    
    136 O2    c    0.697864 *  0.224033 *  0.822990 *   0.87073    1.000000    
    137 O2    c    0.533740 *  0.302333 *  0.494061 *   0.87073    1.000000    
    138 O2    c    0.765864 *  0.465673 *  0.157170 *   0.87073    1.000000    
    139 O2    c    0.789792 *  0.532595 *  0.029084 *   0.87073    1.000000    
    140 O2    c    0.467043 *  0.250251 *  0.366540 *   0.87073    1.000000    
    141 O2    c    0.748514 *  0.205374 *  0.694385 *   0.87073    1.000000    
    142 O2    c    0.217205 *  0.463835 *  0.531291 *   0.87073    1.000000    
    143 O2    c    0.538524 *  0.736556 *  0.869783 *   0.87073    1.000000    
    144 O2    c    0.260836 *  0.790566 *  0.197166 *   0.87073    1.000000    
    145 O2    c    0.537220 *  0.795539 *  0.302089 *   0.87073    1.000000    
    146 O2    c    0.264878 *  0.463720 *  0.975523 *   0.87073    1.000000    
    147 O2    c    0.215373 *  0.745868 *  0.641456 *   0.87073    1.000000    
    148 O2    c    0.468261 *  0.211495 *  0.805549 *   0.87073    1.000000    
    149 O2    c    0.749625 *  0.534667 *  0.477362 *   0.87073    1.000000    
    150 O2    c    0.780190 *  0.249484 *  0.142697 *   0.87073    1.000000    
    151 O2    c    0.243075 *  0.319937 *  0.902430 *   0.87073    1.000000    
    152 O3    c    0.690352 *  0.917040 *  0.232607 *   1.33043    1.000000    
    153 O2    c    0.092080 *  0.765933 *  0.567284 *   0.87073    1.000000    
    154 O2    c    0.770866 *  0.677716 *  0.402941 *   0.87073    1.000000    
    155 O2    c    0.324841 *  0.084502 *  0.732959 *   0.87073    1.000000    
    156 O2    c    0.903635 *  0.225586 *  0.069082 *   0.87073    1.000000    
    157 O2    c    0.325057 *  0.233389 *  0.439852 *   0.87073    1.000000    
    158 O2    c    0.908429 *  0.674995 *  0.103696 *   0.87073    1.000000    
    159 O2    c    0.770302 *  0.086004 *  0.769661 *   0.87073    1.000000    
    160 O2    c    0.682516 *  0.757954 *  0.941494 *   0.87073    1.000000    
    161 O2    c    0.091793 *  0.319031 *  0.604824 *   0.87073    1.000000    
    162 O2    c    0.239937 *  0.910753 *  0.270498 *   0.87073    1.000000    
    163 O3    c    0.602346 *  0.567432 *  0.002957 *   1.33043    1.000000    
    164 O2    c    0.448593 *  0.033766 *  0.323029 *   0.87073    1.000000    
    165 O2    c    0.970908 *  0.407130 *  0.659926 *   0.87073    1.000000    
    166 O2    c    0.414776 *  0.442330 *  0.495113 *   0.87073    1.000000    
    167 O2    c    0.563856 *  0.964091 *  0.825763 *   0.87073    1.000000    
    168 O2    c    0.024813 *  0.585168 *  0.160939 *   0.87073    1.000000    
    169 O2    c    0.564034 *  0.594779 *  0.347537 *   0.87073    1.000000    
    170 O2    c    0.032957 *  0.435567 *  0.013539 *   0.87073    1.000000    
    171 O2    c    0.412999 *  0.962948 *  0.678330 *   0.87073    1.000000    
    172 O2    c    0.450097 *  0.411456 *  0.847542 *   0.87073    1.000000    
    173 O2    c    0.973169 *  0.557581 *  0.511609 *   0.87073    1.000000    
    174 O1    c    0.595417 *  0.031082 *  0.166544 *   1.73396    1.000000    
    175 O3    c    0.598736 *  0.187044 *  0.254826 *   1.33043    1.000000    
    176 O2    c    0.836291 *  0.414585 *  0.585478 *   0.87073    1.000000    
    177 O3    c    0.601999 *  0.405648 *  0.915172 *   1.33043    1.000000    
    178 O2    c    0.419234 *  0.826179 *  0.753045 *   0.87073    1.000000    
    179 O2    c    0.167744 *  0.578988 *  0.088055 *   0.87073    1.000000    
    180 O2    c    0.420112 *  0.586336 *  0.420934 *   0.87073    1.000000    
    181 F     c    0.482072 *  0.947183 *  0.240100 *   0.56000    1.000000    
    182 F     c    0.095906 *  0.544764 *  0.586092 *   0.56000    1.000000    
    183 F     c    0.478503 *  0.520368 *  0.929928 *   0.56000    1.000000    
    184 F     c    0.548524 *  0.086753 *  0.751456 *   0.56000    1.000000    
    185 F     c    0.917146 *  0.455540 *  0.086499 *   0.56000    1.000000    
    186 F     c    0.548472 *  0.454220 *  0.421264 *   0.56000    1.000000    
    187 O2    s    0.930018 *  0.997494 *  0.000545 *  -2.87073    1.000000    
    188 O2    s    0.005754 *  0.929465 *  0.335619 *  -2.87073    1.000000    
    189 O2    s    0.078067 *  0.070478 *  0.670441 *  -2.87073    1.000000    
    190 O2    s    0.078313 *  0.000280 *  0.502399 *  -2.87073    1.000000    
    191 O2    s    0.004843 *  0.069866 *  0.836553 *  -2.87073    1.000000    
    192 O2    s    0.929701 *  0.925729 *  0.170440 *  -2.87073    1.000000    
    193 O2    s    0.359924 *  0.593140 *  0.337030 *  -2.87073    1.000000    
    194 O2    s    0.412857 *  0.758131 *  0.669796 *  -2.87073    1.000000    
    195 O2    s    0.237606 *  0.642230 *  0.004691 *  -2.87073    1.000000    
    196 O2    s    0.654141 *  0.412152 *  0.830197 *  -2.87073    1.000000    
    197 O3    s    0.583638 *  0.238180 *  0.167395 *  -3.33043    1.000000    
    198 O2    s    0.767013 *  0.350786 *  0.503452 *  -2.87073    1.000000    
    199 O3    s    0.591690 *  0.349379 *  0.002607 *  -3.33043    1.000000    
    200 O2    s    0.764947 *  0.406606 *  0.667366 *  -2.87073    1.000000    
    201 O2    s    0.652537 *  0.237077 *  0.339929 *  -2.87073    1.000000    
    202 O2    s    0.415329 *  0.648303 *  0.504020 *  -2.87073    1.000000    
    203 O2    s    0.223863 *  0.576841 *  0.171850 *  -2.87073    1.000000    
    204 O2    s    0.359805 *  0.761561 *  0.837454 *  -2.87073    1.000000    
    205 O2    s    0.118646 *  0.214868 *  0.973337 *  -2.87073    1.000000    
    206 O2    s    0.787800 *  0.907822 *  0.306323 *  -2.87073    1.000000    
    207 O2    s    0.094198 *  0.873005 *  0.639390 *  -2.87073    1.000000    
    208 O2    s    0.880260 *  0.784480 *  0.473958 *  -2.87073    1.000000    
    209 O2    s    0.220061 *  0.088740 *  0.805176 *  -2.87073    1.000000    
    210 O2    s    0.892954 *  0.113760 *  0.141302 *  -2.87073    1.000000    
    211 O2    s    0.218885 *  0.126049 *  0.367713 *  -2.87073    1.000000    
    212 O2    s    0.908232 *  0.781010 *  0.031484 *  -2.87073    1.000000    
    213 O2    s    0.879413 *  0.086768 *  0.698962 *  -2.87073    1.000000    
    214 O2    s    0.788352 *  0.874806 *  0.868477 *  -2.87073    1.000000    
    215 O2    s    0.096306 *  0.215191 *  0.532774 *  -2.87073    1.000000    
    216 O2    s    0.115272 *  0.894466 *  0.199843 *  -2.87073    1.000000    
    217 O2    s    0.927591 *  0.853869 *  0.253624 *  -2.87073    1.000000    
    218 O2    s    0.139136 *  0.066371 *  0.586372 *  -2.87073    1.000000    
    219 O2    s    0.931504 *  0.074151 *  0.918439 *  -2.87073    1.000000    
    220 O2    s    0.072034 *  0.137348 *  0.753508 *  -2.87073    1.000000    
    221 O2    s    0.882641 *  0.938878 *  0.085213 *  -2.87073    1.000000    
    222 O2    s    0.070582 *  0.928603 *  0.419087 *  -2.87073    1.000000    
    223 O2    s    0.906246 *  0.200180 *  0.986201 *  -2.87073    1.000000    
    224 O2    s    0.799529 *  0.706461 *  0.320992 *  -2.87073    1.000000    
    225 O2    s    0.296042 *  0.083741 *  0.650800 *  -2.87073    1.000000    
    226 O2    s    0.092326 *  0.794277 *  0.484910 *  -2.87073    1.000000    
    227 O2    s    0.211576 *  0.290573 *  0.819329 *  -2.87073    1.000000    
    228 O3    s    0.711635 *  0.889287 *  0.145946 *  -3.33043    1.000000    
    229 O2    s    0.212161 *  0.916680 *  0.353746 *  -2.87073    1.000000    
    230 O2    s    0.712767 *  0.806205 *  0.023777 *  -2.87073    1.000000    
    231 O2    s    0.090288 *  0.290227 *  0.687289 *  -2.87073    1.000000    
    232 O2    s    0.799275 *  0.087347 *  0.851550 *  -2.87073    1.000000    
    233 O2    s    0.297262 *  0.204078 *  0.521856 *  -2.87073    1.000000    
    234 O2    s    0.901305 *  0.699281 *  0.186574 *  -2.87073    1.000000    
    235 O2    s    0.330678 *  0.661738 *  0.253554 *  -2.87073    1.000000    
    236 O2    s    0.343670 *  0.668766 *  0.586645 *  -2.87073    1.000000    
    237 O2    s    0.336388 *  0.665454 *  0.921415 *  -2.87073    1.000000    
    238 O2    s    0.672691 *  0.335505 *  0.749284 *  -2.87073    1.000000    
    239 O2    s    0.657578 *  0.328013 *  0.085073 *  -2.87073    1.000000    
    240 O2    s    0.672309 *  0.329261 *  0.421831 *  -2.87073    1.000000    
    241 O3    s    0.364816 *  0.320350 *  0.973889 *  -3.33043    1.000000    
    242 O2    s    0.668228 *  0.044539 *  0.302204 *  -2.87073    1.000000    
    243 O2    s    0.963597 *  0.618749 *  0.637555 *  -2.87073    1.000000    
    244 O2    s    0.625247 *  0.662112 *  0.472777 *  -2.87073    1.000000    
    245 O2    s    0.344952 *  0.958040 *  0.804224 *  -2.87073    1.000000    
    246 O2    s    0.029873 *  0.369487 *  0.139613 *  -2.87073    1.000000    
    247 O2    s    0.345011 *  0.381342 *  0.369105 *  -2.87073    1.000000    
    248 O2    s    0.040293 *  0.656892 *  0.034432 *  -2.87073    1.000000    
    249 O2    s    0.623814 *  0.953838 *  0.700504 *  -2.87073    1.000000    
    250 O2    s    0.669675 *  0.619771 *  0.869795 *  -2.87073    1.000000    
    251 O2    s    0.965431 *  0.338532 *  0.534041 *  -2.87073    1.000000    
    252 O3    s    0.361085 *  0.034674 *  0.199076 *  -3.33043    1.000000    
    253 O2    s    0.779992 *  0.309226 *  0.016817 *  -2.87073    1.000000    
    254 O2    s    0.689700 *  0.467766 *  0.352073 *  -2.87073    1.000000    
    255 O2    s    0.533249 *  0.214639 *  0.681003 *  -2.87073    1.000000    
    256 O2    s    0.224132 *  0.688241 *  0.516884 *  -2.87073    1.000000    
    257 O2    s    0.319869 *  0.529086 *  0.853192 *  -2.87073    1.000000    
    258 O3    s    0.456775 *  0.759161 *  0.181929 *  -3.33043    1.000000    
    259 O2    s    0.320533 *  0.785839 *  0.321397 *  -2.87073    1.000000    
    260 O2    s    0.471974 *  0.688056 *  0.991001 *  -2.87073    1.000000    
    261 O2    s    0.221989 *  0.528132 *  0.655778 *  -2.87073    1.000000    
    262 O2    s    0.690600 *  0.217020 *  0.819833 *  -2.87073    1.000000    
    263 O2    s    0.534403 *  0.310152 *  0.490930 *  -2.87073    1.000000    
    264 O2    s    0.773314 *  0.465731 *  0.154357 *  -2.87073    1.000000    
    265 O2    s    0.794705 *  0.530662 *  0.031806 *  -2.87073    1.000000    
    266 O2    s    0.469613 *  0.258295 *  0.369068 *  -2.87073    1.000000    
    267 O2    s    0.741025 *  0.200484 *  0.697138 *  -2.87073    1.000000    
    268 O2    s    0.211944 *  0.466550 *  0.533862 *  -2.87073    1.000000    
    269 O2    s    0.535899 *  0.730382 *  0.871777 *  -2.87073    1.000000    
    270 O2    s    0.266128 *  0.793251 *  0.199461 *  -2.87073    1.000000    
    271 O2    s    0.534374 *  0.798836 *  0.300467 *  -2.87073    1.000000    
    272 O2    s    0.270878 *  0.466864 *  0.973444 *  -2.87073    1.000000    
    273 O2    s    0.210252 *  0.737894 *  0.638867 *  -2.87073    1.000000    
    274 O2    s    0.470700 *  0.205950 *  0.803017 *  -2.87073    1.000000    
    275 O2    s    0.742092 *  0.532182 *  0.474652 *  -2.87073    1.000000    
    276 O2    s    0.785329 *  0.256128 *  0.140013 *  -2.87073    1.000000    
    277 O2    s    0.251338 *  0.328640 *  0.902823 *  -2.87073    1.000000    
    278 O3    s    0.681918 *  0.916152 *  0.234509 *  -3.33043    1.000000    
    279 O2    s    0.092366 *  0.756432 *  0.568181 *  -2.87073    1.000000    
    280 O2    s    0.761403 *  0.668263 *  0.403869 *  -2.87073    1.000000    
    281 O2    s    0.334478 *  0.084827 *  0.733860 *  -2.87073    1.000000    
    282 O2    s    0.903524 *  0.235249 *  0.069879 *  -2.87073    1.000000    
    283 O2    s    0.334730 *  0.242713 *  0.438936 *  -2.87073    1.000000    
    284 O2    s    0.907963 *  0.665076 *  0.102902 *  -2.87073    1.000000    
    285 O2    s    0.760792 *  0.085976 *  0.768739 *  -2.87073    1.000000    
    286 O2    s    0.674237 *  0.750769 *  0.940317 *  -2.87073    1.000000    
    287 O2    s    0.092104 *  0.328832 *  0.603936 *  -2.87073    1.000000    
    288 O2    s    0.248332 *  0.911002 *  0.270060 *  -2.87073    1.000000    
    289 O3    s    0.598516 *  0.572767 *  0.999245 *  -3.33043    1.000000    
    290 O2    s    0.447356 *  0.029160 *  0.320427 *  -2.87073    1.000000    
    291 O2    s    0.975925 *  0.411909 *  0.656510 *  -2.87073    1.000000    
    292 O2    s    0.419401 *  0.442043 *  0.491721 *  -2.87073    1.000000    
    293 O2    s    0.563622 *  0.969153 *  0.822382 *  -2.87073    1.000000    
    294 O2    s    0.019616 *  0.579944 *  0.157473 *  -2.87073    1.000000    
    295 O2    s    0.563881 *  0.589387 *  0.350881 *  -2.87073    1.000000    
    296 O2    s    0.027567 *  0.435827 *  0.016893 *  -2.87073    1.000000    
    297 O2    s    0.417707 *  0.968010 *  0.681678 *  -2.87073    1.000000    
    298 O2    s    0.448744 *  0.414400 *  0.850383 *  -2.87073    1.000000    
    299 O2    s    0.977992 *  0.557723 *  0.515038 *  -2.87073    1.000000    
    300 O1    s    0.591503 *  0.024261 *  0.170218 *  -3.73396    1.000000    
    301 O3    s    0.593632 *  0.174795 *  0.256523 *  -3.33043    1.000000    
    302 O2    s    0.847384 *  0.420105 *  0.585497 *  -2.87073    1.000000    
    303 O3    s    0.596810 *  0.413220 *  0.913374 *  -3.33043    1.000000    
    304 O2    s    0.424868 *  0.837441 *  0.753034 *  -2.87073    1.000000    
    305 O2    s    0.155808 *  0.573087 *  0.087873 *  -2.87073    1.000000    
    306 O2    s    0.425800 *  0.580733 *  0.420907 *  -2.87073    1.000000    
    307 F     s    0.485829 *  0.955441 *  0.237714 *  -1.56000    1.000000    
    308 F     s    0.096152 *  0.544912 *  0.586096 *  -1.56000    1.000000    
    309 F     s    0.482454 *  0.513996 *  0.932415 *  -1.56000    1.000000    
    310 F     s    0.548581 *  0.086862 *  0.751476 *  -1.56000    1.000000    
    311 F     s    0.918715 *  0.456283 *  0.086522 *  -1.56000    1.000000    
    312 F     s    0.548476 *  0.454100 *  0.421259 *  -1.56000    1.000000    
--------------------------------------------------------------------------------



********************************************************************************
*  General input information                                                   *
********************************************************************************

  Species output for all configurations : 

--------------------------------------------------------------------------------
  Species    Type    Atomic    Atomic    Charge       Radii (Angs)     Library
                     Number     Mass       (e)     Cova   Ionic  VDW   Symbol
--------------------------------------------------------------------------------
    Si       Core       14      28.09   4.000000   1.200  0.000  2.100          
    O1       Core        8      16.00   1.733957   0.730  0.000  1.360          
    O1       Shell       8       0.00  -3.733957   0.730  0.000  1.360          
    O2       Core        8      16.00   0.870733   0.730  0.000  1.360          
    O2       Shell       8       0.00  -2.870733   0.730  0.000  1.360          
    O3       Core        8      16.00   1.330431   0.730  0.000  1.360          
    O3       Shell       8       0.00  -3.330431   0.730  0.000  1.360          
    F        Core        9      19.00   0.560000   0.710  0.000  1.300          
    F        Shell       9       0.00  -1.560000   0.710  0.000  1.300          
    Ge       Core       32      72.61   4.000000   1.170  0.000  1.750          
--------------------------------------------------------------------------------


  Lattice summation method               =    Ewald          (3-D)
                                         =    Parry          (2-D)
                                         =    Saunders et al (1-D)
  Accuracy factor for lattice sums       =   12.000


  Time limit = Infinity

  Maximum range for interatomic potentials =        16.000000 Angstroms

  Taper potentials to zero over   1.0000 Angstroms using polynomial

  General interatomic potentials :

--------------------------------------------------------------------------------
Atom  Types   Potential         A         B         C         D     Cutoffs(Ang)
  1     2                                                            Min    Max 
--------------------------------------------------------------------------------
Si   c O1   s Buckingham    0.132E+04 0.318      10.1      0.00     0.000 16.000
Si   c O2   s Buckingham    0.132E+04 0.318      10.1      0.00     0.000 16.000
Si   c O3   s Buckingham    0.132E+04 0.318      10.1      0.00     0.000 16.000
Ge   c O1   s Buckingham    0.150E+04 0.326      16.8      0.00     0.000 16.000
Ge   c O2   s Buckingham    0.150E+04 0.326      16.8      0.00     0.000 16.000
Ge   c O3   s Buckingham    0.150E+04 0.326      16.8      0.00     0.000 16.000
O1   s O1   s Buckingham    0.228E+05 0.149      10.9      0.00     0.000 16.000
O1   s O2   s Buckingham    0.228E+05 0.149      10.9      0.00     0.000 16.000
O1   s O3   s Buckingham    0.228E+05 0.149      10.9      0.00     0.000 16.000
O2   s O2   s Buckingham    0.228E+05 0.149      10.9      0.00     0.000 16.000
O2   s O3   s Buckingham    0.228E+05 0.149      10.9      0.00     0.000 16.000
O3   s O3   s Buckingham    0.228E+05 0.149      10.9      0.00     0.000 16.000
Si   c F    s Buckingham     977.     0.282      0.00      0.00     0.000 16.000
Ge   c F    s Buckingham     681.     0.320      0.00      0.00     0.000 16.000
F    s F    s Buckingham     540.     0.262      0.00      0.00     0.000 16.000
O1   s F    s Buckingham    0.168E+04 0.268      0.00      0.00     0.000 16.000
O2   s F    s Buckingham    0.168E+04 0.268      0.00      0.00     0.000 16.000
O3   s F    s Buckingham    0.168E+04 0.268      0.00      0.00     0.000 16.000
O2   c O2   s Spring (c-s)   76.0      0.00      0.00      0.00     0.000  0.800
O3   c O3   s Spring (c-s)   128.      0.00      0.00      0.00     0.000  0.800
O1   c O1   s Spring (c-s)   180.      0.00      0.00      0.00     0.000  0.800
F    c F    s Spring (c-s)   33.5      0.00      0.00      0.00     0.000  0.800
--------------------------------------------------------------------------------

  General Three-body potentials :

  Harmonic form:

--------------------------------------------------------------------------------
Atom    Atom    Atom           Force Constants            Theta     Cutoffs  
  1       2       3     (eVrad**-2/eVrad**-3/eVrad**-4)   (deg)  1-2  1-3  2-3
--------------------------------------------------------------------------------
Si    c O1    s O1    s  1.261        0.0000    0.0000   109.470 0.00 0.00 0.00
                                                                 1.90 1.90 3.50
Si    c O1    s O2    s  1.261        0.0000    0.0000   109.470 0.00 0.00 0.00
                                                                 1.90 1.90 3.50
Si    c O2    s O2    s  1.261        0.0000    0.0000   109.470 0.00 0.00 0.00
                                                                 1.90 1.90 3.50
--------------------------------------------------------------------------------

********************************************************************************
*  Output for configuration   1                                                *
********************************************************************************


  Components of energy : 

--------------------------------------------------------------------------------
  Interatomic potentials     =        2065.00831690 eV
  Three-body potentials      =           0.45565553 eV
  Monopole - monopole (real) =       -6613.88546667 eV
  Monopole - monopole (recip)=       -3171.93292542 eV
  Monopole - monopole (total)=       -9785.81839209 eV
  Neutralising energy        =          -6.46054547 eV
--------------------------------------------------------------------------------
  Total lattice energy       =       -7726.81496514 eV
--------------------------------------------------------------------------------
  Total lattice energy       =         -745519.5290 kJ/(mole unit cells)
--------------------------------------------------------------------------------


  Number of variables =      939

  Maximum number of calculations  =          5000
  Maximum Hessian update interval =            10
  Maximum step size               =   0.100000000
  Maximum parameter tolerance     =   0.000010000
  Maximum function  tolerance     =   0.000010000
  Maximum gradient  tolerance     =   0.001000000
  Maximum gradient  component     =   0.010000000

  Symmetry not applied to optimisation

  Cell parameters to be optimised using strains

  Newton-Raphson optimiser to be used

  BFGS hessian update to be used

  Dumpfile to be written after every cycle

  Start of bulk optimisation :

  Cycle:      0 Energy:     -7726.814965  Gnorm:      0.000235  CPU:    2.018
  ** Hessian calculated **
  Cycle:      1 Energy:     -7726.816535  Gnorm:      0.000116  CPU:    6.587
  Cycle:      2 Energy:     -7726.816929  Gnorm:      0.000063  CPU:   10.780
  Cycle:      3 Energy:     -7726.817028  Gnorm:      0.000034  CPU:   14.974
  Cycle:      4 Energy:     -7726.817045  Gnorm:      0.000024  CPU:   17.806


  **** Optimisation achieved ****


  Final energy =   -7726.81705336 eV
  Final Gnorm  =       0.00001696

  Components of energy : 

--------------------------------------------------------------------------------
  Interatomic potentials     =        2065.08183594 eV
  Three-body potentials      =           0.45510833 eV
  Monopole - monopole (real) =       -6613.82343659 eV
  Monopole - monopole (recip)=       -3172.06973667 eV
  Monopole - monopole (total)=       -9785.89317326 eV
  Neutralising energy        =          -6.46082437 eV
--------------------------------------------------------------------------------
  Total lattice energy       =       -7726.81705336 eV
--------------------------------------------------------------------------------
  Total lattice energy       =         -745519.7304 kJ/(mole unit cells)
--------------------------------------------------------------------------------

  Final fractional coordinates of atoms :

--------------------------------------------------------------------------------
   No.  Atomic        x           y          z          Radius
        Label       (Frac)      (Frac)     (Frac)       (Angs) 
--------------------------------------------------------------------------------
     1  Si    c     0.699600    0.375700    0.033890    0.000000
     2  Si    c     0.625547    0.324470    0.371231    0.000000
     3  Si    c     0.677308    0.287937    0.699233    0.000000
     4  Si    c     0.301636    0.619233    0.536303    0.000000
     5  Si    c     0.385253    0.671770    0.870961    0.000000
     6  Si    c     0.320816    0.693831    0.200983    0.000000
     7  Si    c     0.386013    0.705411    0.303139    0.000000
     8  Si    c     0.328910    0.617379    0.973363    0.000000
     9  Si    c     0.299074    0.670430    0.637010    0.000000
    10  Si    c     0.624815    0.292093    0.799668    0.000000
    11  Si    c     0.679597    0.378190    0.471699    0.000000
    12  Si    c     0.693813    0.319482    0.136688    0.000000
    13  Ge    c     0.532052    0.426048    0.966564    0.000000
    14  Si    c     0.596172    0.125767    0.302875    0.000000
    15  Si    c     0.889537    0.464139    0.636027    0.000000
    16  Si    c     0.475787    0.584290    0.471878    0.000000
    17  Si    c     0.423039    0.881091    0.803490    0.000000
    18  Si    c     0.104945    0.521526    0.138009    0.000000
    19  Si    c     0.425582    0.534678    0.370404    0.000000
    20  Si    c     0.113433    0.576017    0.037085    0.000000
    21  Si    c     0.472315    0.878078    0.701999    0.000000
    22  Si    c     0.595850    0.462073    0.867375    0.000000
    23  Si    c     0.891866    0.414774    0.534632    0.000000
    24  Ge    c     0.530411    0.099710    0.202809    0.000000
    25  Si    c     0.309264    0.389642    0.855394    0.000000
    26  Ge    c     0.605099    0.898691    0.182110    0.000000
    27  Si    c     0.100256    0.695853    0.520847    0.000000
    28  Si    c     0.704464    0.604933    0.356467    0.000000
    29  Si    c     0.399724    0.087238    0.686463    0.000000
    30  Si    c     0.902935    0.297861    0.022473    0.000000
    31  Si    c     0.402761    0.301957    0.486240    0.000000
    32  Si    c     0.900127    0.597943    0.150491    0.000000
    33  Si    c     0.702124    0.090219    0.815935    0.000000
    34  Si    c     0.611879    0.698990    0.990693    0.000000
    35  Si    c     0.097431    0.391655    0.651026    0.000000
    36  Si    c     0.310168    0.911364    0.317432    0.000000
    37  Si    c     0.253815    0.328677    0.957625    0.000000
    38  Si    c     0.672287    0.919920    0.285367    0.000000
    39  Si    c     0.090543    0.743024    0.621511    0.000000
    40  Si    c     0.753582    0.661215    0.457148    0.000000
    41  Si    c     0.344065    0.082366    0.787260    0.000000
    42  Si    c     0.903289    0.244849    0.123352    0.000000
    43  Si    c     0.345494    0.253878    0.385498    0.000000
    44  Si    c     0.913926    0.655754    0.049535    0.000000
    45  Si    c     0.750617    0.078960    0.715422    0.000000
    46  Si    c     0.669967    0.742493    0.887338    0.000000
    47  Si    c     0.092837    0.337407    0.550363    0.000000
    48  Si    c     0.251433    0.912077    0.215305    0.000000
    49  Si    c     0.969561    0.120261    0.969763    0.000000
    50  Si    c     0.884028    0.851512    0.304098    0.000000
    51  Si    c     0.152290    0.022699    0.636743    0.000000
    52  Si    c     0.033479    0.877796    0.469965    0.000000
    53  Si    c     0.126191    0.144272    0.803762    0.000000
    54  Si    c     0.855186    0.965604    0.135438    0.000000
    55  Si    c     0.127487    0.974910    0.368873    0.000000
    56  Si    c     0.860542    0.881087    0.035726    0.000000
    57  Si    c     0.030975    0.143234    0.702541    0.000000
    58  Si    c     0.882913    0.025470    0.868691    0.000000
    59  Si    c     0.154751    0.119345    0.535719    0.000000
    60  Si    c     0.968451    0.842958    0.202472    0.000000
    61  O2    c     0.934276    0.995394    0.999830    0.000000
    62  O2    c     0.008651    0.934539    0.335214    0.000000
    63  O2    c     0.075468    0.064664    0.670570    0.000000
    64  O2    c     0.077867    0.000176    0.502187    0.000000
    65  O2    c     0.005496    0.063759    0.836739    0.000000
    66  O2    c     0.937317    0.932542    0.170573    0.000000
    67  O2    c     0.351278    0.585957    0.337381    0.000000
    68  O2    c     0.421205    0.751828    0.670053    0.000000
    69  O2    c     0.241217    0.652542    0.004934    0.000000
    70  O2    c     0.666224    0.420236    0.829349    0.000000
    71  O3    c     0.574883    0.238733    0.168376    0.000000
    72  O2    c     0.765494    0.338025    0.503146    0.000000
    73  O3    c     0.582579    0.338500    0.001565    0.000000
    74  O2    c     0.761675    0.412619    0.666992    0.000000
    75  O2    c     0.666539    0.240017    0.340095    0.000000
    76  O2    c     0.425757    0.659854    0.504181    0.000000
    77  O2    c     0.227009    0.567026    0.172201    0.000000
    78  O2    c     0.349196    0.756843    0.837375    0.000000
    79  O2    c     0.120911    0.211349    0.976085    0.000000
    80  O2    c     0.792481    0.914160    0.309149    0.000000
    81  O2    c     0.088369    0.867968    0.641862    0.000000
    82  O2    c     0.880041    0.787626    0.476648    0.000000
    83  O2    c     0.217576    0.080689    0.807667    0.000000
    84  O2    c     0.897410    0.115562    0.144327    0.000000
    85  O2    c     0.218018    0.130008    0.365304    0.000000
    86  O2    c     0.915095    0.783163    0.028609    0.000000
    87  O2    c     0.877199    0.078149    0.696324    0.000000
    88  O2    c     0.791956    0.870445    0.866064    0.000000
    89  O2    c     0.092273    0.211252    0.529908    0.000000
    90  O2    c     0.119557    0.899090    0.197099    0.000000
    91  O2    c     0.931447    0.856666    0.253415    0.000000
    92  O2    c     0.137724    0.064007    0.586332    0.000000
    93  O2    c     0.933737    0.073853    0.918448    0.000000
    94  O2    c     0.071141    0.133361    0.753554    0.000000
    95  O2    c     0.890862    0.942982    0.085192    0.000000
    96  O2    c     0.071195    0.928948    0.418905    0.000000
    97  O2    c     0.897683    0.197985    0.983863    0.000000
    98  O2    c     0.804310    0.700939    0.318524    0.000000
    99  O2    c     0.303492    0.089565    0.648064    0.000000
   100  O2    c     0.102723    0.794914    0.482101    0.000000
   101  O2    c     0.210908    0.295533    0.816716    0.000000
   102  O3    c     0.705317    0.878012    0.144113    0.000000
   103  O2    c     0.213853    0.909920    0.356313    0.000000
   104  O2    c     0.707002    0.808547    0.026490    0.000000
   105  O2    c     0.098702    0.294765    0.689822    0.000000
   106  O2    c     0.801707    0.094050    0.853863    0.000000
   107  O2    c     0.306421    0.202433    0.524622    0.000000
   108  O2    c     0.894242    0.692607    0.188941    0.000000
   109  O2    c     0.326912    0.651265    0.253523    0.000000
   110  O2    c     0.357149    0.673432    0.586783    0.000000
   111  O2    c     0.331482    0.669127    0.921558    0.000000
   112  O2    c     0.679809    0.346042    0.749081    0.000000
   113  O2    c     0.648036    0.323332    0.085024    0.000000
   114  O2    c     0.681033    0.323434    0.421557    0.000000
   115  O3    c     0.365867    0.309185    0.976490    0.000000
   116  O2    c     0.679429    0.050735    0.304180    0.000000
   117  O2    c     0.958156    0.620529    0.639672    0.000000
   118  O2    c     0.631438    0.672107    0.475034    0.000000
   119  O2    c     0.335949    0.950394    0.806568    0.000000
   120  O2    c     0.037168    0.365051    0.141903    0.000000
   121  O2    c     0.338007    0.378492    0.366825    0.000000
   122  O2    c     0.047850    0.666693    0.032125    0.000000
   123  O2    c     0.627937    0.945224    0.698394    0.000000
   124  O2    c     0.679122    0.621034    0.867702    0.000000
   125  O2    c     0.961205    0.327565    0.531547    0.000000
   126  O3    c     0.363233    0.044401    0.196439    0.000000
   127  O2    c     0.773062    0.302142    0.013887    0.000000
   128  O2    c     0.699621    0.468431    0.348736    0.000000
   129  O2    c     0.533682    0.220122    0.677784    0.000000
   130  O2    c     0.233774    0.695276    0.513800    0.000000
   131  O2    c     0.313312    0.527120    0.850486    0.000000
   132  O3    c     0.461023    0.752861    0.179565    0.000000
   133  O2    c     0.316405    0.779867    0.324246    0.000000
   134  O2    c     0.473710    0.694746    0.993366    0.000000
   135  O2    c     0.230105    0.525786    0.658935    0.000000
   136  O2    c     0.698769    0.222989    0.822878    0.000000
   137  O2    c     0.536600    0.302021    0.493913    0.000000
   138  O2    c     0.766900    0.465694    0.157251    0.000000
   139  O2    c     0.790220    0.532520    0.029119    0.000000
   140  O2    c     0.469760    0.250555    0.366418    0.000000
   141  O2    c     0.749593    0.203829    0.694322    0.000000
   142  O2    c     0.219717    0.463070    0.531256    0.000000
   143  O2    c     0.539087    0.735382    0.869826    0.000000
   144  O2    c     0.262327    0.789775    0.197207    0.000000
   145  O2    c     0.539518    0.795345    0.301940    0.000000
   146  O2    c     0.265385    0.462759    0.975552    0.000000
   147  O2    c     0.216624    0.744332    0.641462    0.000000
   148  O2    c     0.469185    0.210423    0.805424    0.000000
   149  O2    c     0.752547    0.534387    0.477266    0.000000
   150  O2    c     0.780800    0.249268    0.142675    0.000000
   151  O2    c     0.243219    0.318837    0.902382    0.000000
   152  O3    c     0.692369    0.916765    0.232499    0.000000
   153  O2    c     0.093993    0.764711    0.567178    0.000000
   154  O2    c     0.773838    0.677839    0.402924    0.000000
   155  O2    c     0.325807    0.083135    0.732929    0.000000
   156  O2    c     0.903729    0.225028    0.069051    0.000000
   157  O2    c     0.327934    0.233485    0.439840    0.000000
   158  O2    c     0.909530    0.674870    0.103722    0.000000
   159  O2    c     0.771212    0.084649    0.769628    0.000000
   160  O2    c     0.683038    0.756623    0.941525    0.000000
   161  O2    c     0.093687    0.317761    0.604704    0.000000
   162  O2    c     0.241980    0.910569    0.270421    0.000000
   163  O3    c     0.602275    0.566122    0.002926    0.000000
   164  O2    c     0.450930    0.034001    0.322821    0.000000
   165  O2    c     0.972066    0.405381    0.659738    0.000000
   166  O2    c     0.417838    0.442175    0.495170    0.000000
   167  O2    c     0.564664    0.962986    0.825779    0.000000
   168  O2    c     0.025885    0.584805    0.160967    0.000000
   169  O2    c     0.566907    0.595266    0.347582    0.000000
   170  O2    c     0.033162    0.434809    0.013540    0.000000
   171  O2    c     0.414007    0.961346    0.678368    0.000000
   172  O2    c     0.450446    0.410091    0.847488    0.000000
   173  O2    c     0.975791    0.556709    0.511416    0.000000
   174  O1    c     0.596923    0.030314    0.166382    0.000000
   175  O3    c     0.601003    0.186763    0.254553    0.000000
   176  O2    c     0.838161    0.413340    0.585212    0.000000
   177  O3    c     0.602139    0.404342    0.915077    0.000000
   178  O2    c     0.420124    0.824800    0.753125    0.000000
   179  O2    c     0.168387    0.578225    0.088049    0.000000
   180  O2    c     0.423072    0.586501    0.421046    0.000000
   181  F     c     0.484012    0.946689    0.239998    0.000000
   182  F     c     0.097741    0.543362    0.586026    0.000000
   183  F     c     0.478692    0.519255    0.929813    0.000000
   184  F     c     0.549486    0.085398    0.751433    0.000000
   185  F     c     0.917688    0.455389    0.086524    0.000000
   186  F     c     0.551569    0.454503    0.421225    0.000000
   187  O2    s     0.929887    0.996702    0.000467    0.000000
   188  O2    s     0.008371    0.930030    0.335592    0.000000
   189  O2    s     0.079078    0.068767    0.670366    0.000000
   190  O2    s     0.081511    0.999809    0.502333    0.000000
   191  O2    s     0.005518    0.068493    0.836561    0.000000
   192  O2    s     0.931777    0.925989    0.170325    0.000000
   193  O2    s     0.362556    0.593360    0.337126    0.000000
   194  O2    s     0.413906    0.756475    0.669937    0.000000
   195  O2    s     0.238084    0.641310    0.004697    0.000000
   196  O2    s     0.654780    0.411046    0.830061    0.000000
   197  O3    s     0.584634    0.237865    0.167332    0.000000
   198  O2    s     0.769699    0.350144    0.503148    0.000000
   199  O3    s     0.591753    0.348780    0.002600    0.000000
   200  O2    s     0.766161    0.404991    0.667139    0.000000
   201  O2    s     0.655100    0.237349    0.339623    0.000000
   202  O2    s     0.418124    0.647888    0.504173    0.000000
   203  O2    s     0.224894    0.576037    0.171886    0.000000
   204  O2    s     0.360470    0.760445    0.837496    0.000000
   205  O2    s     0.118572    0.214104    0.973351    0.000000
   206  O2    s     0.790196    0.908065    0.306275    0.000000
   207  O2    s     0.095421    0.871535    0.639229    0.000000
   208  O2    s     0.883205    0.784136    0.473965    0.000000
   209  O2    s     0.220933    0.087592    0.805178    0.000000
   210  O2    s     0.893564    0.113259    0.141281    0.000000
   211  O2    s     0.221544    0.126320    0.367737    0.000000
   212  O2    s     0.909117    0.780655    0.031479    0.000000
   213  O2    s     0.880358    0.085059    0.698913    0.000000
   214  O2    s     0.788954    0.873630    0.868527    0.000000
   215  O2    s     0.099012    0.214552    0.532631    0.000000
   216  O2    s     0.117166    0.894167    0.199709    0.000000
   217  O2    s     0.930125    0.854550    0.253570    0.000000
   218  O2    s     0.141273    0.065575    0.586316    0.000000
   219  O2    s     0.931828    0.073402    0.918407    0.000000
   220  O2    s     0.072809    0.135675    0.753463    0.000000
   221  O2    s     0.883552    0.938524    0.085156    0.000000
   222  O2    s     0.073281    0.928382    0.419022    0.000000
   223  O2    s     0.906069    0.199454    0.986170    0.000000
   224  O2    s     0.802368    0.706952    0.320970    0.000000
   225  O2    s     0.297274    0.082210    0.650800    0.000000
   226  O2    s     0.095097    0.793606    0.484773    0.000000
   227  O2    s     0.212023    0.289266    0.819279    0.000000
   228  O3    s     0.713050    0.888358    0.146033    0.000000
   229  O2    s     0.214698    0.916896    0.353638    0.000000
   230  O2    s     0.713165    0.805040    0.023859    0.000000
   231  O2    s     0.091304    0.288487    0.687192    0.000000
   232  O2    s     0.800015    0.086251    0.851470    0.000000
   233  O2    s     0.300175    0.203769    0.521887    0.000000
   234  O2    s     0.902829    0.699394    0.186570    0.000000
   235  O2    s     0.332508    0.661146    0.253582    0.000000
   236  O2    s     0.345519    0.667579    0.586756    0.000000
   237  O2    s     0.336829    0.664293    0.921413    0.000000
   238  O2    s     0.673796    0.334286    0.749140    0.000000
   239  O2    s     0.658036    0.328293    0.085122    0.000000
   240  O2    s     0.675110    0.329276    0.421576    0.000000
   241  O3    s     0.364787    0.319067    0.973755    0.000000
   242  O2    s     0.670476    0.044491    0.302070    0.000000
   243  O2    s     0.964956    0.617214    0.637383    0.000000
   244  O2    s     0.628215    0.661989    0.472841    0.000000
   245  O2    s     0.345801    0.956912    0.804234    0.000000
   246  O2    s     0.030483    0.368913    0.139586    0.000000
   247  O2    s     0.347863    0.381670    0.369155    0.000000
   248  O2    s     0.040936    0.656282    0.034419    0.000000
   249  O2    s     0.624797    0.952258    0.700542    0.000000
   250  O2    s     0.670114    0.618509    0.869754    0.000000
   251  O2    s     0.967864    0.337624    0.533850    0.000000
   252  O3    s     0.362878    0.034033    0.198938    0.000000
   253  O2    s     0.780143    0.309011    0.016862    0.000000
   254  O2    s     0.692461    0.468092    0.351914    0.000000
   255  O2    s     0.534408    0.213127    0.680942    0.000000
   256  O2    s     0.226672    0.687499    0.516896    0.000000
   257  O2    s     0.320405    0.527922    0.853147    0.000000
   258  O3    s     0.458152    0.758280    0.181928    0.000000
   259  O2    s     0.323006    0.785954    0.321321    0.000000
   260  O2    s     0.472459    0.687160    0.990994    0.000000
   261  O2    s     0.223200    0.526549    0.655801    0.000000
   262  O2    s     0.691493    0.215972    0.819721    0.000000
   263  O2    s     0.537247    0.309850    0.490794    0.000000
   264  O2    s     0.774335    0.465727    0.154420    0.000000
   265  O2    s     0.795102    0.530522    0.031835    0.000000
   266  O2    s     0.472334    0.258588    0.368949    0.000000
   267  O2    s     0.742105    0.198957    0.697073    0.000000
   268  O2    s     0.214444    0.465785    0.533826    0.000000
   269  O2    s     0.536462    0.729201    0.871815    0.000000
   270  O2    s     0.267641    0.792476    0.199489    0.000000
   271  O2    s     0.536658    0.798654    0.300336    0.000000
   272  O2    s     0.271333    0.465886    0.973463    0.000000
   273  O2    s     0.211521    0.736369    0.638866    0.000000
   274  O2    s     0.471621    0.204868    0.802901    0.000000
   275  O2    s     0.745000    0.531911    0.474554    0.000000
   276  O2    s     0.785963    0.255899    0.139992    0.000000
   277  O2    s     0.251488    0.327521    0.902775    0.000000
   278  O3    s     0.683921    0.915865    0.234420    0.000000
   279  O2    s     0.094284    0.755225    0.568070    0.000000
   280  O2    s     0.764353    0.668373    0.403848    0.000000
   281  O2    s     0.335449    0.083469    0.733838    0.000000
   282  O2    s     0.903637    0.234688    0.069857    0.000000
   283  O2    s     0.337594    0.242792    0.438930    0.000000
   284  O2    s     0.909042    0.664927    0.102927    0.000000
   285  O2    s     0.761702    0.084624    0.768697    0.000000
   286  O2    s     0.674760    0.749481    0.940347    0.000000
   287  O2    s     0.093990    0.327576    0.603823    0.000000
   288  O2    s     0.250383    0.910813    0.269974    0.000000
   289  O3    s     0.598507    0.571532    0.999218    0.000000
   290  O2    s     0.449703    0.029360    0.320225    0.000000
   291  O2    s     0.977115    0.410198    0.656331    0.000000
   292  O2    s     0.422430    0.441876    0.491775    0.000000
   293  O2    s     0.564424    0.968036    0.822390    0.000000
   294  O2    s     0.020700    0.579584    0.157502    0.000000
   295  O2    s     0.566741    0.589845    0.350919    0.000000
   296  O2    s     0.027782    0.435100    0.016893    0.000000
   297  O2    s     0.418729    0.966425    0.681718    0.000000
   298  O2    s     0.449108    0.413058    0.850322    0.000000
   299  O2    s     0.980589    0.556866    0.514849    0.000000
   300  O1    s     0.593006    0.023544    0.170071    0.000000
   301  O3    s     0.595878    0.174529    0.256261    0.000000
   302  O2    s     0.849257    0.418866    0.585250    0.000000
   303  O3    s     0.596972    0.411926    0.913267    0.000000
   304  O2    s     0.425764    0.836073    0.753108    0.000000
   305  O2    s     0.156467    0.572340    0.087883    0.000000
   306  O2    s     0.428746    0.580886    0.421008    0.000000
   307  F     s     0.487759    0.954862    0.237613    0.000000
   308  F     s     0.097983    0.543491    0.586032    0.000000
   309  F     s     0.482655    0.512813    0.932321    0.000000
   310  F     s     0.549543    0.085504    0.751455    0.000000
   311  F     s     0.919247    0.456156    0.086546    0.000000
   312  F     s     0.551593    0.454403    0.421221    0.000000
--------------------------------------------------------------------------------

  Final Cartesian lattice vectors (Angstroms) :

       11.995000    0.000171    0.002519
       -5.917890   10.342567   -0.001491
       -0.091189    0.248514   29.465210


  Final cell parameters and derivatives :

--------------------------------------------------------------------------------
       a           11.995000 Angstrom     dE/de1(xx)     0.002457 eV/strain
       b           11.915960 Angstrom     dE/de2(yy)     0.002411 eV/strain
       c           29.466399 Angstrom     dE/de3(zz)     0.003369 eV/strain
       alpha       89.499689 Degrees      dE/de4(yz)     0.000025 eV/strain
       beta        90.165271 Degrees      dE/de5(xz)     0.000078 eV/strain
       gamma      119.776844 Degrees      dE/de6(xy)     0.000144 eV/strain
--------------------------------------------------------------------------------

  Primitive cell volume =          3655.459935 Angs**3

  Density of cell =      1.750284 g/cm**3

  Non-primitive cell volume =          3655.459935 Angs**3


  Final internal derivatives :

--------------------------------------------------------------------------------
   No.  Atomic          a             b             c           Radius
        Label          (eV)          (eV)          (eV)        (eV/Angs)
--------------------------------------------------------------------------------
      1 Si    c       0.000000      0.000000      0.000000      0.000000
      2 Si    c      -0.000624     -0.000122     -0.000016      0.000000
      3 Si    c      -0.000150      0.000491      0.000291      0.000000
      4 Si    c      -0.000736      0.000011     -0.001170      0.000000
      5 Si    c       0.000040      0.000229     -0.000414      0.000000
      6 Si    c       0.000019      0.000478      0.000043      0.000000
      7 Si    c      -0.000353      0.000087     -0.000243      0.000000
      8 Si    c      -0.000033      0.000209      0.000424      0.000000
      9 Si    c      -0.000192      0.000551      0.001040      0.000000
     10 Si    c      -0.000162      0.000223     -0.000326      0.000000
     11 Si    c      -0.000764      0.000177     -0.000122      0.000000
     12 Si    c       0.000779      0.000091     -0.000218      0.000000
     13 Ge    c      -0.001009      0.001321     -0.000680      0.000000
     14 Si    c      -0.000445     -0.000489     -0.000283      0.000000
     15 Si    c      -0.000011      0.000634      0.000613      0.000000
     16 Si    c      -0.000463     -0.000341     -0.000221      0.000000
     17 Si    c      -0.000075      0.000308     -0.000284      0.000000
     18 Si    c      -0.000169      0.000428     -0.000211      0.000000
     19 Si    c      -0.000378     -0.000503     -0.000204      0.000000
     20 Si    c       0.000037      0.000189      0.000596      0.000000
     21 Si    c      -0.000070      0.000652     -0.000226      0.000000
     22 Si    c      -0.000163      0.000391     -0.000385      0.000000
     23 Si    c      -0.000098      0.000216     -0.000688      0.000000
     24 Ge    c      -0.000045     -0.001287      0.003119      0.000000
     25 Si    c       0.000139      0.000294     -0.000228      0.000000
     26 Ge    c      -0.000165      0.000119     -0.000310      0.000000
     27 Si    c      -0.000627      0.000101     -0.001044      0.000000
     28 Si    c      -0.000658     -0.000261     -0.000215      0.000000
     29 Si    c      -0.000059      0.000508     -0.000107      0.000000
     30 Si    c      -0.000003     -0.000144      0.000393      0.000000
     31 Si    c      -0.000775      0.000096      0.000325      0.000000
     32 Si    c       0.000112      0.000021     -0.000477      0.000000
     33 Si    c      -0.000076      0.000289      0.000096      0.000000
     34 Si    c      -0.000152      0.000666      0.000699      0.000000
     35 Si    c      -0.000059      0.000600      0.000539      0.000000
     36 Si    c      -0.000395     -0.000256     -0.000058      0.000000
     37 Si    c       0.000173      0.000256     -0.000233      0.000000
     38 Si    c      -0.000692     -0.000030      0.000356      0.000000
     39 Si    c      -0.000142      0.000449      0.000568      0.000000
     40 Si    c      -0.000568     -0.000080      0.000071      0.000000
     41 Si    c      -0.000107      0.000317     -0.000230      0.000000
     42 Si    c      -0.000026      0.000223      0.000680      0.000000
     43 Si    c      -0.000575     -0.000179     -0.000406      0.000000
     44 Si    c       0.000027      0.000558      0.000570      0.000000
     45 Si    c       0.000040      0.000518     -0.000197      0.000000
     46 Si    c      -0.000081      0.000240     -0.000271      0.000000
     47 Si    c      -0.000367      0.000342     -0.000921      0.000000
     48 Si    c      -0.000009      0.000055      0.000362      0.000000
     49 Si    c       0.000047      0.000316      0.000903      0.000000
     50 Si    c      -0.000390     -0.000381      0.000408      0.000000
     51 Si    c       0.000175      0.000104      0.001927      0.000000
     52 Si    c      -0.000577     -0.000177      0.000669      0.000000
     53 Si    c      -0.000040      0.000294      0.000342      0.000000
     54 Si    c      -0.000171      0.000333     -0.000477      0.000000
     55 Si    c      -0.000171     -0.000321     -0.001217      0.000000
     56 Si    c      -0.000170     -0.000041      0.000828      0.000000
     57 Si    c       0.000024      0.000546     -0.000370      0.000000
     58 Si    c      -0.000138      0.000151     -0.001455      0.000000
     59 Si    c      -0.000546      0.000280     -0.001556      0.000000
     60 Si    c      -0.000455      0.000221     -0.000294      0.000000
     61 O2    c       0.000261      0.000697     -0.001413      0.000000
     62 O2    c      -0.000761     -0.000308     -0.000872      0.000000
     63 O2    c      -0.000174      0.000619     -0.000276      0.000000
     64 O2    c      -0.000944      0.000087     -0.000399      0.000000
     65 O2    c       0.000032      0.000310     -0.000699      0.000000
     66 O2    c       0.000679     -0.000476      0.001221      0.000000
     67 O2    c      -0.000576     -0.000620      0.000262      0.000000
     68 O2    c       0.000105      0.000561     -0.000432      0.000000
     69 O2    c      -0.000066      0.000206     -0.000169      0.000000
     70 O2    c       0.000004      0.000216     -0.000342      0.000000
     71 O3    c      -0.000864      0.001699     -0.000711      0.000000
     72 O2    c      -0.000439     -0.000103      0.000373      0.000000
     73 O3    c      -0.001014      0.000312      0.000035      0.000000
     74 O2    c      -0.000003      0.000768     -0.000532      0.000000
     75 O2    c      -0.000281     -0.000437     -0.000036      0.000000
     76 O2    c      -0.000486      0.000115     -0.000775      0.000000
     77 O2    c      -0.000028     -0.000059     -0.000892      0.000000
     78 O2    c      -0.000012      0.000128     -0.000114      0.000000
     79 O2    c      -0.000021      0.000008      0.000274      0.000000
     80 O2    c      -0.000572     -0.000270      0.000191      0.000000
     81 O2    c      -0.000014      0.000554     -0.000157      0.000000
     82 O2    c      -0.000643     -0.000014     -0.000517      0.000000
     83 O2    c      -0.000043      0.000188     -0.000286      0.000000
     84 O2    c      -0.000088      0.000894      0.000302      0.000000
     85 O2    c      -0.000455     -0.000307     -0.000402      0.000000
     86 O2    c      -0.000073     -0.000110     -0.000355      0.000000
     87 O2    c       0.000008      0.000660     -0.000215      0.000000
     88 O2    c      -0.000015      0.000271     -0.000387      0.000000
     89 O2    c      -0.000565      0.000120     -0.000552      0.000000
     90 O2    c       0.000263      0.000037     -0.000430      0.000000
     91 O2    c      -0.000549     -0.000103      0.000108      0.000000
     92 O2    c      -0.000670      0.000354     -0.001628      0.000000
     93 O2    c       0.000175      0.000196     -0.000043      0.000000
     94 O2    c      -0.000134      0.000495     -0.000992      0.000000
     95 O2    c       0.000074      0.000087     -0.001114      0.000000
     96 O2    c      -0.000668      0.000040      0.000056      0.000000
     97 O2    c      -0.000001      0.000143      0.000268      0.000000
     98 O2    c      -0.000459     -0.000434     -0.000289      0.000000
     99 O2    c      -0.000019      0.000556     -0.000194      0.000000
    100 O2    c      -0.000607      0.000169     -0.000408      0.000000
    101 O2    c       0.000051      0.000377     -0.000045      0.000000
    102 O3    c      -0.001080      0.000184      0.000509      0.000000
    103 O2    c      -0.000630     -0.000261     -0.000297      0.000000
    104 O2    c      -0.000383      0.000337      0.000195      0.000000
    105 O2    c       0.000101      0.000546     -0.000266      0.000000
    106 O2    c      -0.000102      0.000203     -0.000190      0.000000
    107 O2    c      -0.000597      0.000044     -0.000503      0.000000
    108 O2    c      -0.000097     -0.000295     -0.000464      0.000000
    109 O2    c      -0.000305     -0.000186     -0.000328      0.000000
    110 O2    c       0.000148      0.000324     -0.000095      0.000000
    111 O2    c       0.000011      0.000326     -0.000478      0.000000
    112 O2    c      -0.000114      0.000397     -0.000205      0.000000
    113 O2    c      -0.000389      0.000009     -0.000844      0.000000
    114 O2    c      -0.000389     -0.000287     -0.000033      0.000000
    115 O3    c       0.000172      0.000122      0.001158      0.000000
    116 O2    c      -0.000312     -0.000302     -0.000276      0.000000
    117 O2    c       0.000002      0.000400     -0.000247      0.000000
    118 O2    c      -0.000663     -0.000143     -0.000425      0.000000
    119 O2    c      -0.000003      0.000160     -0.000173      0.000000
    120 O2    c       0.000148     -0.000023      0.000094      0.000000
    121 O2    c      -0.000543     -0.000289      0.000154      0.000000
    122 O2    c      -0.000192      0.000247      0.000227      0.000000
    123 O2    c      -0.000001      0.000525     -0.000106      0.000000
    124 O2    c       0.000041      0.000276     -0.000032      0.000000
    125 O2    c      -0.000651      0.000404     -0.000099      0.000000
    126 O3    c      -0.000178      0.000178      0.000666      0.000000
    127 O2    c      -0.000275      0.000039      0.000574      0.000000
    128 O2    c      -0.000415     -0.000397     -0.000147      0.000000
    129 O2    c      -0.000040      0.000588      0.000013      0.000000
    130 O2    c      -0.000097     -0.000080     -0.000542      0.000000
    131 O2    c      -0.000010      0.000251     -0.000299      0.000000
    132 O3    c      -0.000200      0.000283      0.000835      0.000000
    133 O2    c      -0.000643     -0.000306     -0.000082      0.000000
    134 O2    c      -0.000204      0.000365      0.000389      0.000000
    135 O2    c       0.000121      0.000627     -0.000220      0.000000
    136 O2    c      -0.000091      0.000231      0.000037      0.000000
    137 O2    c      -0.000458     -0.000063      0.000321      0.000000
    138 O2    c      -0.000135      0.000219      0.000241      0.000000
    139 O2    c      -0.000650      0.000309     -0.000562      0.000000
    140 O2    c      -0.000407     -0.000360     -0.000105      0.000000
    141 O2    c       0.000079      0.000504     -0.000195      0.000000
    142 O2    c      -0.000438      0.000188     -0.000120      0.000000
    143 O2    c       0.000101      0.000178     -0.000483      0.000000
    144 O2    c       0.000003     -0.000085     -0.000447      0.000000
    145 O2    c      -0.000495     -0.000256     -0.000167      0.000000
    146 O2    c      -0.000225      0.000716      0.000730      0.000000
    147 O2    c       0.000226      0.000416      0.000228      0.000000
    148 O2    c      -0.000092      0.000349      0.000047      0.000000
    149 O2    c      -0.000561      0.000025      0.000019      0.000000
    150 O2    c       0.000086     -0.000325      0.000702      0.000000
    151 O2    c      -0.000008      0.000259      0.000152      0.000000
    152 O3    c       0.000418     -0.000087      0.001648      0.000000
    153 O2    c      -0.000335      0.000626     -0.000152      0.000000
    154 O2    c      -0.000538     -0.000115     -0.000148      0.000000
    155 O2    c      -0.000132      0.000474     -0.000345      0.000000
    156 O2    c       0.000156      0.000085     -0.000847      0.000000
    157 O2    c      -0.000685     -0.000246     -0.000429      0.000000
    158 O2    c      -0.000147      0.000107     -0.000009      0.000000
    159 O2    c       0.000102      0.000319     -0.000489      0.000000
    160 O2    c      -0.000006      0.000315     -0.000382      0.000000
    161 O2    c      -0.000099      0.000123     -0.000059      0.000000
    162 O2    c      -0.000342     -0.000056     -0.000408      0.000000
    163 O3    c       0.000892     -0.000314      0.002729      0.000000
    164 O2    c      -0.000395     -0.000375     -0.000267      0.000000
    165 O2    c      -0.000004      0.000617     -0.000078      0.000000
    166 O2    c      -0.000751     -0.000016     -0.000238      0.000000
    167 O2    c      -0.000142      0.000200     -0.000113      0.000000
    168 O2    c       0.000058      0.000135     -0.000336      0.000000
    169 O2    c      -0.000606     -0.000299      0.000264      0.000000
    170 O2    c       0.000119      0.000213     -0.000026      0.000000
    171 O2    c       0.000062      0.000500      0.000063      0.000000
    172 O2    c      -0.000059      0.000314      0.000000      0.000000
    173 O2    c      -0.000535      0.000166     -0.000089      0.000000
    174 O1    c       0.000213      0.000912      0.003194      0.000000
    175 O3    c      -0.000308      0.000046     -0.000066      0.000000
    176 O2    c      -0.000493      0.000370      0.000109      0.000000
    177 O3    c       0.000228      0.000216     -0.001641      0.000000
    178 O2    c      -0.000072      0.000430     -0.000006      0.000000
    179 O2    c       0.000050      0.000208     -0.000522      0.000000
    180 O2    c      -0.000739     -0.000101     -0.000189      0.000000
    181 F     c      -0.000177     -0.000053     -0.000283      0.000000
    182 F     c      -0.000205      0.000417     -0.000085      0.000000
    183 F     c       0.000021      0.000225      0.000001      0.000000
    184 F     c      -0.000078      0.000453      0.000002      0.000000
    185 F     c      -0.000063      0.000101      0.000236      0.000000
    186 F     c      -0.000673     -0.000238      0.000015      0.000000
    187 O2    s       0.000214      0.000248     -0.000266      0.000000
    188 O2    s      -0.000526     -0.000309      0.000221      0.000000
    189 O2    s      -0.000028      0.000451      0.000866      0.000000
    190 O2    s      -0.000965      0.000111      0.000242      0.000000
    191 O2    s       0.000075      0.000164      0.000398      0.000000
    192 O2    s       0.000075     -0.000057      0.000281      0.000000
    193 O2    s      -0.000508     -0.000395      0.000142      0.000000
    194 O2    s       0.000253      0.000505      0.000220      0.000000
    195 O2    s      -0.000149      0.000398     -0.000348      0.000000
    196 O2    s      -0.000052      0.000229      0.000473      0.000000
    197 O3    s       0.000624     -0.001215      0.000154      0.000000
    198 O2    s      -0.000598      0.000124     -0.000124      0.000000
    199 O3    s       0.000796     -0.000101     -0.001077      0.000000
    200 O2    s      -0.000013      0.000537      0.000426      0.000000
    201 O2    s      -0.000501     -0.000280      0.000398      0.000000
    202 O2    s      -0.000404      0.000019      0.000317      0.000000
    203 O2    s      -0.000010      0.000410      0.000426      0.000000
    204 O2    s      -0.000033      0.000309      0.000044      0.000000
    205 O2    s      -0.000064      0.000418     -0.000256      0.000000
    206 O2    s      -0.000408     -0.000345     -0.000027      0.000000
    207 O2    s      -0.000099      0.000328      0.000514      0.000000
    208 O2    s      -0.000759      0.000113      0.000703      0.000000
    209 O2    s      -0.000047      0.000121      0.000333      0.000000
    210 O2    s       0.000090      0.000459     -0.000491      0.000000
    211 O2    s      -0.000512     -0.000151      0.000280      0.000000
    212 O2    s      -0.000090     -0.000070      0.000173      0.000000
    213 O2    s       0.000063      0.000491      0.000117      0.000000
    214 O2    s       0.000012      0.000142      0.000494      0.000000
    215 O2    s      -0.000728      0.000158      0.000440      0.000000
    216 O2    s      -0.000317      0.000393      0.000227      0.000000
    217 O2    s      -0.000538     -0.000165      0.000649      0.000000
    218 O2    s      -0.000249      0.000171      0.000540      0.000000
    219 O2    s      -0.000140      0.000317      0.000428      0.000000
    220 O2    s      -0.000080      0.000439      0.000278      0.000000
    221 O2    s       0.000082      0.000006      0.000297      0.000000
    222 O2    s      -0.000365     -0.000078      0.000187      0.000000
    223 O2    s      -0.000026      0.000169     -0.000693      0.000000
    224 O2    s      -0.000543     -0.000324     -0.000012      0.000000
    225 O2    s       0.000039      0.000639      0.000058      0.000000
    226 O2    s      -0.000451      0.000164      0.000062      0.000000
    227 O2    s      -0.000015      0.000308      0.000106      0.000000
    228 O3    s      -0.000140      0.000075     -0.000709      0.000000
    229 O2    s      -0.000400     -0.000516      0.000564      0.000000
    230 O2    s      -0.000284      0.000444     -0.000646      0.000000
    231 O2    s       0.000044      0.000543      0.000646      0.000000
    232 O2    s      -0.000226      0.000376      0.000276      0.000000
    233 O2    s      -0.000404     -0.000146      0.000680      0.000000
    234 O2    s      -0.000234     -0.000007      0.000157      0.000000
    235 O2    s      -0.000347     -0.000071     -0.000615      0.000000
    236 O2    s      -0.000289      0.000416      0.000065      0.000000
    237 O2    s      -0.000056      0.000402      0.000191      0.000000
    238 O2    s      -0.000063      0.000417      0.000263      0.000000
    239 O2    s       0.000146     -0.000135      0.000147      0.000000
    240 O2    s      -0.000516     -0.000181      0.000020      0.000000
    241 O3    s       0.000135      0.000379     -0.001323      0.000000
    242 O2    s      -0.000298     -0.000301      0.000603      0.000000
    243 O2    s      -0.000189      0.000660      0.000477      0.000000
    244 O2    s      -0.000668      0.000054      0.000408      0.000000
    245 O2    s      -0.000169      0.000310      0.000223      0.000000
    246 O2    s       0.000043      0.000288     -0.000408      0.000000
    247 O2    s      -0.000591     -0.000316     -0.000550      0.000000
    248 O2    s      -0.000123      0.000071     -0.000788      0.000000
    249 O2    s       0.000042      0.000547     -0.000105      0.000000
    250 O2    s       0.000031      0.000236     -0.000049      0.000000
    251 O2    s      -0.000357      0.000050      0.000111      0.000000
    252 O3    s      -0.000324      0.000443     -0.001167      0.000000
    253 O2    s      -0.000459      0.000517     -0.001070      0.000000
    254 O2    s      -0.000426     -0.000341     -0.000173      0.000000
    255 O2    s      -0.000048      0.000534     -0.000253      0.000000
    256 O2    s      -0.000603      0.000406      0.000444      0.000000
    257 O2    s      -0.000086      0.000314      0.000223      0.000000
    258 O3    s       0.000075      0.000106     -0.001351      0.000000
    259 O2    s      -0.000606     -0.000272      0.000504      0.000000
    260 O2    s      -0.000083      0.000246     -0.000803      0.000000
    261 O2    s       0.000141      0.000433      0.000365      0.000000
    262 O2    s      -0.000091      0.000221      0.000066      0.000000
    263 O2    s      -0.000618     -0.000096     -0.000183      0.000000
    264 O2    s       0.000003     -0.000069      0.000002      0.000000
    265 O2    s       0.000390     -0.000752     -0.000154      0.000000
    266 O2    s      -0.000518     -0.000275     -0.000113      0.000000
    267 O2    s      -0.000064      0.000504      0.000124      0.000000
    268 O2    s      -0.000414      0.000095     -0.000117      0.000000
    269 O2    s      -0.000124      0.000422      0.000523      0.000000
    270 O2    s      -0.000226      0.000136     -0.000172      0.000000
    271 O2    s      -0.000261     -0.000079      0.000377      0.000000
    272 O2    s      -0.000208      0.000282     -0.000870      0.000000
    273 O2    s      -0.000082      0.000554     -0.000214      0.000000
    274 O2    s      -0.000104      0.000185      0.000165      0.000000
    275 O2    s      -0.000662      0.000040      0.000147      0.000000
    276 O2    s      -0.000085      0.000919     -0.001430      0.000000
    277 O2    s       0.000006      0.000197     -0.000020      0.000000
    278 O3    s      -0.000832     -0.000348     -0.001258      0.000000
    279 O2    s      -0.000260      0.000286      0.000245      0.000000
    280 O2    s      -0.000613     -0.000225      0.000118      0.000000
    281 O2    s       0.000010      0.000366      0.000135      0.000000
    282 O2    s       0.000032      0.000172      0.000481      0.000000
    283 O2    s      -0.000484     -0.000228      0.000141      0.000000
    284 O2    s      -0.000158      0.000059     -0.000020      0.000000
    285 O2    s      -0.000150      0.000462      0.000238      0.000000
    286 O2    s      -0.000087      0.000452      0.000203      0.000000
    287 O2    s      -0.000290      0.000432     -0.000071      0.000000
    288 O2    s      -0.000544      0.000043      0.000310      0.000000
    289 O3    s      -0.000929      0.000835     -0.003361      0.000000
    290 O2    s      -0.000485     -0.000238      0.000978      0.000000
    291 O2    s      -0.000125      0.000529      0.000595      0.000000
    292 O2    s      -0.000648     -0.000083      0.000276      0.000000
    293 O2    s       0.000008      0.000248      0.000046      0.000000
    294 O2    s      -0.000034      0.000243      0.000619      0.000000
    295 O2    s      -0.000562     -0.000411     -0.000851      0.000000
    296 O2    s      -0.000142      0.000210     -0.000850      0.000000
    297 O2    s      -0.000002      0.000611     -0.000389      0.000000
    298 O2    s       0.000176      0.000140     -0.000037      0.000000
    299 O2    s      -0.000640      0.000328     -0.000019      0.000000
    300 O1    s      -0.000728      0.000042     -0.004284      0.000000
    301 O3    s      -0.000581      0.000154      0.000280      0.000000
    302 O2    s      -0.000210      0.000424      0.000152      0.000000
    303 O3    s       0.000011      0.000216      0.001638      0.000000
    304 O2    s       0.000061      0.000296     -0.000202      0.000000
    305 O2    s      -0.000008      0.000239      0.000116      0.000000
    306 O2    s      -0.000595     -0.000210     -0.000145      0.000000
    307 F     s      -0.000541      0.000312      0.000277      0.000000
    308 F     s      -0.000108      0.000499      0.000094      0.000000
    309 F     s       0.000349     -0.000053      0.000740      0.000000
    310 F     s       0.000032      0.000386     -0.000147      0.000000
    311 F     s       0.000008      0.000047     -0.000575      0.000000
    312 F     s      -0.000552     -0.000334     -0.000191      0.000000
--------------------------------------------------------------------------------
  Maximum abs         0.001080      0.001699      0.004284      0.000000
--------------------------------------------------------------------------------


  Time to end of optimisation =      20.6398 seconds


  Peak dynamic memory used =      19.13 MB 


  Timing analysis for GULP :

--------------------------------------------------------------------------------
  Task / Subroutine                                          Time (Seconds)
--------------------------------------------------------------------------------
  Calculation of reciprocal space energy and derivatives          0.6005
  Calculation of real space energy and derivatives               17.7716
  Calculation of three-body energy and derivatives                1.8433
  Calculation of matrix inversion                                 0.3718
--------------------------------------------------------------------------------
  Total CPU time                                                 20.6399
--------------------------------------------------------------------------------


  Dump file written as out.res                                                 
  CIF file written as out.cif                                                 


  Job Finished at 22:30.09 16th November   2016                               

