********************************************************************************
*                       GENERAL UTILITY LATTICE PROGRAM                        *
*                                 Julian Gale                                  *
*                      Nanochemistry Research Institute                        *
*                           Department of Chemistry                            *
*                    Curtin University, Western Australia                      *
********************************************************************************
* Version = 4.2.0 * Last modified =  20th January 2014                         *
********************************************************************************
*  optimise     - perform optimisation run                                     *
*  conp         - constant pressure calculation                                *
*  qok          - running with non charge neutral cell is OK                   *
********************************************************************************

  Job Started  at 09:42.28 29th November   2016                               

  Number of CPUs =     1


  Total number of configurations input =   1

********************************************************************************
*  Input for Configuration =   1                                               *
********************************************************************************

  Formula = Si57Ge3O120F6                                               

  Number of irreducible atoms/shells =     312


  Total number atoms/shells =     312

  Dimensionality = 3               :  Bulk   


  Charge on solid   =  -6.000000 =>neutralising background added


  Cartesian lattice vectors (Angstroms) :

       11.967004    0.000000    0.000000
       -5.892326   10.389685    0.000000
       -0.364403    0.167644   29.454672

  Cell parameters (Angstroms/Degrees):

  a =      11.9670    alpha =  89.3667
  b =      11.9442    beta  =  90.7088
  c =      29.4574    gamma = 119.5590

  Initial cell volume =        3662.199553 Angs**3

  Temperature of configuration =  0.000     K 

  Pressure of configuration =         0.000 GPa 

  Fractional coordinates of asymmetric unit :

--------------------------------------------------------------------------------
   No.  Atomic       x           y          z         Charge      Occupancy
        Label      (Frac)      (Frac)     (Frac)        (e)         (Frac)  
--------------------------------------------------------------------------------
      1 Si    c    0.699600    0.375700    0.033890     4.00000    1.000000    
      2 Si    c    0.620229 *  0.322456 *  0.367181 *   4.00000    1.000000    
      3 Si    c    0.681279 *  0.303235 *  0.694432 *   4.00000    1.000000    
      4 Si    c    0.300071 *  0.617801 *  0.532415 *   4.00000    1.000000    
      5 Si    c    0.375882 *  0.674486 *  0.868131 *   4.00000    1.000000    
      6 Si    c    0.324787 *  0.704310 *  0.200542 *   4.00000    1.000000    
      7 Si    c    0.380216 *  0.703967 *  0.301352 *   4.00000    1.000000    
      8 Si    c    0.323917 *  0.622583 *  0.970583 *   4.00000    1.000000    
      9 Si    c    0.302771 *  0.669054 *  0.633293 *   4.00000    1.000000    
     10 Si    c    0.617073 *  0.301145 *  0.795535 *   4.00000    1.000000    
     11 Si    c    0.675754 *  0.377738 *  0.467636 *   4.00000    1.000000    
     12 Si    c    0.703709 *  0.324256 *  0.135752 *   4.00000    1.000000    
     13 Ge    c    0.532106 *  0.431150 *  0.966241 *   4.00000    1.000000    
     14 Si    c    0.582102 *  0.112893 *  0.302317 *   4.00000    1.000000    
     15 Si    c    0.898030 *  0.474269 *  0.632622 *   4.00000    1.000000    
     16 Si    c    0.471737 *  0.581030 *  0.467886 *   4.00000    1.000000    
     17 Si    c    0.413376 *  0.882600 *  0.799356 *   4.00000    1.000000    
     18 Si    c    0.114054 *  0.530924 *  0.136040 *   4.00000    1.000000    
     19 Si    c    0.417704 *  0.529731 *  0.366395 *   4.00000    1.000000    
     20 Si    c    0.111283 *  0.582560 *  0.034535 *   4.00000    1.000000    
     21 Si    c    0.471027 *  0.876653 *  0.696765 *   4.00000    1.000000    
     22 Si    c    0.587303 *  0.462539 *  0.866508 *   4.00000    1.000000    
     23 Si    c    0.889749 *  0.417852 *  0.531675 *   4.00000    1.000000    
     24 Si    c    0.529327 *  0.114453 *  0.200400 *   4.00000    1.000000    
     25 Si    c    0.300901 *  0.392623 *  0.854686 *   4.00000    1.000000    
     26 Si    c    0.601199 *  0.905296 *  0.186153 *   4.00000    1.000000    
     27 Si    c    0.099470 *  0.697441 *  0.518336 *   4.00000    1.000000    
     28 Si    c    0.697334 *  0.600968 *  0.352648 *   4.00000    1.000000    
     29 Ge    c    0.411661 *  0.091988 *  0.688285 *   4.00000    1.000000    
     30 Si    c    0.904816 *  0.303385 *  0.021191 *   4.00000    1.000000    
     31 Si    c    0.398275 *  0.299390 *  0.482799 *   4.00000    1.000000    
     32 Si    c    0.904711 *  0.602229 *  0.150153 *   4.00000    1.000000    
     33 Si    c    0.695607 *  0.097485 *  0.814729 *   4.00000    1.000000    
     34 Si    c    0.608528 *  0.704868 *  0.987334 *   4.00000    1.000000    
     35 Si    c    0.099699 *  0.393503 *  0.647141 *   4.00000    1.000000    
     36 Si    c    0.302675 *  0.905050 *  0.316396 *   4.00000    1.000000    
     37 Si    c    0.252257 *  0.335122 *  0.957162 *   4.00000    1.000000    
     38 Si    c    0.659896 *  0.911350 *  0.286982 *   4.00000    1.000000    
     39 Si    c    0.099123 *  0.751414 *  0.619018 *   4.00000    1.000000    
     40 Si    c    0.750172 *  0.659978 *  0.453213 *   4.00000    1.000000    
     41 Si    c    0.332113 *  0.085797 *  0.783875 *   4.00000    1.000000    
     42 Si    c    0.914260 *  0.253676 *  0.121730 *   4.00000    1.000000    
     43 Si    c    0.339940 *  0.250744 *  0.381812 *   4.00000    1.000000    
     44 Si    c    0.908256 *  0.657653 *  0.048977 *   4.00000    1.000000    
     45 Si    c    0.751277 *  0.086181 *  0.713698 *   4.00000    1.000000    
     46 Si    c    0.660324 *  0.742303 *  0.884095 *   4.00000    1.000000    
     47 Si    c    0.090319 *  0.337676 *  0.546630 *   4.00000    1.000000    
     48 Si    c    0.252674 *  0.913399 *  0.215417 *   4.00000    1.000000    
     49 Si    c    0.971153 *  0.123446 *  0.971920 *   4.00000    1.000000    
     50 Si    c    0.878477 *  0.848371 *  0.302373 *   4.00000    1.000000    
     51 Si    c    0.160656 *  0.031752 *  0.635341 *   4.00000    1.000000    
     52 Si    c    0.029659 *  0.878085 *  0.468002 *   4.00000    1.000000    
     53 Si    c    0.122053 *  0.150757 *  0.801921 *   4.00000    1.000000    
     54 Si    c    0.849865 *  0.973189 *  0.137453 *   4.00000    1.000000    
     55 Si    c    0.122689 *  0.972008 *  0.367163 *   4.00000    1.000000    
     56 Si    c    0.852324 *  0.883120 *  0.036963 *   4.00000    1.000000    
     57 Si    c    0.032388 *  0.146871 *  0.699348 *   4.00000    1.000000    
     58 Ge    c    0.875405 *  0.027441 *  0.868450 *   4.00000    1.000000    
     59 Si    c    0.151745 *  0.119338 *  0.533582 *   4.00000    1.000000    
     60 Si    c    0.972046 *  0.848531 *  0.201856 *   4.00000    1.000000    
     61 O2    c    0.937372 *  0.005617 *  0.005681 *   0.87073    1.000000    
     62 O2    c    0.999632 *  0.929309 *  0.335006 *   0.87073    1.000000    
     63 O2    c    0.071701 *  0.064340 *  0.667864 *   0.87073    1.000000    
     64 O2    c    0.071552 *  0.997853 *  0.501110 *   0.87073    1.000000    
     65 O3    c    0.000462 *  0.068333 *  0.832584 *   1.33043    1.000000    
     66 O2    c    0.927715 *  0.930841 *  0.171200 *   0.87073    1.000000    
     67 O2    c    0.341029 *  0.579815 *  0.333838 *   0.87073    1.000000    
     68 O2    c    0.426219 *  0.746860 *  0.667101 *   0.87073    1.000000    
     69 O2    c    0.236881 *  0.659019 *  0.001896 *   0.87073    1.000000    
     70 O2    c    0.657543 *  0.424242 *  0.827530 *   0.87073    1.000000    
     71 O2    c    0.580444 *  0.240908 *  0.168072 *   0.87073    1.000000    
     72 O2    c    0.763047 *  0.340200 *  0.500063 *   0.87073    1.000000    
     73 O3    c    0.581683 *  0.342507 *  0.001640 *   1.33043    1.000000    
     74 O2    c    0.775807 *  0.429481 *  0.665671 *   0.87073    1.000000    
     75 O2    c    0.658317 *  0.237757 *  0.334674 *   0.87073    1.000000    
     76 O2    c    0.422512 *  0.657241 *  0.500033 *   0.87073    1.000000    
     77 O2    c    0.240633 *  0.581170 *  0.168205 *   0.87073    1.000000    
     78 O2    c    0.341709 *  0.759819 *  0.833623 *   0.87073    1.000000    
     79 O2    c    0.122784 *  0.217044 *  0.977095 *   0.87073    1.000000    
     80 O2    c    0.787447 *  0.912102 *  0.306730 *   0.87073    1.000000    
     81 O2    c    0.101099 *  0.876350 *  0.640092 *   0.87073    1.000000    
     82 O2    c    0.875902 *  0.786562 *  0.472897 *   0.87073    1.000000    
     83 O2    c    0.214777 *  0.089626 *  0.809650 *   0.87073    1.000000    
     84 O2    c    0.913827 *  0.126993 *  0.142382 *   0.87073    1.000000    
     85 O2    c    0.213532 *  0.125838 *  0.361579 *   0.87073    1.000000    
     86 O2    c    0.905936 *  0.784390 *  0.029364 *   0.87073    1.000000    
     87 O2    c    0.877415 *  0.085308 *  0.695401 *   0.87073    1.000000    
     88 O3    c    0.777448 *  0.864631 *  0.860953 *   1.33043    1.000000    
     89 O2    c    0.089552 *  0.211772 *  0.526335 *   0.87073    1.000000    
     90 O2    c    0.125282 *  0.912630 *  0.195430 *   0.87073    1.000000    
     91 O2    c    0.933671 *  0.858445 *  0.252643 *   0.87073    1.000000    
     92 O2    c    0.137416 *  0.068224 *  0.584461 *   0.87073    1.000000    
     93 O3    c    0.933749 *  0.066094 *  0.922057 *   1.33043    1.000000    
     94 O2    c    0.073486 *  0.141440 *  0.750806 *   0.87073    1.000000    
     95 O2    c    0.866715 *  0.930940 *  0.087951 *   0.87073    1.000000    
     96 O2    c    0.070301 *  0.933001 *  0.417679 *   0.87073    1.000000    
     97 O2    c    0.899349 *  0.204040 *  0.982517 *   0.87073    1.000000    
     98 O2    c    0.795789 *  0.697263 *  0.314569 *   0.87073    1.000000    
     99 O3    c    0.307163 *  0.102084 *  0.646488 *   1.33043    1.000000    
    100 O2    c    0.099618 *  0.795388 *  0.479699 *   0.87073    1.000000    
    101 O2    c    0.201159 *  0.301345 *  0.816016 *   0.87073    1.000000    
    102 O2    c    0.698083 *  0.905029 *  0.147943 *   0.87073    1.000000    
    103 O2    c    0.205020 *  0.902764 *  0.354767 *   0.87073    1.000000    
    104 O2    c    0.702200 *  0.816325 *  0.022730 *   0.87073    1.000000    
    105 O2    c    0.100641 *  0.297045 *  0.686098 *   0.87073    1.000000    
    106 O3    c    0.787222 *  0.102746 *  0.855308 *   1.33043    1.000000    
    107 O2    c    0.302772 *  0.200850 *  0.521077 *   0.87073    1.000000    
    108 O2    c    0.902966 *  0.698333 *  0.188375 *   0.87073    1.000000    
    109 O2    c    0.324237 *  0.646942 *  0.251030 *   0.87073    1.000000    
    110 O2    c    0.358274 *  0.671853 *  0.582870 *   0.87073    1.000000    
    111 O2    c    0.323585 *  0.673498 *  0.918750 *   0.87073    1.000000    
    112 O2    c    0.671605 *  0.353243 *  0.745286 *   0.87073    1.000000    
    113 O2    c    0.648275 *  0.323374 *  0.085206 *   0.87073    1.000000    
    114 O2    c    0.676816 *  0.320873 *  0.417650 *   0.87073    1.000000    
    115 O3    c    0.365903 *  0.317398 *  0.976262 *   1.33043    1.000000    
    116 O2    c    0.669453 *  0.043309 *  0.305409 *   0.87073    1.000000    
    117 O2    c    0.966197 *  0.629380 *  0.636486 *   0.87073    1.000000    
    118 O2    c    0.627296 *  0.669012 *  0.471277 *   0.87073    1.000000    
    119 O2    c    0.328433 *  0.953651 *  0.801812 *   0.87073    1.000000    
    120 O2    c    0.046804 *  0.374933 *  0.140090 *   0.87073    1.000000    
    121 O2    c    0.330092 *  0.373976 *  0.363363 *   0.87073    1.000000    
    122 O2    c    0.042363 *  0.670433 *  0.030807 *   0.87073    1.000000    
    123 O2    c    0.628046 *  0.952927 *  0.697249 *   0.87073    1.000000    
    124 O2    c    0.669395 *  0.619910 *  0.866354 *   0.87073    1.000000    
    125 O2    c    0.958448 *  0.329887 *  0.528334 *   0.87073    1.000000    
    126 O2    c    0.373414 *  0.046222 *  0.196951 *   0.87073    1.000000    
    127 O2    c    0.770838 *  0.301649 *  0.013212 *   0.87073    1.000000    
    128 O2    c    0.695657 *  0.466039 *  0.345045 *   0.87073    1.000000    
    129 O3    c    0.545053 *  0.239353 *  0.670176 *   1.33043    1.000000    
    130 O2    c    0.231464 *  0.694200 *  0.510507 *   0.87073    1.000000    
    131 O2    c    0.304123 *  0.529295 *  0.849018 *   0.87073    1.000000    
    132 O2    c    0.467534 *  0.772287 *  0.178374 *   0.87073    1.000000    
    133 O2    c    0.304851 *  0.771611 *  0.323675 *   0.87073    1.000000    
    134 O2    c    0.469465 *  0.699048 *  0.990123 *   0.87073    1.000000    
    135 O2    c    0.233954 *  0.525216 *  0.655077 *   0.87073    1.000000    
    136 O2    c    0.689343 *  0.228375 *  0.816936 *   0.87073    1.000000    
    137 O2    c    0.533784 *  0.301417 *  0.490206 *   0.87073    1.000000    
    138 O2    c    0.772780 *  0.467656 *  0.157590 *   0.87073    1.000000    
    139 O2    c    0.786014 *  0.532674 *  0.028785 *   0.87073    1.000000    
    140 O2    c    0.464666 *  0.249469 *  0.362276 *   0.87073    1.000000    
    141 O2    c    0.746158 *  0.210154 *  0.694795 *   0.87073    1.000000    
    142 O2    c    0.216774 *  0.462504 *  0.527610 *   0.87073    1.000000    
    143 O2    c    0.529178 *  0.737053 *  0.867033 *   0.87073    1.000000    
    144 O2    c    0.251106 *  0.787318 *  0.195524 *   0.87073    1.000000    
    145 O2    c    0.535792 *  0.785160 *  0.306553 *   0.87073    1.000000    
    146 O2    c    0.260918 *  0.468690 *  0.973716 *   0.87073    1.000000    
    147 O2    c    0.222517 *  0.744837 *  0.638532 *   0.87073    1.000000    
    148 O2    c    0.462973 *  0.213967 *  0.799940 *   0.87073    1.000000    
    149 O2    c    0.750410 *  0.533539 *  0.472843 *   0.87073    1.000000    
    150 O2    c    0.787754 *  0.251784 *  0.140996 *   0.87073    1.000000    
    151 O2    c    0.236042 *  0.322929 *  0.901942 *   0.87073    1.000000    
    152 O2    c    0.676274 *  0.909354 *  0.232694 *   0.87073    1.000000    
    153 O2    c    0.099329 *  0.769529 *  0.564532 *   0.87073    1.000000    
    154 O2    c    0.767764 *  0.676128 *  0.398857 *   0.87073    1.000000    
    155 O3    c    0.303115 *  0.084552 *  0.731440 *   1.33043    1.000000    
    156 O2    c    0.912780 *  0.232983 *  0.067459 *   0.87073    1.000000    
    157 O2    c    0.324124 *  0.230914 *  0.436150 *   0.87073    1.000000    
    158 O2    c    0.907156 *  0.674987 *  0.103269 *   0.87073    1.000000    
    159 O2    c    0.762672 *  0.088684 *  0.768601 *   0.87073    1.000000    
    160 O2    c    0.677869 *  0.763526 *  0.938263 *   0.87073    1.000000    
    161 O2    c    0.092655 *  0.318172 *  0.601001 *   0.87073    1.000000    
    162 O2    c    0.233100 *  0.910767 *  0.269678 *   0.87073    1.000000    
    163 O3    c    0.604185 *  0.574778 *  0.000448 *   1.33043    1.000000    
    164 O2    c    0.441674 *  0.029454 *  0.325232 *   0.87073    1.000000    
    165 O2    c    0.975856 *  0.409648 *  0.656475 *   0.87073    1.000000    
    166 O2    c    0.413823 *  0.439670 *  0.491227 *   0.87073    1.000000    
    167 O2    c    0.555217 *  0.973168 *  0.820235 *   0.87073    1.000000    
    168 O2    c    0.030826 *  0.588754 *  0.159033 *   0.87073    1.000000    
    169 O2    c    0.558117 *  0.587341 *  0.343315 *   0.87073    1.000000    
    170 O2    c    0.030380 *  0.441768 *  0.011070 *   0.87073    1.000000    
    171 O3    c    0.410345 *  0.950775 *  0.670223 *   1.33043    1.000000    
    172 O2    c    0.441026 *  0.410028 *  0.847008 *   0.87073    1.000000    
    173 O2    c    0.973368 *  0.559792 *  0.509218 *   0.87073    1.000000    
    174 O2    c    0.586225 *  0.030634 *  0.177187 *   0.87073    1.000000    
    175 O2    c    0.581699 *  0.166531 *  0.251348 *   0.87073    1.000000    
    176 O2    c    0.839021 *  0.418795 *  0.582599 *   0.87073    1.000000    
    177 O3    c    0.597582 *  0.406452 *  0.914259 *   1.33043    1.000000    
    178 O2    c    0.417169 *  0.832250 *  0.748904 *   0.87073    1.000000    
    179 O2    c    0.167820 *  0.583972 *  0.085128 *   0.87073    1.000000    
    180 O2    c    0.417988 *  0.582487 *  0.417070 *   0.87073    1.000000    
    181 F     c    0.452221 *  0.905555 *  0.250951 *   0.56000    1.000000    
    182 F     c    0.097268 *  0.543687 *  0.583304 *   0.56000    1.000000    
    183 F     c    0.475053 *  0.522735 *  0.928460 *   0.56000    1.000000    
    184 F     c    0.517602 *  0.091876 *  0.737762 *   0.56000    1.000000    
    185 F     c    0.911807 *  0.453093 *  0.084912 *   0.56000    1.000000    
    186 F     c    0.548502 *  0.451611 *  0.417444 *   0.56000    1.000000    
    187 O2    s    0.931576 *  0.005071 *  0.005405 *  -2.87073    1.000000    
    188 O2    s    0.999888 *  0.925054 *  0.334963 *  -2.87073    1.000000    
    189 O2    s    0.076326 *  0.070341 *  0.668104 *  -2.87073    1.000000    
    190 O2    s    0.075704 *  0.997829 *  0.500983 *  -2.87073    1.000000    
    191 O3    s    0.002456 *  0.073588 *  0.832475 *  -3.33043    1.000000    
    192 O2    s    0.923837 *  0.926283 *  0.170832 *  -2.87073    1.000000    
    193 O2    s    0.353029 *  0.587471 *  0.333842 *  -2.87073    1.000000    
    194 O2    s    0.418603 *  0.752230 *  0.666757 *  -2.87073    1.000000    
    195 O2    s    0.233759 *  0.647653 *  0.001765 *  -2.87073    1.000000    
    196 O2    s    0.646144 *  0.415043 *  0.828070 *  -2.87073    1.000000    
    197 O2    s    0.587798 *  0.236440 *  0.168084 *  -2.87073    1.000000    
    198 O2    s    0.767233 *  0.352138 *  0.500006 *  -2.87073    1.000000    
    199 O3    s    0.590841 *  0.352279 *  0.002609 *  -3.33043    1.000000    
    200 O2    s    0.778277 *  0.420483 *  0.665369 *  -2.87073    1.000000    
    201 O2    s    0.646551 *  0.233582 *  0.334695 *  -2.87073    1.000000    
    202 O2    s    0.414842 *  0.645301 *  0.500109 *  -2.87073    1.000000    
    203 O2    s    0.236304 *  0.588710 *  0.168242 *  -2.87073    1.000000    
    204 O2    s    0.352508 *  0.763258 *  0.833776 *  -2.87073    1.000000    
    205 O2    s    0.119962 *  0.219508 *  0.974361 *  -2.87073    1.000000    
    206 O2    s    0.783908 *  0.905239 *  0.304250 *  -2.87073    1.000000    
    207 O2    s    0.106850 *  0.878563 *  0.637397 *  -2.87073    1.000000    
    208 O2    s    0.879087 *  0.783131 *  0.470384 *  -2.87073    1.000000    
    209 O2    s    0.217015 *  0.095678 *  0.806251 *  -2.87073    1.000000    
    210 O2    s    0.907015 *  0.123646 *  0.139742 *  -2.87073    1.000000    
    211 O2    s    0.216926 *  0.122419 *  0.364229 *  -2.87073    1.000000    
    212 O2    s    0.900466 *  0.781904 *  0.032135 *  -2.87073    1.000000    
    213 O2    s    0.879836 *  0.091693 *  0.697739 *  -2.87073    1.000000    
    214 O3    s    0.773703 *  0.865727 *  0.863906 *  -3.33043    1.000000    
    215 O2    s    0.096157 *  0.215222 *  0.529185 *  -2.87073    1.000000    
    216 O2    s    0.122153 *  0.905895 *  0.198155 *  -2.87073    1.000000    
    217 O2    s    0.931753 *  0.856156 *  0.252514 *  -2.87073    1.000000    
    218 O2    s    0.141486 *  0.070180 *  0.584027 *  -2.87073    1.000000    
    219 O3    s    0.932321 *  0.068583 *  0.922387 *  -3.33043    1.000000    
    220 O2    s    0.074357 *  0.143049 *  0.750880 *  -2.87073    1.000000    
    221 O2    s    0.863141 *  0.930204 *  0.087667 *  -2.87073    1.000000    
    222 O2    s    0.071639 *  0.931216 *  0.417646 *  -2.87073    1.000000    
    223 O2    s    0.907588 *  0.205310 *  0.985208 *  -2.87073    1.000000    
    224 O2    s    0.794494 *  0.703497 *  0.317184 *  -2.87073    1.000000    
    225 O3    s    0.297737 *  0.093499 *  0.648046 *  -3.33043    1.000000    
    226 O2    s    0.092133 *  0.794127 *  0.482433 *  -2.87073    1.000000    
    227 O2    s    0.203335 *  0.295291 *  0.818592 *  -2.87073    1.000000    
    228 O2    s    0.704288 *  0.912273 *  0.150711 *  -2.87073    1.000000    
    229 O2    s    0.206276 *  0.910329 *  0.352174 *  -2.87073    1.000000    
    230 O2    s    0.708379 *  0.812055 *  0.020617 *  -2.87073    1.000000    
    231 O2    s    0.093151 *  0.290761 *  0.683498 *  -2.87073    1.000000    
    232 O3    s    0.785007 *  0.096200 *  0.852260 *  -3.33043    1.000000    
    233 O2    s    0.296833 *  0.202443 *  0.518453 *  -2.87073    1.000000    
    234 O2    s    0.910489 *  0.704426 *  0.185890 *  -2.87073    1.000000    
    235 O2    s    0.330052 *  0.658702 *  0.250995 *  -2.87073    1.000000    
    236 O2    s    0.346643 *  0.666063 *  0.582938 *  -2.87073    1.000000    
    237 O2    s    0.329017 *  0.668613 *  0.918596 *  -2.87073    1.000000    
    238 O2    s    0.666667 *  0.342761 *  0.745721 *  -2.87073    1.000000    
    239 O2    s    0.659254 *  0.328708 *  0.085383 *  -2.87073    1.000000    
    240 O2    s    0.670889 *  0.326826 *  0.417573 *  -2.87073    1.000000    
    241 O3    s    0.364774 *  0.327001 *  0.973480 *  -3.33043    1.000000    
    242 O2    s    0.659467 *  0.036680 *  0.303160 *  -2.87073    1.000000    
    243 O2    s    0.972886 *  0.625759 *  0.634245 *  -2.87073    1.000000    
    244 O2    s    0.624149 *  0.659043 *  0.469042 *  -2.87073    1.000000    
    245 O2    s    0.337773 *  0.959153 *  0.799766 *  -2.87073    1.000000    
    246 O2    s    0.039886 *  0.378273 *  0.137751 *  -2.87073    1.000000    
    247 O2    s    0.340142 *  0.377071 *  0.365625 *  -2.87073    1.000000    
    248 O2    s    0.035911 *  0.660111 *  0.033024 *  -2.87073    1.000000    
    249 O2    s    0.625212 *  0.959213 *  0.698934 *  -2.87073    1.000000    
    250 O2    s    0.660243 *  0.617382 *  0.868301 *  -2.87073    1.000000    
    251 O2    s    0.965284 *  0.339767 *  0.530619 *  -2.87073    1.000000    
    252 O2    s    0.376824 *  0.039439 *  0.199228 *  -2.87073    1.000000    
    253 O2    s    0.778216 *  0.309397 *  0.016229 *  -2.87073    1.000000    
    254 O2    s    0.688063 *  0.465451 *  0.348159 *  -2.87073    1.000000    
    255 O3    s    0.549866 *  0.235565 *  0.674045 *  -3.33043    1.000000    
    256 O2    s    0.224624 *  0.686617 *  0.513641 *  -2.87073    1.000000    
    257 O2    s    0.311395 *  0.530534 *  0.851652 *  -2.87073    1.000000    
    258 O2    s    0.466994 *  0.779312 *  0.181482 *  -2.87073    1.000000    
    259 O2    s    0.312383 *  0.778771 *  0.320582 *  -2.87073    1.000000    
    260 O2    s    0.468081 *  0.691595 *  0.987758 *  -2.87073    1.000000    
    261 O2    s    0.226862 *  0.526166 *  0.651938 *  -2.87073    1.000000    
    262 O2    s    0.682438 *  0.221592 *  0.814431 *  -2.87073    1.000000    
    263 O2    s    0.534189 *  0.309033 *  0.487084 *  -2.87073    1.000000    
    264 O2    s    0.779600 *  0.467123 *  0.154546 *  -2.87073    1.000000    
    265 O2    s    0.791360 *  0.531176 *  0.031501 *  -2.87073    1.000000    
    266 O2    s    0.467371 *  0.257293 *  0.364874 *  -2.87073    1.000000    
    267 O2    s    0.740147 *  0.205554 *  0.696835 *  -2.87073    1.000000    
    268 O2    s    0.211757 *  0.465321 *  0.530153 *  -2.87073    1.000000    
    269 O2    s    0.526293 *  0.730697 *  0.868964 *  -2.87073    1.000000    
    270 O2    s    0.259096 *  0.792406 *  0.198172 *  -2.87073    1.000000    
    271 O2    s    0.533082 *  0.790493 *  0.303929 *  -2.87073    1.000000    
    272 O2    s    0.267071 *  0.471756 *  0.971672 *  -2.87073    1.000000    
    273 O2    s    0.217597 *  0.737395 *  0.635917 *  -2.87073    1.000000    
    274 O2    s    0.466005 *  0.210017 *  0.797811 *  -2.87073    1.000000    
    275 O2    s    0.742573 *  0.531135 *  0.470212 *  -2.87073    1.000000    
    276 O2    s    0.792770 *  0.259672 *  0.138398 *  -2.87073    1.000000    
    277 O2    s    0.244541 *  0.331541 *  0.902359 *  -2.87073    1.000000    
    278 O2    s    0.666634 *  0.909140 *  0.233548 *  -2.87073    1.000000    
    279 O2    s    0.099336 *  0.760056 *  0.565440 *  -2.87073    1.000000    
    280 O2    s    0.758502 *  0.666529 *  0.399799 *  -2.87073    1.000000    
    281 O3    s    0.313390 *  0.085115 *  0.734165 *  -3.33043    1.000000    
    282 O2    s    0.912156 *  0.242527 *  0.068306 *  -2.87073    1.000000    
    283 O2    s    0.333572 *  0.240184 *  0.435257 *  -2.87073    1.000000    
    284 O2    s    0.907017 *  0.665463 *  0.102480 *  -2.87073    1.000000    
    285 O2    s    0.754523 *  0.089277 *  0.767772 *  -2.87073    1.000000    
    286 O2    s    0.669346 *  0.755626 *  0.937227 *  -2.87073    1.000000    
    287 O2    s    0.093153 *  0.328188 *  0.600158 *  -2.87073    1.000000    
    288 O2    s    0.242522 *  0.910470 *  0.268852 *  -2.87073    1.000000    
    289 O3    s    0.599655 *  0.579356 *  0.996756 *  -3.33043    1.000000    
    290 O2    s    0.441366 *  0.024602 *  0.321893 *  -2.87073    1.000000    
    291 O2    s    0.981248 *  0.414751 *  0.652988 *  -2.87073    1.000000    
    292 O2    s    0.418361 *  0.439328 *  0.487893 *  -2.87073    1.000000    
    293 O2    s    0.555247 *  0.976935 *  0.817437 *  -2.87073    1.000000    
    294 O2    s    0.025769 *  0.584001 *  0.155675 *  -2.87073    1.000000    
    295 O2    s    0.558520 *  0.582632 *  0.346733 *  -2.87073    1.000000    
    296 O2    s    0.025446 *  0.441783 *  0.014539 *  -2.87073    1.000000    
    297 O3    s    0.416931 *  0.953770 *  0.674297 *  -3.33043    1.000000    
    298 O2    s    0.439971 *  0.413390 *  0.849802 *  -2.87073    1.000000    
    299 O2    s    0.978329 *  0.559706 *  0.512562 *  -2.87073    1.000000    
    300 O2    s    0.581725 *  0.025678 *  0.180581 *  -2.87073    1.000000    
    301 O2    s    0.576289 *  0.155563 *  0.251343 *  -2.87073    1.000000    
    302 O2    s    0.850424 *  0.424468 *  0.582537 *  -2.87073    1.000000    
    303 O3    s    0.592342 *  0.413965 *  0.912508 *  -3.33043    1.000000    
    304 O2    s    0.421916 *  0.841832 *  0.749249 *  -2.87073    1.000000    
    305 O2    s    0.156468 *  0.578407 *  0.085042 *  -2.87073    1.000000    
    306 O2    s    0.423566 *  0.576852 *  0.417093 *  -2.87073    1.000000    
    307 F     s    0.452023 *  0.905190 *  0.250926 *  -1.56000    1.000000    
    308 F     s    0.097283 *  0.543556 *  0.583402 *  -1.56000    1.000000    
    309 F     s    0.479051 *  0.516959 *  0.930833 *  -1.56000    1.000000    
    310 F     s    0.511050 *  0.091898 *  0.734915 *  -1.56000    1.000000    
    311 F     s    0.912308 *  0.453009 *  0.084868 *  -1.56000    1.000000    
    312 F     s    0.548767 *  0.451467 *  0.417446 *  -1.56000    1.000000    
--------------------------------------------------------------------------------



********************************************************************************
*  General input information                                                   *
********************************************************************************

  Species output for all configurations : 

--------------------------------------------------------------------------------
  Species    Type    Atomic    Atomic    Charge       Radii (Angs)     Library
                     Number     Mass       (e)     Cova   Ionic  VDW   Symbol
--------------------------------------------------------------------------------
    Si       Core       14      28.09   4.000000   1.200  0.000  2.100          
    O1       Core        8      16.00   1.733957   0.730  0.000  1.360          
    O1       Shell       8       0.00  -3.733957   0.730  0.000  1.360          
    O2       Core        8      16.00   0.870733   0.730  0.000  1.360          
    O2       Shell       8       0.00  -2.870733   0.730  0.000  1.360          
    O3       Core        8      16.00   1.330431   0.730  0.000  1.360          
    O3       Shell       8       0.00  -3.330431   0.730  0.000  1.360          
    F        Core        9      19.00   0.560000   0.710  0.000  1.300          
    F        Shell       9       0.00  -1.560000   0.710  0.000  1.300          
    Ge       Core       32      72.61   4.000000   1.170  0.000  1.750          
--------------------------------------------------------------------------------


  Lattice summation method               =    Ewald          (3-D)
                                         =    Parry          (2-D)
                                         =    Saunders et al (1-D)
  Accuracy factor for lattice sums       =   12.000


  Time limit = Infinity

  Maximum range for interatomic potentials =        16.000000 Angstroms

  Taper potentials to zero over   1.0000 Angstroms using polynomial

  General interatomic potentials :

--------------------------------------------------------------------------------
Atom  Types   Potential         A         B         C         D     Cutoffs(Ang)
  1     2                                                            Min    Max 
--------------------------------------------------------------------------------
Si   c O1   s Buckingham    0.132E+04 0.318      10.1      0.00     0.000 16.000
Si   c O2   s Buckingham    0.132E+04 0.318      10.1      0.00     0.000 16.000
Si   c O3   s Buckingham    0.132E+04 0.318      10.1      0.00     0.000 16.000
Ge   c O1   s Buckingham    0.150E+04 0.326      16.8      0.00     0.000 16.000
Ge   c O2   s Buckingham    0.150E+04 0.326      16.8      0.00     0.000 16.000
Ge   c O3   s Buckingham    0.150E+04 0.326      16.8      0.00     0.000 16.000
O1   s O1   s Buckingham    0.228E+05 0.149      10.9      0.00     0.000 16.000
O1   s O2   s Buckingham    0.228E+05 0.149      10.9      0.00     0.000 16.000
O1   s O3   s Buckingham    0.228E+05 0.149      10.9      0.00     0.000 16.000
O2   s O2   s Buckingham    0.228E+05 0.149      10.9      0.00     0.000 16.000
O2   s O3   s Buckingham    0.228E+05 0.149      10.9      0.00     0.000 16.000
O3   s O3   s Buckingham    0.228E+05 0.149      10.9      0.00     0.000 16.000
Si   c F    s Buckingham     977.     0.282      0.00      0.00     0.000 16.000
Ge   c F    s Buckingham     681.     0.320      0.00      0.00     0.000 16.000
F    s F    s Buckingham     540.     0.262      0.00      0.00     0.000 16.000
O1   s F    s Buckingham    0.168E+04 0.268      0.00      0.00     0.000 16.000
O2   s F    s Buckingham    0.168E+04 0.268      0.00      0.00     0.000 16.000
O3   s F    s Buckingham    0.168E+04 0.268      0.00      0.00     0.000 16.000
O2   c O2   s Spring (c-s)   76.0      0.00      0.00      0.00     0.000  0.800
O3   c O3   s Spring (c-s)   128.      0.00      0.00      0.00     0.000  0.800
O1   c O1   s Spring (c-s)   180.      0.00      0.00      0.00     0.000  0.800
F    c F    s Spring (c-s)   33.5      0.00      0.00      0.00     0.000  0.800
--------------------------------------------------------------------------------

  General Three-body potentials :

  Harmonic form:

--------------------------------------------------------------------------------
Atom    Atom    Atom           Force Constants            Theta     Cutoffs  
  1       2       3     (eVrad**-2/eVrad**-3/eVrad**-4)   (deg)  1-2  1-3  2-3
--------------------------------------------------------------------------------
Si    c O1    s O1    s  1.261        0.0000    0.0000   109.470 0.00 0.00 0.00
                                                                 1.90 1.90 3.50
Si    c O1    s O2    s  1.261        0.0000    0.0000   109.470 0.00 0.00 0.00
                                                                 1.90 1.90 3.50
Si    c O2    s O2    s  1.261        0.0000    0.0000   109.470 0.00 0.00 0.00
                                                                 1.90 1.90 3.50
--------------------------------------------------------------------------------

********************************************************************************
*  Output for configuration   1                                                *
********************************************************************************


  Components of energy : 

--------------------------------------------------------------------------------
  Interatomic potentials     =        2063.90224259 eV
  Three-body potentials      =           0.46694020 eV
  Monopole - monopole (real) =       -6614.65440901 eV
  Monopole - monopole (recip)=       -3169.78128733 eV
  Monopole - monopole (total)=       -9784.43569634 eV
  Neutralising energy        =          -6.45685861 eV
--------------------------------------------------------------------------------
  Total lattice energy       =       -7726.52337216 eV
--------------------------------------------------------------------------------
  Total lattice energy       =         -745491.3947 kJ/(mole unit cells)
--------------------------------------------------------------------------------


  Number of variables =      939

  Maximum number of calculations  =          1000
  Maximum Hessian update interval =            10
  Maximum step size               =   1.000000000
  Maximum parameter tolerance     =   0.000010000
  Maximum function  tolerance     =   0.000010000
  Maximum gradient  tolerance     =   0.001000000
  Maximum gradient  component     =   0.010000000

  Symmetry not applied to optimisation

  Cell parameters to be optimised using strains

  Newton-Raphson optimiser to be used

  BFGS hessian update to be used

  Dumpfile to be written after every cycle

  Start of bulk optimisation :

  Cycle:      0 Energy:     -7726.523372  Gnorm:      0.006261  CPU:    1.059
  ** Hessian calculated **
  Cycle:      1 Energy:     -7726.591997  Gnorm:      0.005445  CPU:    2.962
  Cycle:      2 Energy:     -7726.592765  Gnorm:      0.000873  CPU:    4.342
  Cycle:      3 Energy:     -7726.592904  Gnorm:      0.000345  CPU:    5.721
  Cycle:      4 Energy:     -7726.592910  Gnorm:      0.000099  CPU:    7.100
  Cycle:      5 Energy:     -7726.592910  Gnorm:      0.000023  CPU:    8.480


  **** Optimisation achieved ****


  Final energy =   -7726.59291023 eV
  Final Gnorm  =       0.00000395

  Components of energy : 

--------------------------------------------------------------------------------
  Interatomic potentials     =        2064.23836322 eV
  Three-body potentials      =           0.47770613 eV
  Monopole - monopole (real) =       -6614.42718034 eV
  Monopole - monopole (recip)=       -3170.42363133 eV
  Monopole - monopole (total)=       -9784.85081167 eV
  Neutralising energy        =          -6.45816791 eV
--------------------------------------------------------------------------------
  Total lattice energy       =       -7726.59291023 eV
--------------------------------------------------------------------------------
  Total lattice energy       =         -745498.1040 kJ/(mole unit cells)
--------------------------------------------------------------------------------

  Final fractional coordinates of atoms :

--------------------------------------------------------------------------------
   No.  Atomic        x           y          z          Radius
        Label       (Frac)      (Frac)     (Frac)       (Angs) 
--------------------------------------------------------------------------------
     1  Si    c     0.699600    0.375700    0.033890    0.000000
     2  Si    c     0.629285    0.313617    0.367642    0.000000
     3  Si    c     0.689115    0.293787    0.694293    0.000000
     4  Si    c     0.308662    0.605150    0.531897    0.000000
     5  Si    c     0.377159    0.661280    0.866150    0.000000
     6  Si    c     0.332070    0.700421    0.199466    0.000000
     7  Si    c     0.388148    0.695877    0.300399    0.000000
     8  Si    c     0.324961    0.615672    0.968872    0.000000
     9  Si    c     0.312257    0.654916    0.632714    0.000000
    10  Si    c     0.619452    0.287467    0.795190    0.000000
    11  Si    c     0.684396    0.367519    0.468161    0.000000
    12  Si    c     0.710745    0.323342    0.135835    0.000000
    13  Ge    c     0.528929    0.423262    0.965712    0.000000
    14  Si    c     0.590367    0.104996    0.302700    0.000000
    15  Si    c     0.909282    0.464068    0.633525    0.000000
    16  Si    c     0.480507    0.570081    0.467158    0.000000
    17  Si    c     0.416813    0.869412    0.797216    0.000000
    18  Si    c     0.121087    0.528500    0.134345    0.000000
    19  Si    c     0.426563    0.520674    0.365436    0.000000
    20  Si    c     0.113408    0.578462    0.032763    0.000000
    21  Si    c     0.478115    0.865578    0.694808    0.000000
    22  Si    c     0.587315    0.448006    0.866286    0.000000
    23  Si    c     0.898899    0.407537    0.532311    0.000000
    24  Si    c     0.538109    0.112036    0.200801    0.000000
    25  Si    c     0.301017    0.379073    0.853804    0.000000
    26  Si    c     0.608455    0.902021    0.186278    0.000000
    27  Si    c     0.109168    0.686897    0.518510    0.000000
    28  Si    c     0.706640    0.591858    0.352346    0.000000
    29  Ge    c     0.420460    0.082520    0.687310    0.000000
    30  Si    c     0.904158    0.300890    0.019983    0.000000
    31  Si    c     0.406514    0.288505    0.482859    0.000000
    32  Si    c     0.912923    0.600696    0.149309    0.000000
    33  Si    c     0.698365    0.083183    0.813553    0.000000
    34  Si    c     0.609224    0.697727    0.986803    0.000000
    35  Si    c     0.109776    0.380717    0.647499    0.000000
    36  Si    c     0.311335    0.897248    0.316198    0.000000
    37  Si    c     0.250097    0.326771    0.956654    0.000000
    38  Si    c     0.667840    0.903555    0.286885    0.000000
    39  Si    c     0.111045    0.740786    0.619417    0.000000
    40  Si    c     0.758959    0.649529    0.453098    0.000000
    41  Si    c     0.335005    0.072669    0.782399    0.000000
    42  Si    c     0.920064    0.251211    0.120446    0.000000
    43  Si    c     0.348841    0.241552    0.381624    0.000000
    44  Si    c     0.912261    0.655320    0.048159    0.000000
    45  Si    c     0.757508    0.074711    0.712729    0.000000
    46  Si    c     0.661152    0.728651    0.883234    0.000000
    47  Si    c     0.098912    0.326046    0.546750    0.000000
    48  Si    c     0.261261    0.910455    0.215296    0.000000
    49  Si    c     0.967849    0.118174    0.971632    0.000000
    50  Si    c     0.886697    0.840472    0.302371    0.000000
    51  Si    c     0.168999    0.020415    0.635401    0.000000
    52  Si    c     0.038346    0.867255    0.467928    0.000000
    53  Si    c     0.123412    0.134556    0.802149    0.000000
    54  Si    c     0.856493    0.970285    0.137197    0.000000
    55  Si    c     0.131231    0.963038    0.367099    0.000000
    56  Si    c     0.852918    0.877881    0.036681    0.000000
    57  Si    c     0.037334    0.132047    0.699182    0.000000
    58  Ge    c     0.876881    0.013188    0.868533    0.000000
    59  Si    c     0.159705    0.107715    0.533574    0.000000
    60  Si    c     0.980814    0.846560    0.201466    0.000000
    61  O2    c     0.935849    0.003412    0.006671    0.000000
    62  O2    c     0.007692    0.920893    0.335145    0.000000
    63  O2    c     0.077926    0.049665    0.668149    0.000000
    64  O2    c     0.079971    0.986601    0.501065    0.000000
    65  O3    c     0.006097    0.053315    0.834779    0.000000
    66  O2    c     0.936154    0.930057    0.171266    0.000000
    67  O2    c     0.350042    0.570930    0.332594    0.000000
    68  O2    c     0.436549    0.735494    0.665927    0.000000
    69  O2    c     0.237798    0.653542    0.999464    0.000000
    70  O2    c     0.658173    0.408794    0.827908    0.000000
    71  O2    c     0.589285    0.239572    0.168912    0.000000
    72  O2    c     0.771666    0.330311    0.500946    0.000000
    73  O3    c     0.579559    0.338088    0.002617    0.000000
    74  O2    c     0.787303    0.420840    0.666587    0.000000
    75  O2    c     0.667313    0.228619    0.335393    0.000000
    76  O2    c     0.430459    0.645538    0.499193    0.000000
    77  O2    c     0.248363    0.579079    0.166363    0.000000
    78  O2    c     0.343563    0.745688    0.830944    0.000000
    79  O2    c     0.119453    0.211308    0.976456    0.000000
    80  O2    c     0.794623    0.903006    0.306914    0.000000
    81  O2    c     0.113859    0.865799    0.640619    0.000000
    82  O2    c     0.884727    0.775782    0.472777    0.000000
    83  O2    c     0.217541    0.074650    0.808656    0.000000
    84  O2    c     0.920991    0.124498    0.140663    0.000000
    85  O2    c     0.222254    0.116822    0.361498    0.000000
    86  O2    c     0.908955    0.781499    0.028236    0.000000
    87  O2    c     0.883190    0.073940    0.693877    0.000000
    88  O3    c     0.779647    0.850638    0.860412    0.000000
    89  O2    c     0.097289    0.200019    0.526280    0.000000
    90  O2    c     0.134278    0.911228    0.195439    0.000000
    91  O2    c     0.941864    0.853197    0.252490    0.000000
    92  O2    c     0.143759    0.055323    0.584431    0.000000
    93  O3    c     0.928956    0.054551    0.922726    0.000000
    94  O2    c     0.070180    0.121654    0.751442    0.000000
    95  O2    c     0.868165    0.922346    0.088108    0.000000
    96  O2    c     0.079335    0.923159    0.417679    0.000000
    97  O2    c     0.897015    0.200391    0.981284    0.000000
    98  O2    c     0.805143    0.688993    0.314351    0.000000
    99  O3    c     0.315936    0.093933    0.645768    0.000000
   100  O2    c     0.108479    0.784605    0.479804    0.000000
   101  O2    c     0.201965    0.285739    0.815378    0.000000
   102  O2    c     0.705399    0.903140    0.148001    0.000000
   103  O2    c     0.213264    0.893574    0.354639    0.000000
   104  O2    c     0.702869    0.809750    0.021995    0.000000
   105  O2    c     0.109484    0.282837    0.686378    0.000000
   106  O3    c     0.789716    0.088769    0.854253    0.000000
   107  O2    c     0.310768    0.189619    0.521103    0.000000
   108  O2    c     0.912462    0.697115    0.187535    0.000000
   109  O2    c     0.332115    0.641261    0.249779    0.000000
   110  O2    c     0.367969    0.657916    0.582355    0.000000
   111  O2    c     0.324327    0.662851    0.916420    0.000000
   112  O2    c     0.676172    0.341496    0.745223    0.000000
   113  O2    c     0.652996    0.324604    0.085828    0.000000
   114  O2    c     0.685795    0.311092    0.418154    0.000000
   115  O3    c     0.363353    0.308628    0.976081    0.000000
   116  O2    c     0.677682    0.035258    0.305545    0.000000
   117  O2    c     0.978307    0.619084    0.637080    0.000000
   118  O2    c     0.635859    0.658412    0.470921    0.000000
   119  O2    c     0.332055    0.940476    0.799896    0.000000
   120  O2    c     0.053188    0.372429    0.138476    0.000000
   121  O2    c     0.339258    0.364895    0.362821    0.000000
   122  O2    c     0.045356    0.667432    0.029295    0.000000
   123  O2    c     0.634974    0.942121    0.695982    0.000000
   124  O2    c     0.669591    0.605503    0.866013    0.000000
   125  O2    c     0.967102    0.319165    0.528814    0.000000
   126  O2    c     0.382216    0.043556    0.197193    0.000000
   127  O2    c     0.770949    0.301086    0.013122    0.000000
   128  O2    c     0.705093    0.456894    0.345127    0.000000
   129  O3    c     0.553860    0.230895    0.669452    0.000000
   130  O2    c     0.240278    0.682432    0.510296    0.000000
   131  O2    c     0.305226    0.516011    0.847203    0.000000
   132  O2    c     0.475059    0.769677    0.177606    0.000000
   133  O2    c     0.312709    0.763088    0.322937    0.000000
   134  O2    c     0.470516    0.693419    0.988352    0.000000
   135  O2    c     0.244912    0.511673    0.655225    0.000000
   136  O2    c     0.690891    0.213380    0.816292    0.000000
   137  O2    c     0.542211    0.290807    0.490522    0.000000
   138  O2    c     0.781650    0.466390    0.157788    0.000000
   139  O2    c     0.787762    0.531748    0.028376    0.000000
   140  O2    c     0.473786    0.240466    0.362320    0.000000
   141  O2    c     0.752807    0.199608    0.694519    0.000000
   142  O2    c     0.225040    0.449959    0.527134    0.000000
   143  O2    c     0.530409    0.723218    0.865481    0.000000
   144  O2    c     0.259365    0.784577    0.195130    0.000000
   145  O2    c     0.543495    0.776717    0.305919    0.000000
   146  O2    c     0.262131    0.461986    0.972870    0.000000
   147  O2    c     0.233633    0.732277    0.638711    0.000000
   148  O2    c     0.465415    0.200667    0.798811    0.000000
   149  O2    c     0.759185    0.523260    0.473131    0.000000
   150  O2    c     0.794572    0.250292    0.140186    0.000000
   151  O2    c     0.235302    0.312825    0.901396    0.000000
   152  O2    c     0.684063    0.903457    0.232510    0.000000
   153  O2    c     0.110756    0.759010    0.564866    0.000000
   154  O2    c     0.776684    0.666190    0.398701    0.000000
   155  O3    c     0.308601    0.073256    0.729863    0.000000
   156  O2    c     0.915475    0.231113    0.066088    0.000000
   157  O2    c     0.332975    0.221137    0.436008    0.000000
   158  O2    c     0.913040    0.673297    0.102494    0.000000
   159  O2    c     0.767480    0.075700    0.767737    0.000000
   160  O2    c     0.678728    0.752110    0.937379    0.000000
   161  O2    c     0.102024    0.305881    0.601177    0.000000
   162  O2    c     0.242297    0.906026    0.269650    0.000000
   163  O3    c     0.601255    0.566428    0.000342    0.000000
   164  O2    c     0.450175    0.020840    0.325675    0.000000
   165  O2    c     0.987150    0.398850    0.657132    0.000000
   166  O2    c     0.422413    0.428989    0.490867    0.000000
   167  O2    c     0.558337    0.958464    0.818581    0.000000
   168  O2    c     0.039684    0.587815    0.157690    0.000000
   169  O2    c     0.567259    0.577818    0.342732    0.000000
   170  O2    c     0.030438    0.438201    0.009291    0.000000
   171  O3    c     0.419870    0.942180    0.668262    0.000000
   172  O2    c     0.440904    0.395218    0.846786    0.000000
   173  O2    c     0.982703    0.549472    0.509922    0.000000
   174  O2    c     0.595006    0.028459    0.177544    0.000000
   175  O2    c     0.589729    0.161216    0.252056    0.000000
   176  O2    c     0.850132    0.409059    0.583481    0.000000
   177  O3    c     0.595541    0.394024    0.914738    0.000000
   178  O2    c     0.421984    0.820859    0.746707    0.000000
   179  O2    c     0.172802    0.580316    0.083057    0.000000
   180  O2    c     0.427136    0.572620    0.416251    0.000000
   181  F     c     0.461196    0.900334    0.250864    0.000000
   182  F     c     0.109667    0.532543    0.583783    0.000000
   183  F     c     0.474396    0.513228    0.927375    0.000000
   184  F     c     0.523247    0.080779    0.736744    0.000000
   185  F     c     0.917849    0.453476    0.084074    0.000000
   186  F     c     0.558006    0.441723    0.417396    0.000000
   187  O2    s     0.929959    0.002053    0.006125    0.000000
   188  O2    s     0.008011    0.916643    0.335060    0.000000
   189  O2    s     0.082581    0.056002    0.668325    0.000000
   190  O2    s     0.084127    0.986594    0.500935    0.000000
   191  O3    s     0.007277    0.058500    0.834260    0.000000
   192  O2    s     0.932203    0.925189    0.170821    0.000000
   193  O2    s     0.361833    0.578574    0.332661    0.000000
   194  O2    s     0.428535    0.740690    0.665576    0.000000
   195  O2    s     0.234856    0.642199    0.999467    0.000000
   196  O2    s     0.646909    0.399959    0.828335    0.000000
   197  O2    s     0.596389    0.234993    0.168814    0.000000
   198  O2    s     0.775933    0.342172    0.500836    0.000000
   199  O3    s     0.589177    0.348216    0.003451    0.000000
   200  O2    s     0.789293    0.411576    0.666178    0.000000
   201  O2    s     0.655449    0.224605    0.335347    0.000000
   202  O2    s     0.422905    0.633537    0.499314    0.000000
   203  O2    s     0.243969    0.586374    0.166502    0.000000
   204  O2    s     0.354550    0.749338    0.831238    0.000000
   205  O2    s     0.116965    0.213730    0.973734    0.000000
   206  O2    s     0.791273    0.896401    0.304382    0.000000
   207  O2    s     0.119059    0.867881    0.637853    0.000000
   208  O2    s     0.887905    0.772389    0.470265    0.000000
   209  O2    s     0.219629    0.080816    0.805319    0.000000
   210  O2    s     0.914002    0.121123    0.138226    0.000000
   211  O2    s     0.225643    0.113400    0.364128    0.000000
   212  O2    s     0.903342    0.778851    0.031123    0.000000
   213  O2    s     0.885654    0.079992    0.696410    0.000000
   214  O3    s     0.775755    0.851787    0.863363    0.000000
   215  O2    s     0.104010    0.203485    0.529152    0.000000
   216  O2    s     0.131102    0.904303    0.198094    0.000000
   217  O2    s     0.940002    0.850994    0.252367    0.000000
   218  O2    s     0.148225    0.057593    0.584019    0.000000
   219  O3    s     0.928278    0.057474    0.922907    0.000000
   220  O2    s     0.072563    0.124269    0.751394    0.000000
   221  O2    s     0.865077    0.922668    0.087737    0.000000
   222  O2    s     0.080561    0.921344    0.417639    0.000000
   223  O2    s     0.905258    0.201469    0.984014    0.000000
   224  O2    s     0.803721    0.695137    0.316966    0.000000
   225  O3    s     0.306514    0.084923    0.647397    0.000000
   226  O2    s     0.101061    0.783337    0.482530    0.000000
   227  O2    s     0.204148    0.279891    0.818014    0.000000
   228  O2    s     0.711604    0.910215    0.150773    0.000000
   229  O2    s     0.214570    0.901304    0.352044    0.000000
   230  O2    s     0.708945    0.805519    0.019951    0.000000
   231  O2    s     0.101772    0.276695    0.683759    0.000000
   232  O3    s     0.787414    0.082116    0.851241    0.000000
   233  O2    s     0.304883    0.191217    0.518487    0.000000
   234  O2    s     0.919830    0.703178    0.185085    0.000000
   235  O2    s     0.337820    0.652851    0.249813    0.000000
   236  O2    s     0.356150    0.652220    0.582432    0.000000
   237  O2    s     0.329863    0.658056    0.916367    0.000000
   238  O2    s     0.671350    0.331110    0.745628    0.000000
   239  O2    s     0.663705    0.329552    0.085936    0.000000
   240  O2    s     0.679857    0.317121    0.418093    0.000000
   241  O3    s     0.362208    0.318294    0.973246    0.000000
   242  O2    s     0.667655    0.028638    0.303286    0.000000
   243  O2    s     0.984839    0.615368    0.634853    0.000000
   244  O2    s     0.632772    0.648428    0.468666    0.000000
   245  O2    s     0.341374    0.946003    0.797862    0.000000
   246  O2    s     0.046338    0.375807    0.136176    0.000000
   247  O2    s     0.349222    0.367996    0.365063    0.000000
   248  O2    s     0.038862    0.657107    0.031565    0.000000
   249  O2    s     0.632190    0.948455    0.697651    0.000000
   250  O2    s     0.660555    0.603155    0.867913    0.000000
   251  O2    s     0.973984    0.329007    0.531077    0.000000
   252  O2    s     0.385566    0.036748    0.199442    0.000000
   253  O2    s     0.778565    0.308489    0.015979    0.000000
   254  O2    s     0.697482    0.456423    0.348228    0.000000
   255  O3    s     0.558753    0.227123    0.673344    0.000000
   256  O2    s     0.233441    0.674899    0.513436    0.000000
   257  O2    s     0.312400    0.517174    0.849914    0.000000
   258  O2    s     0.474412    0.776469    0.180782    0.000000
   259  O2    s     0.320322    0.770304    0.319876    0.000000
   260  O2    s     0.469039    0.685712    0.986122    0.000000
   261  O2    s     0.237610    0.512631    0.652058    0.000000
   262  O2    s     0.684190    0.206884    0.813752    0.000000
   263  O2    s     0.542635    0.298424    0.487400    0.000000
   264  O2    s     0.788181    0.465825    0.154618    0.000000
   265  O2    s     0.792941    0.529814    0.031086    0.000000
   266  O2    s     0.476383    0.248267    0.364931    0.000000
   267  O2    s     0.746881    0.195012    0.696502    0.000000
   268  O2    s     0.220081    0.452863    0.529733    0.000000
   269  O2    s     0.527562    0.716978    0.867445    0.000000
   270  O2    s     0.267288    0.789492    0.197741    0.000000
   271  O2    s     0.540788    0.782120    0.303316    0.000000
   272  O2    s     0.267923    0.464867    0.970769    0.000000
   273  O2    s     0.228550    0.724939    0.636052    0.000000
   274  O2    s     0.468633    0.196813    0.796740    0.000000
   275  O2    s     0.751332    0.520833    0.470477    0.000000
   276  O2    s     0.799510    0.258107    0.137622    0.000000
   277  O2    s     0.243771    0.321269    0.901768    0.000000
   278  O2    s     0.674404    0.903321    0.233441    0.000000
   279  O2    s     0.110620    0.749515    0.565750    0.000000
   280  O2    s     0.767444    0.656623    0.399627    0.000000
   281  O3    s     0.318610    0.073723    0.732765    0.000000
   282  O2    s     0.914826    0.240495    0.067014    0.000000
   283  O2    s     0.342370    0.230362    0.435145    0.000000
   284  O2    s     0.912962    0.663733    0.101667    0.000000
   285  O2    s     0.759316    0.076332    0.766856    0.000000
   286  O2    s     0.670221    0.744424    0.936394    0.000000
   287  O2    s     0.102511    0.315901    0.600367    0.000000
   288  O2    s     0.251579    0.905586    0.268777    0.000000
   289  O3    s     0.597185    0.571447    0.996603    0.000000
   290  O2    s     0.449820    0.016116    0.322256    0.000000
   291  O2    s     0.992336    0.403799    0.653645    0.000000
   292  O2    s     0.426912    0.428533    0.487541    0.000000
   293  O2    s     0.558434    0.962495    0.815789    0.000000
   294  O2    s     0.034381    0.582846    0.154346    0.000000
   295  O2    s     0.567594    0.573198    0.346135    0.000000
   296  O2    s     0.025699    0.438340    0.012821    0.000000
   297  O3    s     0.426148    0.944700    0.672385    0.000000
   298  O2    s     0.439899    0.398753    0.849504    0.000000
   299  O2    s     0.987650    0.549323    0.513204    0.000000
   300  O2    s     0.590320    0.023409    0.180926    0.000000
   301  O2    s     0.584412    0.150289    0.251958    0.000000
   302  O2    s     0.861337    0.414602    0.583388    0.000000
   303  O3    s     0.590506    0.401613    0.912765    0.000000
   304  O2    s     0.426798    0.830344    0.747121    0.000000
   305  O2    s     0.161425    0.574849    0.083071    0.000000
   306  O2    s     0.432626    0.566953    0.416251    0.000000
   307  F     s     0.461097    0.900000    0.250849    0.000000
   308  F     s     0.109947    0.532475    0.583912    0.000000
   309  F     s     0.478520    0.507015    0.929997    0.000000
   310  F     s     0.516476    0.080954    0.733699    0.000000
   311  F     s     0.918525    0.453663    0.084039    0.000000
   312  F     s     0.558343    0.441578    0.417407    0.000000
--------------------------------------------------------------------------------

  Final Cartesian lattice vectors (Angstroms) :

       11.964954    0.007785   -0.011496
       -5.884558   10.391564    0.016967
       -0.392527    0.199552   29.426232


  Final cell parameters and derivatives :

--------------------------------------------------------------------------------
       a           11.964962 Angstrom     dE/de1(xx)    -0.000480 eV/strain
       b           11.942065 Angstrom     dE/de2(yy)    -0.000561 eV/strain
       c           29.429526 Angstrom     dE/de3(zz)    -0.000717 eV/strain
       alpha       89.203949 Degrees      dE/de4(yz)    -0.000003 eV/strain
       beta        90.819022 Degrees      dE/de5(xz)     0.000011 eV/strain
       gamma      119.484865 Degrees      dE/de6(xy)     0.000041 eV/strain
--------------------------------------------------------------------------------

  Primitive cell volume =          3659.972628 Angs**3

  Density of cell =      1.748126 g/cm**3

  Non-primitive cell volume =          3659.972628 Angs**3


  Final internal derivatives :

--------------------------------------------------------------------------------
   No.  Atomic          a             b             c           Radius
        Label          (eV)          (eV)          (eV)        (eV/Angs)
--------------------------------------------------------------------------------
      1 Si    c       0.000000      0.000000      0.000000      0.000000
      2 Si    c      -0.000015      0.000013     -0.000087      0.000000
      3 Si    c       0.000057      0.000129     -0.000182      0.000000
      4 Si    c       0.000009      0.000014     -0.000008      0.000000
      5 Si    c      -0.000029      0.000024      0.000146      0.000000
      6 Si    c      -0.000016      0.000007     -0.000105      0.000000
      7 Si    c       0.000006     -0.000014      0.000080      0.000000
      8 Si    c      -0.000025      0.000023     -0.000168      0.000000
      9 Si    c      -0.000008      0.000057      0.000316      0.000000
     10 Si    c       0.000007      0.000032      0.000007      0.000000
     11 Si    c       0.000003     -0.000004      0.000034      0.000000
     12 Si    c       0.000023     -0.000035     -0.000175      0.000000
     13 Ge    c       0.000112     -0.000107     -0.000336      0.000000
     14 Si    c      -0.000001      0.000009     -0.000089      0.000000
     15 Si    c      -0.000006     -0.000006      0.000076      0.000000
     16 Si    c       0.000011     -0.000002      0.000087      0.000000
     17 Si    c      -0.000023      0.000023     -0.000070      0.000000
     18 Si    c      -0.000023      0.000053     -0.000003      0.000000
     19 Si    c       0.000019     -0.000022     -0.000092      0.000000
     20 Si    c       0.000041      0.000006      0.000156      0.000000
     21 Si    c      -0.000038     -0.000015     -0.000160      0.000000
     22 Si    c       0.000005     -0.000035      0.000518      0.000000
     23 Si    c      -0.000025     -0.000011      0.000096      0.000000
     24 Si    c      -0.000002      0.000010      0.000172      0.000000
     25 Si    c      -0.000009     -0.000013      0.000268      0.000000
     26 Si    c      -0.000032     -0.000014      0.000052      0.000000
     27 Si    c       0.000014     -0.000006      0.000029      0.000000
     28 Si    c      -0.000009     -0.000021     -0.000009      0.000000
     29 Ge    c      -0.000124     -0.000008     -0.000321      0.000000
     30 Si    c      -0.000074     -0.000033      0.000223      0.000000
     31 Si    c       0.000011      0.000005      0.000038      0.000000
     32 Si    c      -0.000002     -0.000036     -0.000077      0.000000
     33 Si    c      -0.000046      0.000024     -0.000059      0.000000
     34 Si    c      -0.000018     -0.000010     -0.000213      0.000000
     35 Si    c      -0.000024      0.000040      0.000004      0.000000
     36 Si    c       0.000036     -0.000029     -0.000083      0.000000
     37 Si    c      -0.000048      0.000022     -0.000184      0.000000
     38 Si    c      -0.000027      0.000014     -0.000010      0.000000
     39 Si    c       0.000011     -0.000035      0.000015      0.000000
     40 Si    c      -0.000004     -0.000010      0.000035      0.000000
     41 Si    c       0.000032     -0.000024     -0.000200      0.000000
     42 Si    c      -0.000043      0.000011     -0.000150      0.000000
     43 Si    c       0.000013      0.000011     -0.000044      0.000000
     44 Si    c       0.000005      0.000037      0.000038      0.000000
     45 Si    c      -0.000024      0.000009     -0.000047      0.000000
     46 Si    c      -0.000015      0.000006      0.000167      0.000000
     47 Si    c      -0.000006      0.000005     -0.000008      0.000000
     48 Si    c       0.000032     -0.000016      0.000023      0.000000
     49 Si    c      -0.000052     -0.000302     -0.000796      0.000000
     50 Si    c       0.000001      0.000007     -0.000073      0.000000
     51 Si    c       0.000069     -0.000033      0.000074      0.000000
     52 Si    c      -0.000007      0.000004      0.000012      0.000000
     53 Si    c       0.000131     -0.000000     -0.000117      0.000000
     54 Si    c       0.000117     -0.000034     -0.000595      0.000000
     55 Si    c       0.000003      0.000010     -0.000064      0.000000
     56 Si    c       0.000094      0.000138      0.000131      0.000000
     57 Si    c      -0.000034      0.000068      0.000035      0.000000
     58 Ge    c      -0.000076     -0.000014      0.000135      0.000000
     59 Si    c      -0.000009      0.000019     -0.000089      0.000000
     60 Si    c      -0.000043      0.000038      0.000180      0.000000
     61 O2    c      -0.000090     -0.000077      0.000245      0.000000
     62 O2    c       0.000004      0.000002      0.000018      0.000000
     63 O2    c       0.000074     -0.000036     -0.000163      0.000000
     64 O2    c      -0.000001      0.000000      0.000004      0.000000
     65 O3    c       0.000029     -0.000112      0.000016      0.000000
     66 O2    c      -0.000016     -0.000026     -0.000030      0.000000
     67 O2    c      -0.000008      0.000045     -0.000046      0.000000
     68 O2    c      -0.000121      0.000054     -0.000109      0.000000
     69 O2    c       0.000065     -0.000045     -0.000093      0.000000
     70 O2    c      -0.000006     -0.000041     -0.000067      0.000000
     71 O2    c       0.000015     -0.000003     -0.000025      0.000000
     72 O2    c       0.000002      0.000014      0.000016      0.000000
     73 O3    c       0.000077     -0.000018      0.000378      0.000000
     74 O2    c      -0.000042     -0.000148      0.000226      0.000000
     75 O2    c      -0.000017      0.000014      0.000028      0.000000
     76 O2    c      -0.000011     -0.000005      0.000009      0.000000
     77 O2    c       0.000003      0.000046      0.000110      0.000000
     78 O2    c       0.000035     -0.000045      0.000037      0.000000
     79 O2    c       0.000076      0.000076     -0.000029      0.000000
     80 O2    c       0.000023     -0.000018      0.000002      0.000000
     81 O2    c      -0.000024      0.000105     -0.000056      0.000000
     82 O2    c       0.000000      0.000002      0.000006      0.000000
     83 O2    c       0.000005     -0.000007     -0.000056      0.000000
     84 O2    c       0.000007     -0.000130     -0.000042      0.000000
     85 O2    c      -0.000004     -0.000002     -0.000001      0.000000
     86 O2    c      -0.000039      0.000040      0.000013      0.000000
     87 O2    c       0.000084     -0.000014     -0.000015      0.000000
     88 O3    c      -0.000010      0.000002     -0.000032      0.000000
     89 O2    c       0.000005     -0.000007      0.000004      0.000000
     90 O2    c       0.000015     -0.000007      0.000013      0.000000
     91 O2    c       0.000021     -0.000015     -0.000123      0.000000
     92 O2    c       0.000005     -0.000020      0.000203      0.000000
     93 O3    c      -0.000026      0.000592      0.002441      0.000000
     94 O2    c      -0.000081      0.000013     -0.000386      0.000000
     95 O2    c      -0.000135      0.000121      0.000462      0.000000
     96 O2    c      -0.000012     -0.000004      0.000107      0.000000
     97 O2    c       0.000072     -0.000051     -0.000034      0.000000
     98 O2    c       0.000004      0.000017     -0.000014      0.000000
     99 O3    c      -0.000131     -0.000022     -0.000019      0.000000
    100 O2    c       0.000001     -0.000006      0.000004      0.000000
    101 O2    c      -0.000004      0.000043      0.000021      0.000000
    102 O2    c      -0.000005     -0.000004      0.000043      0.000000
    103 O2    c      -0.000003      0.000005      0.000022      0.000000
    104 O2    c      -0.000055      0.000011     -0.000019      0.000000
    105 O2    c       0.000001     -0.000086      0.000061      0.000000
    106 O3    c       0.000010     -0.000010      0.000078      0.000000
    107 O2    c      -0.000001     -0.000000      0.000002      0.000000
    108 O2    c      -0.000001      0.000031      0.000025      0.000000
    109 O2    c       0.000000      0.000014      0.000003      0.000000
    110 O2    c      -0.000004     -0.000007     -0.000099      0.000000
    111 O2    c       0.000053     -0.000056      0.000025      0.000000
    112 O2    c       0.000013     -0.000024     -0.000021      0.000000
    113 O2    c       0.000068     -0.000012     -0.000069      0.000000
    114 O2    c       0.000009     -0.000005      0.000054      0.000000
    115 O3    c      -0.000027     -0.000014     -0.000001      0.000000
    116 O2    c      -0.000003     -0.000005     -0.000012      0.000000
    117 O2    c       0.000007     -0.000015     -0.000012      0.000000
    118 O2    c       0.000002     -0.000006     -0.000002      0.000000
    119 O2    c       0.000008      0.000013     -0.000038      0.000000
    120 O2    c       0.000004     -0.000021      0.000006      0.000000
    121 O2    c       0.000007      0.000004      0.000008      0.000000
    122 O2    c      -0.000017      0.000010      0.000011      0.000000
    123 O2    c      -0.000038      0.000003     -0.000029      0.000000
    124 O2    c      -0.000009      0.000023      0.000036      0.000000
    125 O2    c       0.000019     -0.000006      0.000032      0.000000
    126 O2    c      -0.000011     -0.000011      0.000027      0.000000
    127 O2    c       0.000136     -0.000079      0.000118      0.000000
    128 O2    c      -0.000008      0.000005      0.000021      0.000000
    129 O3    c       0.000006     -0.000015     -0.000020      0.000000
    130 O2    c      -0.000028      0.000009      0.000018      0.000000
    131 O2    c       0.000032     -0.000069     -0.000030      0.000000
    132 O2    c       0.000025      0.000034      0.000029      0.000000
    133 O2    c      -0.000021      0.000058     -0.000012      0.000000
    134 O2    c       0.000113     -0.000046      0.000013      0.000000
    135 O2    c      -0.000023      0.000021     -0.000035      0.000000
    136 O2    c       0.000014     -0.000044     -0.000014      0.000000
    137 O2    c      -0.000005      0.000004     -0.000007      0.000000
    138 O2    c       0.000045      0.000055     -0.000027      0.000000
    139 O2    c      -0.000008      0.000030     -0.000065      0.000000
    140 O2    c      -0.000000      0.000010      0.000026      0.000000
    141 O2    c       0.000029     -0.000050      0.000066      0.000000
    142 O2    c      -0.000011     -0.000026      0.000034      0.000000
    143 O2    c       0.000015     -0.000010      0.000025      0.000000
    144 O2    c       0.000036     -0.000014      0.000039      0.000000
    145 O2    c       0.000003      0.000020     -0.000034      0.000000
    146 O2    c       0.000024     -0.000003     -0.000043      0.000000
    147 O2    c       0.000029     -0.000084     -0.000092      0.000000
    148 O2    c       0.000011     -0.000008     -0.000056      0.000000
    149 O2    c      -0.000008      0.000013     -0.000013      0.000000
    150 O2    c      -0.000070      0.000089     -0.000059      0.000000
    151 O2    c       0.000031      0.000060     -0.000194      0.000000
    152 O2    c      -0.000018      0.000016     -0.000032      0.000000
    153 O2    c       0.000010     -0.000022     -0.000046      0.000000
    154 O2    c       0.000002      0.000002      0.000005      0.000000
    155 O3    c       0.000123      0.000015      0.000122      0.000000
    156 O2    c      -0.000031      0.000060     -0.000016      0.000000
    157 O2    c       0.000000     -0.000004     -0.000006      0.000000
    158 O2    c       0.000021     -0.000029      0.000087      0.000000
    159 O2    c      -0.000017      0.000006      0.000036      0.000000
    160 O2    c      -0.000030     -0.000034      0.000093      0.000000
    161 O2    c      -0.000005      0.000007      0.000019      0.000000
    162 O2    c       0.000034     -0.000018      0.000098      0.000000
    163 O3    c      -0.000059      0.000142      0.000132      0.000000
    164 O2    c      -0.000020     -0.000014     -0.000015      0.000000
    165 O2    c       0.000033     -0.000009     -0.000072      0.000000
    166 O2    c       0.000003     -0.000001     -0.000013      0.000000
    167 O2    c       0.000016      0.000012     -0.000031      0.000000
    168 O2    c      -0.000008     -0.000014     -0.000083      0.000000
    169 O2    c      -0.000008     -0.000009      0.000047      0.000000
    170 O2    c       0.000027      0.000023      0.000018      0.000000
    171 O3    c       0.000024      0.000071      0.000402      0.000000
    172 O2    c      -0.000061      0.000018      0.000017      0.000000
    173 O2    c       0.000007      0.000033     -0.000005      0.000000
    174 O2    c       0.000026     -0.000041      0.000016      0.000000
    175 O2    c      -0.000004     -0.000034     -0.000044      0.000000
    176 O2    c       0.000025     -0.000010     -0.000091      0.000000
    177 O3    c      -0.000233      0.000243     -0.000039      0.000000
    178 O2    c       0.000006      0.000021     -0.000057      0.000000
    179 O2    c      -0.000048      0.000014     -0.000100      0.000000
    180 O2    c      -0.000013      0.000017      0.000018      0.000000
    181 F     c       0.000000     -0.000002      0.000007      0.000000
    182 F     c      -0.000005      0.000004      0.000009      0.000000
    183 F     c       0.000035     -0.000036     -0.000117      0.000000
    184 F     c       0.000021     -0.000034      0.000150      0.000000
    185 F     c       0.000001     -0.000004      0.000046      0.000000
    186 F     c       0.000005     -0.000005     -0.000005      0.000000
    187 O2    s      -0.000046      0.000096     -0.000160      0.000000
    188 O2    s      -0.000007     -0.000006     -0.000040      0.000000
    189 O2    s       0.000008      0.000007      0.000067      0.000000
    190 O2    s      -0.000000     -0.000004     -0.000013      0.000000
    191 O3    s      -0.000009      0.000022     -0.000015      0.000000
    192 O2    s      -0.000028     -0.000004     -0.000212      0.000000
    193 O2    s       0.000003      0.000002     -0.000020      0.000000
    194 O2    s       0.000075     -0.000035      0.000001      0.000000
    195 O2    s      -0.000019     -0.000015     -0.000013      0.000000
    196 O2    s      -0.000012     -0.000019      0.000021      0.000000
    197 O2    s       0.000052     -0.000038     -0.000064      0.000000
    198 O2    s       0.000009     -0.000001     -0.000001      0.000000
    199 O3    s       0.000049      0.000072     -0.000234      0.000000
    200 O2    s      -0.000003      0.000013     -0.000027      0.000000
    201 O2    s       0.000006     -0.000017     -0.000007      0.000000
    202 O2    s      -0.000012      0.000009     -0.000005      0.000000
    203 O2    s      -0.000011      0.000004      0.000019      0.000000
    204 O2    s       0.000005      0.000009      0.000029      0.000000
    205 O2    s      -0.000045     -0.000055     -0.000129      0.000000
    206 O2    s      -0.000002     -0.000015     -0.000052      0.000000
    207 O2    s       0.000030      0.000025     -0.000009      0.000000
    208 O2    s       0.000001     -0.000001     -0.000015      0.000000
    209 O2    s       0.000061     -0.000025      0.000015      0.000000
    210 O2    s      -0.000042     -0.000029     -0.000070      0.000000
    211 O2    s       0.000001      0.000002      0.000004      0.000000
    212 O2    s      -0.000037      0.000068      0.000086      0.000000
    213 O2    s      -0.000007      0.000031      0.000041      0.000000
    214 O3    s      -0.000004     -0.000034      0.000137      0.000000
    215 O2    s      -0.000013      0.000019      0.000012      0.000000
    216 O2    s      -0.000019     -0.000017      0.000037      0.000000
    217 O2    s      -0.000014      0.000001     -0.000030      0.000000
    218 O2    s       0.000039     -0.000040      0.000030      0.000000
    219 O3    s       0.000010     -0.000265     -0.000960      0.000000
    220 O2    s      -0.000011      0.000024     -0.000103      0.000000
    221 O2    s       0.000104     -0.000050     -0.000129      0.000000
    222 O2    s       0.000007     -0.000000     -0.000022      0.000000
    223 O2    s       0.000031     -0.000091      0.000241      0.000000
    224 O2    s      -0.000012      0.000020     -0.000019      0.000000
    225 O3    s       0.000004     -0.000044      0.000004      0.000000
    226 O2    s       0.000011     -0.000005      0.000050      0.000000
    227 O2    s       0.000041      0.000018      0.000172      0.000000
    228 O2    s       0.000044      0.000060     -0.000068      0.000000
    229 O2    s       0.000015     -0.000015     -0.000077      0.000000
    230 O2    s       0.000061     -0.000047     -0.000072      0.000000
    231 O2    s      -0.000017     -0.000020      0.000060      0.000000
    232 O3    s      -0.000060      0.000046     -0.000125      0.000000
    233 O2    s       0.000005     -0.000005     -0.000008      0.000000
    234 O2    s       0.000005      0.000023     -0.000065      0.000000
    235 O2    s      -0.000002      0.000033     -0.000013      0.000000
    236 O2    s       0.000018     -0.000003      0.000032      0.000000
    237 O2    s       0.000009     -0.000003      0.000012      0.000000
    238 O2    s      -0.000006     -0.000033     -0.000015      0.000000
    239 O2    s       0.000017      0.000022     -0.000021      0.000000
    240 O2    s      -0.000005      0.000004     -0.000015      0.000000
    241 O3    s      -0.000025      0.000074     -0.000050      0.000000
    242 O2    s      -0.000008     -0.000005     -0.000017      0.000000
    243 O2    s      -0.000009      0.000020      0.000000      0.000000
    244 O2    s      -0.000004     -0.000003     -0.000032      0.000000
    245 O2    s       0.000000     -0.000003      0.000051      0.000000
    246 O2    s      -0.000020      0.000027     -0.000038      0.000000
    247 O2    s      -0.000009     -0.000002      0.000014      0.000000
    248 O2    s       0.000013     -0.000049      0.000003      0.000000
    249 O2    s       0.000007      0.000020      0.000093      0.000000
    250 O2    s      -0.000033      0.000017     -0.000014      0.000000
    251 O2    s       0.000009      0.000021      0.000007      0.000000
    252 O2    s       0.000008     -0.000006     -0.000026      0.000000
    253 O2    s      -0.000081      0.000107     -0.000073      0.000000
    254 O2    s       0.000006     -0.000005      0.000004      0.000000
    255 O3    s       0.000067     -0.000014      0.000206      0.000000
    256 O2    s      -0.000012     -0.000010      0.000066      0.000000
    257 O2    s       0.000025     -0.000016      0.000104      0.000000
    258 O2    s      -0.000018      0.000012      0.000075      0.000000
    259 O2    s       0.000012     -0.000006     -0.000091      0.000000
    260 O2    s      -0.000010     -0.000010     -0.000134      0.000000
    261 O2    s       0.000010     -0.000003     -0.000058      0.000000
    262 O2    s      -0.000018      0.000013     -0.000073      0.000000
    263 O2    s      -0.000002      0.000004     -0.000026      0.000000
    264 O2    s       0.000032     -0.000054     -0.000140      0.000000
    265 O2    s       0.000014     -0.000109      0.000112      0.000000
    266 O2    s       0.000006     -0.000016     -0.000019      0.000000
    267 O2    s      -0.000051      0.000039     -0.000043      0.000000
    268 O2    s      -0.000038      0.000038      0.000022      0.000000
    269 O2    s       0.000001     -0.000022      0.000058      0.000000
    270 O2    s      -0.000013     -0.000011      0.000005      0.000000
    271 O2    s      -0.000009     -0.000002     -0.000020      0.000000
    272 O2    s      -0.000004     -0.000002      0.000006      0.000000
    273 O2    s      -0.000009      0.000113      0.000099      0.000000
    274 O2    s       0.000028      0.000013      0.000077      0.000000
    275 O2    s       0.000002     -0.000009     -0.000006      0.000000
    276 O2    s      -0.000015     -0.000019      0.000042      0.000000
    277 O2    s      -0.000002     -0.000011      0.000039      0.000000
    278 O2    s      -0.000020     -0.000004     -0.000031      0.000000
    279 O2    s       0.000010      0.000002     -0.000053      0.000000
    280 O2    s      -0.000005     -0.000001      0.000009      0.000000
    281 O3    s      -0.000142     -0.000025     -0.000009      0.000000
    282 O2    s      -0.000003      0.000005     -0.000084      0.000000
    283 O2    s      -0.000001      0.000005      0.000012      0.000000
    284 O2    s      -0.000000     -0.000021     -0.000002      0.000000
    285 O2    s      -0.000009      0.000012      0.000036      0.000000
    286 O2    s      -0.000005     -0.000030      0.000023      0.000000
    287 O2    s      -0.000003      0.000008     -0.000056      0.000000
    288 O2    s      -0.000002     -0.000010     -0.000022      0.000000
    289 O3    s      -0.000050     -0.000016     -0.000371      0.000000
    290 O2    s      -0.000001     -0.000017     -0.000042      0.000000
    291 O2    s      -0.000005     -0.000023      0.000077      0.000000
    292 O2    s       0.000000      0.000001     -0.000025      0.000000
    293 O2    s       0.000007      0.000012     -0.000019      0.000000
    294 O2    s      -0.000040      0.000020     -0.000018      0.000000
    295 O2    s       0.000002      0.000018     -0.000034      0.000000
    296 O2    s      -0.000073      0.000021      0.000118      0.000000
    297 O3    s      -0.000028     -0.000032     -0.000257      0.000000
    298 O2    s      -0.000033      0.000033      0.000082      0.000000
    299 O2    s       0.000038     -0.000024      0.000060      0.000000
    300 O2    s      -0.000001     -0.000017      0.000023      0.000000
    301 O2    s       0.000004      0.000007      0.000010      0.000000
    302 O2    s      -0.000014      0.000001     -0.000011      0.000000
    303 O3    s       0.000169     -0.000160     -0.000043      0.000000
    304 O2    s       0.000004      0.000009      0.000015      0.000000
    305 O2    s      -0.000010     -0.000003     -0.000002      0.000000
    306 O2    s       0.000013     -0.000016      0.000019      0.000000
    307 F     s       0.000004     -0.000006     -0.000018      0.000000
    308 F     s       0.000006     -0.000011     -0.000051      0.000000
    309 F     s      -0.000035      0.000059      0.000199      0.000000
    310 F     s       0.000078     -0.000013      0.000039      0.000000
    311 F     s      -0.000000      0.000004     -0.000128      0.000000
    312 F     s      -0.000011      0.000010      0.000020      0.000000
--------------------------------------------------------------------------------
  Maximum abs         0.000233      0.000592      0.002441      0.000000
--------------------------------------------------------------------------------


  Time to end of optimisation =       9.8605 seconds


  Peak dynamic memory used =      19.13 MB 


  Timing analysis for GULP :

--------------------------------------------------------------------------------
  Task / Subroutine                                          Time (Seconds)
--------------------------------------------------------------------------------
  Calculation of reciprocal space energy and derivatives          0.3387
  Calculation of real space energy and derivatives                8.3452
  Calculation of three-body energy and derivatives                0.9352
  Calculation of matrix inversion                                 0.1920
--------------------------------------------------------------------------------
  Total CPU time                                                  9.8605
--------------------------------------------------------------------------------


  Dump file written as out.res                                                 
  CIF file written as out.cif                                                 


  Job Finished at 09:42.38 29th November   2016                               

