********************************************************************************
*                       GENERAL UTILITY LATTICE PROGRAM                        *
*                                 Julian Gale                                  *
*                      Nanochemistry Research Institute                        *
*                           Department of Chemistry                            *
*                    Curtin University, Western Australia                      *
********************************************************************************
* Version = 4.2.0 * Last modified =  20th January 2014                         *
********************************************************************************
*  optimise     - perform optimisation run                                     *
*  conp         - constant pressure calculation                                *
*  qok          - running with non charge neutral cell is OK                   *
********************************************************************************

  Job Started  at 21:17.07 28th November   2016                               

  Number of CPUs =     1


  Total number of configurations input =   1

********************************************************************************
*  Input for Configuration =   1                                               *
********************************************************************************

  Formula = Si57Ge3O120F6                                               

  Number of irreducible atoms/shells =     312


  Total number atoms/shells =     312

  Dimensionality = 3               :  Bulk   


  Charge on solid   =  -6.000000 =>neutralising background added


  Cartesian lattice vectors (Angstroms) :

       11.985399    0.000000    0.000000
       -5.936127   10.357761    0.000000
        0.022595    0.170462   29.495337

  Cell parameters (Angstroms/Degrees):

  a =      11.9854    alpha =  89.7345
  b =      11.9382    beta  =  89.9561
  c =      29.4958    gamma = 119.8174

  Initial cell volume =        3661.607021 Angs**3

  Temperature of configuration =  0.000     K 

  Pressure of configuration =         0.000 GPa 

  Fractional coordinates of asymmetric unit :

--------------------------------------------------------------------------------
   No.  Atomic       x           y          z         Charge      Occupancy
        Label      (Frac)      (Frac)     (Frac)        (e)         (Frac)  
--------------------------------------------------------------------------------
      1 Si    c    0.699600    0.375700    0.033890     4.00000    1.000000    
      2 Si    c    0.620082 *  0.321620 *  0.367893 *   4.00000    1.000000    
      3 Si    c    0.674964 *  0.292799 *  0.697237 *   4.00000    1.000000    
      4 Si    c    0.299266 *  0.620108 *  0.533132 *   4.00000    1.000000    
      5 Si    c    0.379615 *  0.674931 *  0.866526 *   4.00000    1.000000    
      6 Si    c    0.327244 *  0.703671 *  0.199539 *   4.00000    1.000000    
      7 Si    c    0.374795 *  0.700513 *  0.300639 *   4.00000    1.000000    
      8 Si    c    0.320917 *  0.622855 *  0.969083 *   4.00000    1.000000    
      9 Si    c    0.296631 *  0.672455 *  0.633824 *   4.00000    1.000000    
     10 Si    c    0.620821 *  0.295049 *  0.797644 *   4.00000    1.000000    
     11 Si    c    0.677373 *  0.380287 *  0.467697 *   4.00000    1.000000    
     12 Si    c    0.707006 *  0.326315 *  0.135138 *   4.00000    1.000000    
     13 Ge    c    0.530823 *  0.422516 *  0.966032 *   4.00000    1.000000    
     14 Si    c    0.578440 *  0.113254 *  0.301925 *   4.00000    1.000000    
     15 Si    c    0.887278 *  0.467009 *  0.633591 *   4.00000    1.000000    
     16 Si    c    0.472191 *  0.584623 *  0.467707 *   4.00000    1.000000    
     17 Si    c    0.419018 *  0.885327 *  0.800026 *   4.00000    1.000000    
     18 Si    c    0.116967 *  0.535385 *  0.134442 *   4.00000    1.000000    
     19 Si    c    0.415764 *  0.531157 *  0.366416 *   4.00000    1.000000    
     20 Si    c    0.111914 *  0.587483 *  0.033205 *   4.00000    1.000000    
     21 Si    c    0.468886 *  0.881745 *  0.698595 *   4.00000    1.000000    
     22 Si    c    0.589641 *  0.465867 *  0.864741 *   4.00000    1.000000    
     23 Si    c    0.887597 *  0.415881 *  0.532153 *   4.00000    1.000000    
     24 Si    c    0.533511 *  0.115597 *  0.200175 *   4.00000    1.000000    
     25 Si    c    0.303197 *  0.392284 *  0.850704 *   4.00000    1.000000    
     26 Si    c    0.606146 *  0.905506 *  0.186734 *   4.00000    1.000000    
     27 Si    c    0.097276 *  0.696602 *  0.518769 *   4.00000    1.000000    
     28 Si    c    0.694789 *  0.598743 *  0.351361 *   4.00000    1.000000    
     29 Si    c    0.397225 *  0.091677 *  0.684002 *   4.00000    1.000000    
     30 Si    c    0.907003 *  0.305350 *  0.019417 *   4.00000    1.000000    
     31 Si    c    0.399843 *  0.303619 *  0.483344 *   4.00000    1.000000    
     32 Si    c    0.906825 *  0.604460 *  0.149218 *   4.00000    1.000000    
     33 Si    c    0.698223 *  0.093630 *  0.813350 *   4.00000    1.000000    
     34 Si    c    0.602341 *  0.699257 *  0.985972 *   4.00000    1.000000    
     35 Si    c    0.094927 *  0.394402 *  0.648321 *   4.00000    1.000000    
     36 Si    c    0.298540 *  0.903014 *  0.314341 *   4.00000    1.000000    
     37 Ge    c    0.253882 *  0.336709 *  0.953436 *   4.00000    1.000000    
     38 Si    c    0.654478 *  0.910614 *  0.287821 *   4.00000    1.000000    
     39 Si    c    0.088578 *  0.745681 *  0.619214 *   4.00000    1.000000    
     40 Si    c    0.750309 *  0.662260 *  0.451320 *   4.00000    1.000000    
     41 Si    c    0.340022 *  0.086101 *  0.784668 *   4.00000    1.000000    
     42 Si    c    0.917285 *  0.256715 *  0.119886 *   4.00000    1.000000    
     43 Si    c    0.341102 *  0.252890 *  0.383007 *   4.00000    1.000000    
     44 Si    c    0.906977 *  0.659509 *  0.048590 *   4.00000    1.000000    
     45 Si    c    0.747298 *  0.083313 *  0.712831 *   4.00000    1.000000    
     46 Si    c    0.664382 *  0.746670 *  0.883123 *   4.00000    1.000000    
     47 Si    c    0.089110 *  0.338759 *  0.547737 *   4.00000    1.000000    
     48 Si    c    0.254905 *  0.913327 *  0.213383 *   4.00000    1.000000    
     49 Si    c    0.967357 *  0.121047 *  0.967676 *   4.00000    1.000000    
     50 Ge    c    0.877573 *  0.850919 *  0.301259 *   4.00000    1.000000    
     51 Si    c    0.149861 *  0.025537 *  0.634123 *   4.00000    1.000000    
     52 Si    c    0.030552 *  0.878411 *  0.468109 *   4.00000    1.000000    
     53 Si    c    0.121714 *  0.147694 *  0.800147 *   4.00000    1.000000    
     54 Si    c    0.854053 *  0.976471 *  0.134791 *   4.00000    1.000000    
     55 Si    c    0.124052 *  0.974207 *  0.367327 *   4.00000    1.000000    
     56 Si    c    0.846076 *  0.880793 *  0.034132 *   4.00000    1.000000    
     57 Si    c    0.027024 *  0.145800 *  0.699341 *   4.00000    1.000000    
     58 Si    c    0.879063 *  0.029478 *  0.866133 *   4.00000    1.000000    
     59 Si    c    0.151423 *  0.120924 *  0.533276 *   4.00000    1.000000    
     60 Si    c    0.977855 *  0.854179 *  0.198492 *   4.00000    1.000000    
     61 O2    c    0.920146 *  0.995514 *  0.998804 *   0.87073    1.000000    
     62 O3    c    0.002153 *  0.939386 *  0.337464 *   1.33043    1.000000    
     63 O2    c    0.071028 *  0.066538 *  0.667503 *   0.87073    1.000000    
     64 O2    c    0.071380 *  0.998559 *  0.501334 *   0.87073    1.000000    
     65 O2    c    0.002505 *  0.070396 *  0.834257 *   0.87073    1.000000    
     66 O2    c    0.936207 *  0.933645 *  0.165407 *   0.87073    1.000000    
     67 O2    c    0.336929 *  0.577615 *  0.333929 *   0.87073    1.000000    
     68 O2    c    0.419254 *  0.755869 *  0.666605 *   0.87073    1.000000    
     69 O2    c    0.236967 *  0.666062 *  0.000146 *   0.87073    1.000000    
     70 O2    c    0.661884 *  0.422047 *  0.828174 *   0.87073    1.000000    
     71 O2    c    0.584217 *  0.241762 *  0.167981 *   0.87073    1.000000    
     72 O2    c    0.762243 *  0.341219 *  0.500129 *   0.87073    1.000000    
     73 O3    c    0.583128 *  0.337499 *  0.001354 *   1.33043    1.000000    
     74 O2    c    0.759840 *  0.416825 *  0.665010 *   0.87073    1.000000    
     75 O2    c    0.656256 *  0.236214 *  0.334991 *   0.87073    1.000000    
     76 O2    c    0.422647 *  0.660232 *  0.500530 *   0.87073    1.000000    
     77 O2    c    0.243353 *  0.582794 *  0.166218 *   0.87073    1.000000    
     78 O2    c    0.343880 *  0.760041 *  0.833268 *   0.87073    1.000000    
     79 O3    c    0.116872 *  0.202006 *  0.974175 *   1.33043    1.000000    
     80 O3    c    0.778203 *  0.914367 *  0.309580 *   1.33043    1.000000    
     81 O2    c    0.087058 *  0.871162 *  0.639399 *   0.87073    1.000000    
     82 O2    c    0.876047 *  0.788342 *  0.471396 *   0.87073    1.000000    
     83 O2    c    0.212784 *  0.083777 *  0.804906 *   0.87073    1.000000    
     84 O2    c    0.917294 *  0.130427 *  0.140617 *   0.87073    1.000000    
     85 O2    c    0.217063 *  0.128113 *  0.362531 *   0.87073    1.000000    
     86 O2    c    0.904228 *  0.785264 *  0.028688 *   0.87073    1.000000    
     87 O2    c    0.873312 *  0.082340 *  0.693117 *   0.87073    1.000000    
     88 O2    c    0.787717 *  0.874140 *  0.862581 *   0.87073    1.000000    
     89 O2    c    0.088527 *  0.212384 *  0.527488 *   0.87073    1.000000    
     90 O2    c    0.131182 *  0.914315 *  0.191765 *   0.87073    1.000000    
     91 O3    c    0.943973 *  0.875886 *  0.248406 *   1.33043    1.000000    
     92 O2    c    0.136694 *  0.067715 *  0.583975 *   0.87073    1.000000    
     93 O2    c    0.927162 *  0.072856 *  0.916440 *   0.87073    1.000000    
     94 O2    c    0.064017 *  0.131970 *  0.750306 *   0.87073    1.000000    
     95 O2    c    0.864711 *  0.938936 *  0.083799 *   0.87073    1.000000    
     96 O2    c    0.076746 *  0.934073 *  0.418470 *   0.87073    1.000000    
     97 O2    c    0.903637 *  0.208827 *  0.980187 *   0.87073    1.000000    
     98 O3    c    0.790356 *  0.687729 *  0.311806 *   1.33043    1.000000    
     99 O2    c    0.301125 *  0.093862 *  0.645765 *   0.87073    1.000000    
    100 O2    c    0.098538 *  0.794949 *  0.480514 *   0.87073    1.000000    
    101 O2    c    0.208723 *  0.300210 *  0.810538 *   0.87073    1.000000    
    102 O2    c    0.703810 *  0.905289 *  0.148633 *   0.87073    1.000000    
    103 O2    c    0.199269 *  0.899403 *  0.352501 *   0.87073    1.000000    
    104 O2    c    0.694086 *  0.805494 *  0.022905 *   0.87073    1.000000    
    105 O2    c    0.096195 *  0.297454 *  0.686975 *   0.87073    1.000000    
    106 O2    c    0.796945 *  0.097135 *  0.851570 *   0.87073    1.000000    
    107 O2    c    0.303133 *  0.204217 *  0.521712 *   0.87073    1.000000    
    108 O2    c    0.905733 *  0.701374 *  0.187722 *   0.87073    1.000000    
    109 O2    c    0.322285 *  0.644208 *  0.250037 *   0.87073    1.000000    
    110 O2    c    0.354859 *  0.674639 *  0.583635 *   0.87073    1.000000    
    111 O2    c    0.324737 *  0.671896 *  0.916958 *   0.87073    1.000000    
    112 O2    c    0.676844 *  0.350323 *  0.747285 *   0.87073    1.000000    
    113 O2    c    0.648632 *  0.324776 *  0.085445 *   0.87073    1.000000    
    114 O2    c    0.676560 *  0.320443 *  0.418072 *   0.87073    1.000000    
    115 O1    c    0.369121 *  0.309929 *  0.975542 *   1.73396    1.000000    
    116 O2    c    0.664083 *  0.043345 *  0.305268 *   0.87073    1.000000    
    117 O2    c    0.955951 *  0.623234 *  0.637384 *   0.87073    1.000000    
    118 O2    c    0.628135 *  0.672150 *  0.470252 *   0.87073    1.000000    
    119 O2    c    0.331832 *  0.954326 *  0.803795 *   0.87073    1.000000    
    120 O2    c    0.049023 *  0.378912 *  0.138228 *   0.87073    1.000000    
    121 O2    c    0.329597 *  0.374842 *  0.364643 *   0.87073    1.000000    
    122 O2    c    0.041531 *  0.673621 *  0.030198 *   0.87073    1.000000    
    123 O2    c    0.624792 *  0.949873 *  0.695643 *   0.87073    1.000000    
    124 O2    c    0.672175 *  0.623814 *  0.864396 *   0.87073    1.000000    
    125 O2    c    0.957094 *  0.328777 *  0.529228 *   0.87073    1.000000    
    126 O2    c    0.377992 *  0.046450 *  0.196038 *   0.87073    1.000000    
    127 O2    c    0.772598 *  0.302727 *  0.013424 *   0.87073    1.000000    
    128 O2    c    0.695117 *  0.464412 *  0.345446 *   0.87073    1.000000    
    129 O2    c    0.531261 *  0.224819 *  0.675845 *   0.87073    1.000000    
    130 O2    c    0.230733 *  0.695843 *  0.511306 *   0.87073    1.000000    
    131 O2    c    0.308292 *  0.530292 *  0.846281 *   0.87073    1.000000    
    132 O2    c    0.472018 *  0.772343 *  0.178537 *   0.87073    1.000000    
    133 O2    c    0.298312 *  0.768407 *  0.322115 *   0.87073    1.000000    
    134 O2    c    0.465787 *  0.696568 *  0.989134 *   0.87073    1.000000    
    135 O2    c    0.228122 *  0.528522 *  0.656121 *   0.87073    1.000000    
    136 O2    c    0.694710 *  0.226113 *  0.820765 *   0.87073    1.000000    
    137 O2    c    0.535104 *  0.306304 *  0.490856 *   0.87073    1.000000    
    138 O2    c    0.775315 *  0.469147 *  0.157855 *   0.87073    1.000000    
    139 O2    c    0.784024 *  0.533444 *  0.028965 *   0.87073    1.000000    
    140 O2    c    0.465020 *  0.249803 *  0.363598 *   0.87073    1.000000    
    141 O2    c    0.746785 *  0.208462 *  0.692341 *   0.87073    1.000000    
    142 O2    c    0.215989 *  0.464100 *  0.528492 *   0.87073    1.000000    
    143 O2    c    0.533835 *  0.739230 *  0.865427 *   0.87073    1.000000    
    144 O2    c    0.255178 *  0.787405 *  0.194244 *   0.87073    1.000000    
    145 O2    c    0.529568 *  0.782326 *  0.306660 *   0.87073    1.000000    
    146 O3    c    0.248057 *  0.469774 *  0.974212 *   1.33043    1.000000    
    147 O2    c    0.214926 *  0.747020 *  0.638865 *   0.87073    1.000000    
    148 O2    c    0.464902 *  0.213934 *  0.803334 *   0.87073    1.000000    
    149 O2    c    0.752785 *  0.536915 *  0.470967 *   0.87073    1.000000    
    150 O2    c    0.789651 *  0.252648 *  0.139479 *   0.87073    1.000000    
    151 O3    c    0.228710 *  0.315336 *  0.895018 *   1.33043    1.000000    
    152 O2    c    0.677106 *  0.906448 *  0.233621 *   0.87073    1.000000    
    153 O2    c    0.091812 *  0.766349 *  0.565014 *   0.87073    1.000000    
    154 O2    c    0.767722 *  0.679766 *  0.396779 *   0.87073    1.000000    
    155 O2    c    0.322609 *  0.087076 *  0.730415 *   0.87073    1.000000    
    156 O2    c    0.917049 *  0.237023 *  0.065693 *   0.87073    1.000000    
    157 O2    c    0.324695 *  0.233646 *  0.437343 *   0.87073    1.000000    
    158 O2    c    0.906470 *  0.677594 *  0.102915 *   0.87073    1.000000    
    159 O2    c    0.768066 *  0.088826 *  0.767045 *   0.87073    1.000000    
    160 O2    c    0.673911 *  0.756920 *  0.937324 *   0.87073    1.000000    
    161 O2    c    0.090465 *  0.319980 *  0.602037 *   0.87073    1.000000    
    162 O2    c    0.230371 *  0.908403 *  0.267590 *   0.87073    1.000000    
    163 O3    c    0.595655 *  0.567184 *  0.997890 *   1.33043    1.000000    
    164 O2    c    0.435934 *  0.029293 *  0.323956 *   0.87073    1.000000    
    165 O2    c    0.969380 *  0.408068 *  0.657313 *   0.87073    1.000000    
    166 O2    c    0.414311 *  0.443662 *  0.491622 *   0.87073    1.000000    
    167 O2    c    0.560402 *  0.966114 *  0.822764 *   0.87073    1.000000    
    168 O2    c    0.034465 *  0.593996 *  0.157904 *   0.87073    1.000000    
    169 O2    c    0.555938 *  0.586241 *  0.342934 *   0.87073    1.000000    
    170 O2    c    0.030858 *  0.446128 *  0.010053 *   0.87073    1.000000    
    171 O2    c    0.411854 *  0.966270 *  0.675525 *   0.87073    1.000000    
    172 O2    c    0.445540 *  0.412598 *  0.844359 *   0.87073    1.000000    
    173 O2    c    0.972525 *  0.557772 *  0.509557 *   0.87073    1.000000    
    174 O2    c    0.593108 *  0.032049 *  0.178367 *   0.87073    1.000000    
    175 O2    c    0.581712 *  0.168670 *  0.251218 *   0.87073    1.000000    
    176 O2    c    0.834557 *  0.414950 *  0.582950 *   0.87073    1.000000    
    177 O3    c    0.597682 *  0.411882 *  0.913272 *   1.33043    1.000000    
    178 O2    c    0.416036 *  0.829175 *  0.749664 *   0.87073    1.000000    
    179 O2    c    0.169307 *  0.588876 *  0.083419 *   0.87073    1.000000    
    180 O2    c    0.417985 *  0.585427 *  0.417193 *   0.87073    1.000000    
    181 F     c    0.452502 *  0.904973 *  0.251115 *   0.56000    1.000000    
    182 F     c    0.095051 *  0.545292 *  0.584108 *   0.56000    1.000000    
    183 F     c    0.453876 *  0.510213 *  0.927434 *   0.56000    1.000000    
    184 F     c    0.546078 *  0.090076 *  0.749482 *   0.56000    1.000000    
    185 F     c    0.911547 *  0.457586 *  0.085356 *   0.56000    1.000000    
    186 F     c    0.549658 *  0.454713 *  0.417781 *   0.56000    1.000000    
    187 O2    s    0.916822 *  0.996332 *  0.999386 *  -2.87073    1.000000    
    188 O3    s    0.004714 *  0.935539 *  0.337586 *  -3.33043    1.000000    
    189 O2    s    0.074895 *  0.070863 *  0.667350 *  -2.87073    1.000000    
    190 O2    s    0.075801 *  0.998935 *  0.501235 *  -2.87073    1.000000    
    191 O2    s    0.002069 *  0.074365 *  0.833997 *  -2.87073    1.000000    
    192 O2    s    0.931490 *  0.929635 *  0.165609 *  -2.87073    1.000000    
    193 O2    s    0.348844 *  0.585331 *  0.333876 *  -2.87073    1.000000    
    194 O2    s    0.411892 *  0.760390 *  0.666573 *  -2.87073    1.000000    
    195 O2    s    0.233211 *  0.653920 *  0.000225 *  -2.87073    1.000000    
    196 O2    s    0.650263 *  0.413358 *  0.828717 *  -2.87073    1.000000    
    197 O2    s    0.591522 *  0.237241 *  0.167975 *  -2.87073    1.000000    
    198 O2    s    0.766596 *  0.352996 *  0.500127 *  -2.87073    1.000000    
    199 O3    s    0.592258 *  0.347705 *  0.002421 *  -3.33043    1.000000    
    200 O2    s    0.764076 *  0.409033 *  0.665150 *  -2.87073    1.000000    
    201 O2    s    0.644431 *  0.232443 *  0.335025 *  -2.87073    1.000000    
    202 O2    s    0.414957 *  0.648406 *  0.500572 *  -2.87073    1.000000    
    203 O2    s    0.239223 *  0.590466 *  0.166449 *  -2.87073    1.000000    
    204 O2    s    0.355250 *  0.763614 *  0.833465 *  -2.87073    1.000000    
    205 O3    s    0.111204 *  0.203743 *  0.971846 *  -3.33043    1.000000    
    206 O3    s    0.773997 *  0.908699 *  0.306709 *  -3.33043    1.000000    
    207 O2    s    0.093902 *  0.874618 *  0.636779 *  -2.87073    1.000000    
    208 O2    s    0.879441 *  0.784907 *  0.469010 *  -2.87073    1.000000    
    209 O2    s    0.216332 *  0.090709 *  0.802353 *  -2.87073    1.000000    
    210 O2    s    0.910534 *  0.126970 *  0.137889 *  -2.87073    1.000000    
    211 O2    s    0.220379 *  0.124991 *  0.365208 *  -2.87073    1.000000    
    212 O2    s    0.898302 *  0.782496 *  0.031288 *  -2.87073    1.000000    
    213 O2    s    0.876474 *  0.089111 *  0.695778 *  -2.87073    1.000000    
    214 O2    s    0.784273 *  0.876890 *  0.865075 *  -2.87073    1.000000    
    215 O2    s    0.095285 *  0.215790 *  0.530178 *  -2.87073    1.000000    
    216 O2    s    0.127998 *  0.907905 *  0.194695 *  -2.87073    1.000000    
    217 O3    s    0.941740 *  0.871344 *  0.247706 *  -3.33043    1.000000    
    218 O2    s    0.139838 *  0.068888 *  0.583982 *  -2.87073    1.000000    
    219 O2    s    0.925930 *  0.073030 *  0.916159 *  -2.87073    1.000000    
    220 O2    s    0.066368 *  0.135279 *  0.750211 *  -2.87073    1.000000    
    221 O2    s    0.861367 *  0.936524 *  0.083901 *  -2.87073    1.000000    
    222 O2    s    0.076682 *  0.932105 *  0.418497 *  -2.87073    1.000000    
    223 O2    s    0.910646 *  0.209527 *  0.982888 *  -2.87073    1.000000    
    224 O3    s    0.788294 *  0.692549 *  0.314761 *  -3.33043    1.000000    
    225 O2    s    0.294976 *  0.086370 *  0.648478 *  -2.87073    1.000000    
    226 O2    s    0.091122 *  0.793622 *  0.483183 *  -2.87073    1.000000    
    227 O2    s    0.209026 *  0.293428 *  0.813408 *  -2.87073    1.000000    
    228 O2    s    0.709677 *  0.912848 *  0.151089 *  -2.87073    1.000000    
    229 O2    s    0.201504 *  0.907673 *  0.350135 *  -2.87073    1.000000    
    230 O2    s    0.700572 *  0.802483 *  0.020295 *  -2.87073    1.000000    
    231 O2    s    0.088683 *  0.291144 *  0.684364 *  -2.87073    1.000000    
    232 O2    s    0.795492 *  0.089491 *  0.849151 *  -2.87073    1.000000    
    233 O2    s    0.296921 *  0.205489 *  0.519046 *  -2.87073    1.000000    
    234 O2    s    0.913388 *  0.707644 *  0.185005 *  -2.87073    1.000000    
    235 O2    s    0.328112 *  0.655892 *  0.250100 *  -2.87073    1.000000    
    236 O2    s    0.343263 *  0.668873 *  0.583646 *  -2.87073    1.000000    
    237 O2    s    0.330111 *  0.667342 *  0.916865 *  -2.87073    1.000000    
    238 O2    s    0.670800 *  0.338570 *  0.747338 *  -2.87073    1.000000    
    239 O2    s    0.659863 *  0.330056 *  0.085506 *  -2.87073    1.000000    
    240 O2    s    0.670870 *  0.326677 *  0.418026 *  -2.87073    1.000000    
    241 O1    s    0.371177 *  0.320037 *  0.973066 *  -3.73396    1.000000    
    242 O2    s    0.653907 *  0.036684 *  0.303042 *  -2.87073    1.000000    
    243 O2    s    0.962744 *  0.619934 *  0.635083 *  -2.87073    1.000000    
    244 O2    s    0.624794 *  0.662153 *  0.468021 *  -2.87073    1.000000    
    245 O2    s    0.341715 *  0.960831 *  0.801415 *  -2.87073    1.000000    
    246 O2    s    0.042210 *  0.382165 *  0.135912 *  -2.87073    1.000000    
    247 O2    s    0.339754 *  0.378252 *  0.366782 *  -2.87073    1.000000    
    248 O2    s    0.035041 *  0.663276 *  0.032401 *  -2.87073    1.000000    
    249 O2    s    0.621587 *  0.956796 *  0.697748 *  -2.87073    1.000000    
    250 O2    s    0.663194 *  0.621222 *  0.866417 *  -2.87073    1.000000    
    251 O2    s    0.963742 *  0.338790 *  0.531471 *  -2.87073    1.000000    
    252 O2    s    0.381087 *  0.039571 *  0.198301 *  -2.87073    1.000000    
    253 O2    s    0.779970 *  0.310441 *  0.016213 *  -2.87073    1.000000    
    254 O2    s    0.687153 *  0.463620 *  0.348497 *  -2.87073    1.000000    
    255 O2    s    0.531978 *  0.217804 *  0.678944 *  -2.87073    1.000000    
    256 O2    s    0.223718 *  0.688105 *  0.514382 *  -2.87073    1.000000    
    257 O2    s    0.315295 *  0.531273 *  0.848880 *  -2.87073    1.000000    
    258 O2    s    0.471142 *  0.779165 *  0.181579 *  -2.87073    1.000000    
    259 O2    s    0.306214 *  0.775503 *  0.319052 *  -2.87073    1.000000    
    260 O2    s    0.464805 *  0.689141 *  0.986681 *  -2.87073    1.000000    
    261 O2    s    0.221184 *  0.529243 *  0.652977 *  -2.87073    1.000000    
    262 O2    s    0.687462 *  0.219154 *  0.817578 *  -2.87073    1.000000    
    263 O2    s    0.535472 *  0.313604 *  0.487671 *  -2.87073    1.000000    
    264 O2    s    0.782207 *  0.468812 *  0.154598 *  -2.87073    1.000000    
    265 O2    s    0.789467 *  0.531885 *  0.031584 *  -2.87073    1.000000    
    266 O2    s    0.467899 *  0.257867 *  0.366167 *  -2.87073    1.000000    
    267 O2    s    0.739237 *  0.203556 *  0.695045 *  -2.87073    1.000000    
    268 O2    s    0.210851 *  0.466837 *  0.531040 *  -2.87073    1.000000    
    269 O2    s    0.531350 *  0.733049 *  0.867447 *  -2.87073    1.000000    
    270 O2    s    0.262883 *  0.792459 *  0.196878 *  -2.87073    1.000000    
    271 O2    s    0.526681 *  0.787573 *  0.304031 *  -2.87073    1.000000    
    272 O3    s    0.256193 *  0.474948 *  0.972056 *  -3.33043    1.000000    
    273 O2    s    0.209717 *  0.739010 *  0.636252 *  -2.87073    1.000000    
    274 O2    s    0.467466 *  0.208428 *  0.800786 *  -2.87073    1.000000    
    275 O2    s    0.744578 *  0.534064 *  0.468535 *  -2.87073    1.000000    
    276 O2    s    0.794934 *  0.260902 *  0.136926 *  -2.87073    1.000000    
    277 O3    s    0.238368 *  0.324912 *  0.894921 *  -3.33043    1.000000    
    278 O2    s    0.667462 *  0.906706 *  0.234289 *  -2.87073    1.000000    
    279 O2    s    0.092033 *  0.756840 *  0.565959 *  -2.87073    1.000000    
    280 O2    s    0.758654 *  0.669947 *  0.397893 *  -2.87073    1.000000    
    281 O2    s    0.332253 *  0.087447 *  0.731346 *  -2.87073    1.000000    
    282 O2    s    0.916077 *  0.246194 *  0.066608 *  -2.87073    1.000000    
    283 O2    s    0.334357 *  0.243078 *  0.436444 *  -2.87073    1.000000    
    284 O2    s    0.906571 *  0.668027 *  0.102064 *  -2.87073    1.000000    
    285 O2    s    0.758474 *  0.088732 *  0.766163 *  -2.87073    1.000000    
    286 O2    s    0.665743 *  0.750020 *  0.936218 *  -2.87073    1.000000    
    287 O2    s    0.090791 *  0.329776 *  0.601175 *  -2.87073    1.000000    
    288 O2    s    0.239982 *  0.908340 *  0.266821 *  -2.87073    1.000000    
    289 O3    s    0.591461 *  0.570950 *  0.994322 *  -3.33043    1.000000    
    290 O2    s    0.436003 *  0.024292 *  0.320616 *  -2.87073    1.000000    
    291 O2    s    0.974482 *  0.412899 *  0.653884 *  -2.87073    1.000000    
    292 O2    s    0.418933 *  0.443204 *  0.488247 *  -2.87073    1.000000    
    293 O2    s    0.560254 *  0.971301 *  0.819393 *  -2.87073    1.000000    
    294 O2    s    0.029275 *  0.588836 *  0.154533 *  -2.87073    1.000000    
    295 O2    s    0.556121 *  0.581666 *  0.346302 *  -2.87073    1.000000    
    296 O2    s    0.026030 *  0.445887 *  0.013443 *  -2.87073    1.000000    
    297 O2    s    0.416438 *  0.971120 *  0.678866 *  -2.87073    1.000000    
    298 O2    s    0.444695 *  0.415914 *  0.847139 *  -2.87073    1.000000    
    299 O2    s    0.977234 *  0.557823 *  0.512941 *  -2.87073    1.000000    
    300 O2    s    0.588110 *  0.026942 *  0.181558 *  -2.87073    1.000000    
    301 O2    s    0.576370 *  0.157426 *  0.251221 *  -2.87073    1.000000    
    302 O2    s    0.845623 *  0.420508 *  0.582954 *  -2.87073    1.000000    
    303 O3    s    0.592126 *  0.418192 *  0.911973 *  -3.33043    1.000000    
    304 O2    s    0.421758 *  0.840391 *  0.749681 *  -2.87073    1.000000    
    305 O2    s    0.158067 *  0.583234 *  0.083511 *  -2.87073    1.000000    
    306 O2    s    0.423362 *  0.579792 *  0.417198 *  -2.87073    1.000000    
    307 F     s    0.452382 *  0.904621 *  0.251188 *  -1.56000    1.000000    
    308 F     s    0.095312 *  0.545453 *  0.584193 *  -1.56000    1.000000    
    309 F     s    0.454647 *  0.504738 *  0.929244 *  -1.56000    1.000000    
    310 F     s    0.546131 *  0.090245 *  0.749581 *  -1.56000    1.000000    
    311 F     s    0.911806 *  0.457695 *  0.085492 *  -1.56000    1.000000    
    312 F     s    0.549990 *  0.454663 *  0.417815 *  -1.56000    1.000000    
--------------------------------------------------------------------------------



********************************************************************************
*  General input information                                                   *
********************************************************************************

  Species output for all configurations : 

--------------------------------------------------------------------------------
  Species    Type    Atomic    Atomic    Charge       Radii (Angs)     Library
                     Number     Mass       (e)     Cova   Ionic  VDW   Symbol
--------------------------------------------------------------------------------
    Si       Core       14      28.09   4.000000   1.200  0.000  2.100          
    O1       Core        8      16.00   1.733957   0.730  0.000  1.360          
    O1       Shell       8       0.00  -3.733957   0.730  0.000  1.360          
    O2       Core        8      16.00   0.870733   0.730  0.000  1.360          
    O2       Shell       8       0.00  -2.870733   0.730  0.000  1.360          
    O3       Core        8      16.00   1.330431   0.730  0.000  1.360          
    O3       Shell       8       0.00  -3.330431   0.730  0.000  1.360          
    F        Core        9      19.00   0.560000   0.710  0.000  1.300          
    F        Shell       9       0.00  -1.560000   0.710  0.000  1.300          
    Ge       Core       32      72.61   4.000000   1.170  0.000  1.750          
--------------------------------------------------------------------------------


  Lattice summation method               =    Ewald          (3-D)
                                         =    Parry          (2-D)
                                         =    Saunders et al (1-D)
  Accuracy factor for lattice sums       =   12.000


  Time limit = Infinity

  Maximum range for interatomic potentials =        16.000000 Angstroms

  Taper potentials to zero over   1.0000 Angstroms using polynomial

  General interatomic potentials :

--------------------------------------------------------------------------------
Atom  Types   Potential         A         B         C         D     Cutoffs(Ang)
  1     2                                                            Min    Max 
--------------------------------------------------------------------------------
Si   c O1   s Buckingham    0.132E+04 0.318      10.1      0.00     0.000 16.000
Si   c O2   s Buckingham    0.132E+04 0.318      10.1      0.00     0.000 16.000
Si   c O3   s Buckingham    0.132E+04 0.318      10.1      0.00     0.000 16.000
Ge   c O1   s Buckingham    0.150E+04 0.326      16.8      0.00     0.000 16.000
Ge   c O2   s Buckingham    0.150E+04 0.326      16.8      0.00     0.000 16.000
Ge   c O3   s Buckingham    0.150E+04 0.326      16.8      0.00     0.000 16.000
O1   s O1   s Buckingham    0.228E+05 0.149      10.9      0.00     0.000 16.000
O1   s O2   s Buckingham    0.228E+05 0.149      10.9      0.00     0.000 16.000
O1   s O3   s Buckingham    0.228E+05 0.149      10.9      0.00     0.000 16.000
O2   s O2   s Buckingham    0.228E+05 0.149      10.9      0.00     0.000 16.000
O2   s O3   s Buckingham    0.228E+05 0.149      10.9      0.00     0.000 16.000
O3   s O3   s Buckingham    0.228E+05 0.149      10.9      0.00     0.000 16.000
Si   c F    s Buckingham     977.     0.282      0.00      0.00     0.000 16.000
Ge   c F    s Buckingham     681.     0.320      0.00      0.00     0.000 16.000
F    s F    s Buckingham     540.     0.262      0.00      0.00     0.000 16.000
O1   s F    s Buckingham    0.168E+04 0.268      0.00      0.00     0.000 16.000
O2   s F    s Buckingham    0.168E+04 0.268      0.00      0.00     0.000 16.000
O3   s F    s Buckingham    0.168E+04 0.268      0.00      0.00     0.000 16.000
O2   c O2   s Spring (c-s)   76.0      0.00      0.00      0.00     0.000  0.800
O3   c O3   s Spring (c-s)   128.      0.00      0.00      0.00     0.000  0.800
O1   c O1   s Spring (c-s)   180.      0.00      0.00      0.00     0.000  0.800
F    c F    s Spring (c-s)   33.5      0.00      0.00      0.00     0.000  0.800
--------------------------------------------------------------------------------

  General Three-body potentials :

  Harmonic form:

--------------------------------------------------------------------------------
Atom    Atom    Atom           Force Constants            Theta     Cutoffs  
  1       2       3     (eVrad**-2/eVrad**-3/eVrad**-4)   (deg)  1-2  1-3  2-3
--------------------------------------------------------------------------------
Si    c O1    s O1    s  1.261        0.0000    0.0000   109.470 0.00 0.00 0.00
                                                                 1.90 1.90 3.50
Si    c O1    s O2    s  1.261        0.0000    0.0000   109.470 0.00 0.00 0.00
                                                                 1.90 1.90 3.50
Si    c O2    s O2    s  1.261        0.0000    0.0000   109.470 0.00 0.00 0.00
                                                                 1.90 1.90 3.50
--------------------------------------------------------------------------------

********************************************************************************
*  Output for configuration   1                                                *
********************************************************************************


  Components of energy : 

--------------------------------------------------------------------------------
  Interatomic potentials     =        2061.23285255 eV
  Three-body potentials      =           0.44020303 eV
  Monopole - monopole (real) =       -6610.78794355 eV
  Monopole - monopole (recip)=       -3170.30009459 eV
  Monopole - monopole (total)=       -9781.08803815 eV
  Neutralising energy        =          -6.45720688 eV
--------------------------------------------------------------------------------
  Total lattice energy       =       -7725.87218945 eV
--------------------------------------------------------------------------------
  Total lattice energy       =         -745428.5655 kJ/(mole unit cells)
--------------------------------------------------------------------------------


  Number of variables =      939

  Maximum number of calculations  =          1000
  Maximum Hessian update interval =            10
  Maximum step size               =   1.000000000
  Maximum parameter tolerance     =   0.000010000
  Maximum function  tolerance     =   0.000010000
  Maximum gradient  tolerance     =   0.001000000
  Maximum gradient  component     =   0.010000000

  Symmetry not applied to optimisation

  Cell parameters to be optimised using strains

  Newton-Raphson optimiser to be used

  BFGS hessian update to be used

  Dumpfile to be written after every cycle

  Start of bulk optimisation :

  Cycle:      0 Energy:     -7725.872189  Gnorm:      0.006211  CPU:    1.067
  ** Hessian calculated **
  Cycle:      1 Energy:     -7725.872267  Gnorm:      0.001621  CPU:    2.657
  Cycle:      2 Energy:     -7725.872294  Gnorm:      0.001813  CPU:    4.054
  Cycle:      3 Energy:     -7725.872397  Gnorm:      0.004033  CPU:    6.112
  Cycle:      4 Energy:     -7725.872638  Gnorm:      0.003692  CPU:    8.169
  Cycle:      5 Energy:     -7725.872922  Gnorm:      0.003082  CPU:    9.896
  Cycle:      6 Energy:     -7725.873203  Gnorm:      0.003598  CPU:   11.624
  Cycle:      7 Energy:     -7725.873467  Gnorm:      0.004516  CPU:   13.351
  Cycle:      8 Energy:     -7725.873819  Gnorm:      0.005489  CPU:   14.891
  Cycle:      9 Energy:     -7725.874184  Gnorm:      0.005189  CPU:   16.286
  Cycle:     10 Energy:     -7725.874463  Gnorm:      0.004291  CPU:   17.683
  ** Hessian calculated **
  Cycle:     11 Energy:     -7725.874578  Gnorm:      0.002829  CPU:   19.932
  Cycle:     12 Energy:     -7725.874708  Gnorm:      0.004141  CPU:   21.328
  Cycle:     13 Energy:     -7725.874865  Gnorm:      0.003063  CPU:   22.724
  Cycle:     14 Energy:     -7725.874965  Gnorm:      0.002975  CPU:   24.121
  Cycle:     15 Energy:     -7725.875076  Gnorm:      0.003582  CPU:   25.517
  Cycle:     16 Energy:     -7725.875195  Gnorm:      0.002613  CPU:   26.913
  Cycle:     17 Energy:     -7725.875277  Gnorm:      0.002454  CPU:   28.310
  Cycle:     18 Energy:     -7725.875340  Gnorm:      0.001965  CPU:   29.706
  Cycle:     19 Energy:     -7725.875392  Gnorm:      0.001923  CPU:   31.102
  Cycle:     20 Energy:     -7725.875438  Gnorm:      0.002060  CPU:   32.579
  ** Hessian calculated **
  Cycle:     21 Energy:     -7725.875787  Gnorm:      0.002036  CPU:   36.155
  Cycle:     22 Energy:     -7725.876333  Gnorm:      0.001999  CPU:   38.544
  Cycle:     23 Energy:     -7725.877145  Gnorm:      0.001941  CPU:   40.932
  Cycle:     24 Energy:     -7725.878125  Gnorm:      0.001869  CPU:   42.990
  Cycle:     25 Energy:     -7725.879695  Gnorm:      0.001746  CPU:   45.379
  Cycle:     26 Energy:     -7725.881545  Gnorm:      0.001587  CPU:   47.437
  Cycle:     27 Energy:     -7725.884274  Gnorm:      0.001317  CPU:   49.826
  Cycle:     28 Energy:     -7725.886973  Gnorm:      0.000977  CPU:   51.884
  Cycle:     29 Energy:     -7725.889272  Gnorm:      0.000538  CPU:   53.942
  Cycle:     30 Energy:     -7725.889887  Gnorm:      0.000181  CPU:   55.339
  ** Hessian calculated **
  Cycle:     31 Energy:     -7725.889887  Gnorm:      0.000106  CPU:   57.588
  Cycle:     32 Energy:     -7725.889888  Gnorm:      0.000087  CPU:   58.985
  Cycle:     33 Energy:     -7725.889888  Gnorm:      0.000086  CPU:   60.381
  Cycle:     34 Energy:     -7725.889888  Gnorm:      0.000071  CPU:   61.928
  Cycle:     35 Energy:     -7725.889888  Gnorm:      0.000061  CPU:   63.325
  Cycle:     36 Energy:     -7725.889888  Gnorm:      0.000052  CPU:   64.721
  Cycle:     37 Energy:     -7725.889888  Gnorm:      0.000053  CPU:   66.118
  Cycle:     38 Energy:     -7725.889888  Gnorm:      0.000055  CPU:   67.659


  **** Optimisation achieved ****


  Final energy =   -7725.88988807 eV
  Final Gnorm  =       0.00004632

  Components of energy : 

--------------------------------------------------------------------------------
  Interatomic potentials     =        2061.06438952 eV
  Three-body potentials      =           0.44747347 eV
  Monopole - monopole (real) =       -6611.36520292 eV
  Monopole - monopole (recip)=       -3169.58080723 eV
  Monopole - monopole (total)=       -9780.94601014 eV
  Neutralising energy        =          -6.45574091 eV
--------------------------------------------------------------------------------
  Total lattice energy       =       -7725.88988807 eV
--------------------------------------------------------------------------------
  Total lattice energy       =         -745430.2732 kJ/(mole unit cells)
--------------------------------------------------------------------------------

  Final fractional coordinates of atoms :

--------------------------------------------------------------------------------
   No.  Atomic        x           y          z          Radius
        Label       (Frac)      (Frac)     (Frac)       (Angs) 
--------------------------------------------------------------------------------
     1  Si    c     0.699600    0.375700    0.033890    0.000000
     2  Si    c     0.616660    0.315849    0.368353    0.000000
     3  Si    c     0.670050    0.281918    0.697236    0.000000
     4  Si    c     0.294689    0.611559    0.533651    0.000000
     5  Si    c     0.377850    0.665334    0.867110    0.000000
     6  Si    c     0.325369    0.699654    0.199983    0.000000
     7  Si    c     0.372602    0.696126    0.301206    0.000000
     8  Si    c     0.319274    0.614468    0.969802    0.000000
     9  Si    c     0.291387    0.662545    0.634434    0.000000
    10  Si    c     0.616093    0.284067    0.797754    0.000000
    11  Si    c     0.673350    0.372923    0.468239    0.000000
    12  Si    c     0.706235    0.323844    0.135375    0.000000
    13  Ge    c     0.526631    0.415534    0.965809    0.000000
    14  Si    c     0.575566    0.108320    0.302241    0.000000
    15  Si    c     0.882596    0.457738    0.633947    0.000000
    16  Si    c     0.468675    0.577310    0.468433    0.000000
    17  Si    c     0.415274    0.874907    0.800341    0.000000
    18  Si    c     0.115935    0.530554    0.134941    0.000000
    19  Si    c     0.413168    0.525885    0.367015    0.000000
    20  Si    c     0.111187    0.582561    0.033744    0.000000
    21  Si    c     0.464732    0.871249    0.698901    0.000000
    22  Si    c     0.587237    0.455572    0.865142    0.000000
    23  Si    c     0.883632    0.407864    0.532438    0.000000
    24  Si    c     0.531864    0.112283    0.200348    0.000000
    25  Si    c     0.300660    0.382449    0.851480    0.000000
    26  Si    c     0.603741    0.901379    0.187256    0.000000
    27  Si    c     0.092867    0.688339    0.519189    0.000000
    28  Si    c     0.692024    0.593360    0.352009    0.000000
    29  Si    c     0.392834    0.081134    0.684172    0.000000
    30  Si    c     0.905263    0.302049    0.019658    0.000000
    31  Si    c     0.396119    0.296178    0.484085    0.000000
    32  Si    c     0.906936    0.601001    0.149834    0.000000
    33  Si    c     0.693688    0.082545    0.813466    0.000000
    34  Si    c     0.600100    0.690362    0.987298    0.000000
    35  Si    c     0.089958    0.384754    0.648823    0.000000
    36  Si    c     0.296189    0.898714    0.314752    0.000000
    37  Ge    c     0.248500    0.325506    0.954709    0.000000
    38  Si    c     0.651815    0.905690    0.288349    0.000000
    39  Si    c     0.083534    0.736130    0.619751    0.000000
    40  Si    c     0.746548    0.655117    0.452136    0.000000
    41  Si    c     0.335763    0.075446    0.784921    0.000000
    42  Si    c     0.915794    0.252746    0.120148    0.000000
    43  Si    c     0.338094    0.247396    0.383608    0.000000
    44  Si    c     0.908522    0.657307    0.049139    0.000000
    45  Si    c     0.742628    0.072278    0.712904    0.000000
    46  Si    c     0.662255    0.736434    0.884215    0.000000
    47  Si    c     0.084958    0.330484    0.548147    0.000000
    48  Si    c     0.253702    0.910063    0.213663    0.000000
    49  Si    c     0.961359    0.114355    0.968160    0.000000
    50  Ge    c     0.875145    0.845975    0.301913    0.000000
    51  Si    c     0.145525    0.016068    0.634636    0.000000
    52  Si    c     0.026511    0.870859    0.468583    0.000000
    53  Si    c     0.118104    0.137972    0.800889    0.000000
    54  Si    c     0.851656    0.972070    0.135510    0.000000
    55  Si    c     0.121034    0.969034    0.367896    0.000000
    56  Si    c     0.842612    0.874749    0.035120    0.000000
    57  Si    c     0.022710    0.136132    0.700038    0.000000
    58  Si    c     0.875314    0.019748    0.866751    0.000000
    59  Si    c     0.147560    0.112802    0.533820    0.000000
    60  Si    c     0.976636    0.850185    0.199163    0.000000
    61  O2    c     0.911399    0.988981    0.999339    0.000000
    62  O3    c     0.999576    0.935173    0.337971    0.000000
    63  O2    c     0.068010    0.057498    0.668471    0.000000
    64  O2    c     0.067860    0.990830    0.501839    0.000000
    65  O2    c     0.999445    0.060696    0.835237    0.000000
    66  O2    c     0.933505    0.929226    0.166360    0.000000
    67  O2    c     0.334775    0.573129    0.334552    0.000000
    68  O2    c     0.414177    0.745194    0.667082    0.000000
    69  O2    c     0.236015    0.659127    0.000497    0.000000
    70  O2    c     0.657938    0.411434    0.828054    0.000000
    71  O2    c     0.583274    0.238737    0.168137    0.000000
    72  O2    c     0.758458    0.333465    0.500461    0.000000
    73  O3    c     0.582431    0.334289    0.001669    0.000000
    74  O2    c     0.754749    0.406444    0.665183    0.000000
    75  O2    c     0.653044    0.230923    0.335323    0.000000
    76  O2    c     0.418390    0.652297    0.501216    0.000000
    77  O2    c     0.242039    0.578443    0.166859    0.000000
    78  O2    c     0.341348    0.749845    0.833760    0.000000
    79  O3    c     0.110971    0.192500    0.975199    0.000000
    80  O3    c     0.775393    0.909072    0.310070    0.000000
    81  O2    c     0.082042    0.861656    0.639878    0.000000
    82  O2    c     0.872216    0.780973    0.472123    0.000000
    83  O2    c     0.208576    0.073188    0.805151    0.000000
    84  O2    c     0.915079    0.126026    0.140956    0.000000
    85  O2    c     0.213844    0.122887    0.363374    0.000000
    86  O2    c     0.905401    0.783237    0.029429    0.000000
    87  O2    c     0.869163    0.071822    0.693472    0.000000
    88  O2    c     0.785642    0.864321    0.863878    0.000000
    89  O2    c     0.084791    0.204408    0.527879    0.000000
    90  O2    c     0.129882    0.911260    0.192167    0.000000
    91  O3    c     0.942457    0.870625    0.249198    0.000000
    92  O2    c     0.132064    0.059096    0.584571    0.000000
    93  O2    c     0.922799    0.066457    0.916892    0.000000
    94  O2    c     0.059562    0.123362    0.751204    0.000000
    95  O2    c     0.862047    0.933658    0.084629    0.000000
    96  O2    c     0.072391    0.926775    0.418884    0.000000
    97  O2    c     0.901022    0.205349    0.980247    0.000000
    98  O3    c     0.788183    0.682906    0.312651    0.000000
    99  O2    c     0.296694    0.083260    0.645934    0.000000
   100  O2    c     0.094315    0.787037    0.480926    0.000000
   101  O2    c     0.205699    0.290034    0.811573    0.000000
   102  O2    c     0.701617    0.901406    0.149223    0.000000
   103  O2    c     0.196644    0.894770    0.352859    0.000000
   104  O2    c     0.690692    0.796162    0.024425    0.000000
   105  O2    c     0.090981    0.287556    0.687516    0.000000
   106  O2    c     0.792496    0.086075    0.851578    0.000000
   107  O2    c     0.299183    0.196094    0.522320    0.000000
   108  O2    c     0.905731    0.697646    0.188348    0.000000
   109  O2    c     0.320547    0.640298    0.250567    0.000000
   110  O2    c     0.349617    0.665078    0.584238    0.000000
   111  O2    c     0.322114    0.661501    0.917428    0.000000
   112  O2    c     0.671515    0.338879    0.747296    0.000000
   113  O2    c     0.649507    0.325140    0.085703    0.000000
   114  O2    c     0.672612    0.313616    0.418545    0.000000
   115  O1    c     0.365330    0.300336    0.975872    0.000000
   116  O2    c     0.661294    0.038414    0.305668    0.000000
   117  O2    c     0.951010    0.613823    0.637960    0.000000
   118  O2    c     0.624354    0.664788    0.471167    0.000000
   119  O2    c     0.327709    0.943610    0.804105    0.000000
   120  O2    c     0.047675    0.374037    0.138655    0.000000
   121  O2    c     0.326955    0.369706    0.365221    0.000000
   122  O2    c     0.042578    0.670618    0.030624    0.000000
   123  O2    c     0.620467    0.938970    0.695704    0.000000
   124  O2    c     0.669617    0.613730    0.864966    0.000000
   125  O2    c     0.953141    0.320681    0.529582    0.000000
   126  O2    c     0.376495    0.043075    0.196143    0.000000
   127  O2    c     0.772268    0.301719    0.013755    0.000000
   128  O2    c     0.691975    0.458849    0.346034    0.000000
   129  O2    c     0.526576    0.214096    0.675866    0.000000
   130  O2    c     0.226306    0.687623    0.511833    0.000000
   131  O2    c     0.307252    0.521085    0.846738    0.000000
   132  O2    c     0.469984    0.768508    0.178949    0.000000
   133  O2    c     0.295964    0.764015    0.322563    0.000000
   134  O2    c     0.464096    0.689089    0.989522    0.000000
   135  O2    c     0.222804    0.518586    0.656746    0.000000
   136  O2    c     0.689961    0.214920    0.820825    0.000000
   137  O2    c     0.531332    0.298736    0.491519    0.000000
   138  O2    c     0.775338    0.466089    0.158374    0.000000
   139  O2    c     0.785510    0.532697    0.029088    0.000000
   140  O2    c     0.461808    0.244346    0.364013    0.000000
   141  O2    c     0.741650    0.197283    0.692333    0.000000
   142  O2    c     0.211586    0.455755    0.528874    0.000000
   143  O2    c     0.531943    0.729723    0.866567    0.000000
   144  O2    c     0.253824    0.784009    0.194583    0.000000
   145  O2    c     0.527106    0.777657    0.307308    0.000000
   146  O3    c     0.248316    0.461563    0.975290    0.000000
   147  O2    c     0.209612    0.737119    0.639507    0.000000
   148  O2    c     0.460416    0.203047    0.803551    0.000000
   149  O2    c     0.748784    0.529430    0.471712    0.000000
   150  O2    c     0.788599    0.249760    0.139548    0.000000
   151  O3    c     0.226501    0.307394    0.896134    0.000000
   152  O2    c     0.674436    0.901590    0.234141    0.000000
   153  O2    c     0.086836    0.757282    0.565533    0.000000
   154  O2    c     0.764130    0.673301    0.397593    0.000000
   155  O2    c     0.318462    0.076710    0.730648    0.000000
   156  O2    c     0.915344    0.233200    0.065919    0.000000
   157  O2    c     0.321602    0.227357    0.437943    0.000000
   158  O2    c     0.907408    0.674723    0.103477    0.000000
   159  O2    c     0.763083    0.077362    0.767125    0.000000
   160  O2    c     0.672480    0.746331    0.938453    0.000000
   161  O2    c     0.086124    0.311075    0.602464    0.000000
   162  O2    c     0.228986    0.905050    0.267879    0.000000
   163  O3    c     0.591650    0.557914    0.999452    0.000000
   164  O2    c     0.433349    0.024593    0.324406    0.000000
   165  O2    c     0.964402    0.398397    0.657736    0.000000
   166  O2    c     0.410702    0.436248    0.492393    0.000000
   167  O2    c     0.556303    0.955314    0.823119    0.000000
   168  O2    c     0.033918    0.589504    0.158575    0.000000
   169  O2    c     0.553291    0.580972    0.343563    0.000000
   170  O2    c     0.030161    0.441835    0.010291    0.000000
   171  O2    c     0.407699    0.955849    0.675742    0.000000
   172  O2    c     0.442548    0.402048    0.845274    0.000000
   173  O2    c     0.968585    0.549730    0.509822    0.000000
   174  O2    c     0.591233    0.028307    0.178758    0.000000
   175  O2    c     0.579009    0.164318    0.251530    0.000000
   176  O2    c     0.830464    0.406780    0.583222    0.000000
   177  O3    c     0.595274    0.401401    0.913579    0.000000
   178  O2    c     0.412336    0.818631    0.750040    0.000000
   179  O2    c     0.168996    0.583957    0.083916    0.000000
   180  O2    c     0.415146    0.579300    0.417885    0.000000
   181  F     c     0.450521    0.900839    0.251551    0.000000
   182  F     c     0.090258    0.536305    0.584616    0.000000
   183  F     c     0.455964    0.502894    0.928138    0.000000
   184  F     c     0.541204    0.078559    0.749672    0.000000
   185  F     c     0.913374    0.455844    0.085580    0.000000
   186  F     c     0.546301    0.448222    0.418516    0.000000
   187  O2    s     0.909039    0.989987    0.999942    0.000000
   188  O3    s     0.002101    0.931159    0.338121    0.000000
   189  O2    s     0.071579    0.061715    0.668240    0.000000
   190  O2    s     0.072195    0.991185    0.501738    0.000000
   191  O2    s     0.998876    0.064655    0.834913    0.000000
   192  O2    s     0.928994    0.925273    0.166502    0.000000
   193  O2    s     0.346632    0.580758    0.334488    0.000000
   194  O2    s     0.406901    0.749830    0.667042    0.000000
   195  O2    s     0.232233    0.647007    0.000616    0.000000
   196  O2    s     0.646400    0.402758    0.828681    0.000000
   197  O2    s     0.590469    0.234225    0.168147    0.000000
   198  O2    s     0.762777    0.345255    0.500482    0.000000
   199  O3    s     0.591514    0.344616    0.002706    0.000000
   200  O2    s     0.759044    0.398708    0.665327    0.000000
   201  O2    s     0.641227    0.227145    0.335371    0.000000
   202  O2    s     0.410732    0.640462    0.501244    0.000000
   203  O2    s     0.237889    0.586086    0.167054    0.000000
   204  O2    s     0.352697    0.753480    0.833944    0.000000
   205  O3    s     0.105790    0.194751    0.972807    0.000000
   206  O3    s     0.771248    0.903470    0.307219    0.000000
   207  O2    s     0.088954    0.865117    0.637267    0.000000
   208  O2    s     0.875591    0.777552    0.469726    0.000000
   209  O2    s     0.212166    0.080212    0.802655    0.000000
   210  O2    s     0.908368    0.122604    0.138259    0.000000
   211  O2    s     0.217193    0.119729    0.365996    0.000000
   212  O2    s     0.899048    0.780050    0.032034    0.000000
   213  O2    s     0.872236    0.078613    0.696141    0.000000
   214  O2    s     0.782112    0.867151    0.866273    0.000000
   215  O2    s     0.091497    0.207761    0.530590    0.000000
   216  O2    s     0.126704    0.904742    0.195106    0.000000
   217  O3    s     0.940170    0.866245    0.248475    0.000000
   218  O2    s     0.135331    0.060229    0.584565    0.000000
   219  O2    s     0.921509    0.066263    0.916683    0.000000
   220  O2    s     0.062025    0.126416    0.751072    0.000000
   221  O2    s     0.858636    0.931246    0.084724    0.000000
   222  O2    s     0.072525    0.925024    0.418942    0.000000
   223  O2    s     0.907797    0.205606    0.982964    0.000000
   224  O3    s     0.786030    0.687645    0.315572    0.000000
   225  O2    s     0.290566    0.075896    0.648688    0.000000
   226  O2    s     0.086906    0.785715    0.483599    0.000000
   227  O2    s     0.205986    0.283332    0.814387    0.000000
   228  O2    s     0.707476    0.908909    0.151687    0.000000
   229  O2    s     0.198863    0.903018    0.350518    0.000000
   230  O2    s     0.697351    0.793574    0.021742    0.000000
   231  O2    s     0.083577    0.281280    0.684912    0.000000
   232  O2    s     0.791110    0.078531    0.849222    0.000000
   233  O2    s     0.293024    0.197437    0.519671    0.000000
   234  O2    s     0.913271    0.703906    0.185625    0.000000
   235  O2    s     0.326314    0.651922    0.250627    0.000000
   236  O2    s     0.338057    0.659367    0.584233    0.000000
   237  O2    s     0.327690    0.657217    0.917366    0.000000
   238  O2    s     0.665566    0.327205    0.747361    0.000000
   239  O2    s     0.660467    0.330035    0.085834    0.000000
   240  O2    s     0.666964    0.319913    0.418508    0.000000
   241  O1    s     0.366835    0.310300    0.973416    0.000000
   242  O2    s     0.651134    0.031750    0.303444    0.000000
   243  O2    s     0.957798    0.610519    0.635643    0.000000
   244  O2    s     0.621052    0.654833    0.468910    0.000000
   245  O2    s     0.337599    0.950144    0.801724    0.000000
   246  O2    s     0.040925    0.377408    0.136338    0.000000
   247  O2    s     0.337060    0.373050    0.367353    0.000000
   248  O2    s     0.035924    0.660221    0.032849    0.000000
   249  O2    s     0.617271    0.945914    0.697831    0.000000
   250  O2    s     0.660786    0.611210    0.867015    0.000000
   251  O2    s     0.959772    0.330678    0.531827    0.000000
   252  O2    s     0.379597    0.036233    0.198427    0.000000
   253  O2    s     0.779764    0.309227    0.016491    0.000000
   254  O2    s     0.684029    0.458075    0.349073    0.000000
   255  O2    s     0.527311    0.207092    0.678980    0.000000
   256  O2    s     0.219269    0.679848    0.514896    0.000000
   257  O2    s     0.314016    0.521920    0.849384    0.000000
   258  O2    s     0.469106    0.775300    0.182007    0.000000
   259  O2    s     0.303880    0.771107    0.319504    0.000000
   260  O2    s     0.462970    0.681408    0.987192    0.000000
   261  O2    s     0.215906    0.519339    0.653590    0.000000
   262  O2    s     0.682733    0.207999    0.817645    0.000000
   263  O2    s     0.531673    0.306059    0.488337    0.000000
   264  O2    s     0.782150    0.465772    0.155104    0.000000
   265  O2    s     0.790679    0.530768    0.031755    0.000000
   266  O2    s     0.464660    0.252361    0.366600    0.000000
   267  O2    s     0.734191    0.192437    0.695041    0.000000
   268  O2    s     0.206454    0.458477    0.531439    0.000000
   269  O2    s     0.529414    0.723461    0.868518    0.000000
   270  O2    s     0.261473    0.788993    0.197216    0.000000
   271  O2    s     0.524231    0.782910    0.304652    0.000000
   272  O3    s     0.255781    0.466442    0.973111    0.000000
   273  O2    s     0.204453    0.729158    0.636883    0.000000
   274  O2    s     0.462991    0.197572    0.800995    0.000000
   275  O2    s     0.740619    0.526661    0.469274    0.000000
   276  O2    s     0.793873    0.257927    0.137032    0.000000
   277  O3    s     0.235889    0.316540    0.896026    0.000000
   278  O2    s     0.664821    0.901925    0.234814    0.000000
   279  O2    s     0.087112    0.747808    0.566464    0.000000
   280  O2    s     0.755109    0.663498    0.398688    0.000000
   281  O2    s     0.328059    0.077028    0.731580    0.000000
   282  O2    s     0.914394    0.242376    0.066845    0.000000
   283  O2    s     0.331219    0.236763    0.437066    0.000000
   284  O2    s     0.907489    0.665169    0.102619    0.000000
   285  O2    s     0.753555    0.077367    0.766245    0.000000
   286  O2    s     0.664260    0.739717    0.937314    0.000000
   287  O2    s     0.086403    0.320862    0.601616    0.000000
   288  O2    s     0.238529    0.904888    0.267127    0.000000
   289  O3    s     0.587783    0.562375    0.995789    0.000000
   290  O2    s     0.433394    0.019595    0.321045    0.000000
   291  O2    s     0.969533    0.403266    0.654313    0.000000
   292  O2    s     0.415307    0.435769    0.489018    0.000000
   293  O2    s     0.556173    0.960545    0.819714    0.000000
   294  O2    s     0.028715    0.584433    0.155182    0.000000
   295  O2    s     0.553474    0.576391    0.346921    0.000000
   296  O2    s     0.025225    0.441612    0.013700    0.000000
   297  O2    s     0.412253    0.960688    0.679089    0.000000
   298  O2    s     0.441644    0.405424    0.847977    0.000000
   299  O2    s     0.973243    0.549761    0.513226    0.000000
   300  O2    s     0.586201    0.023237    0.181946    0.000000
   301  O2    s     0.573765    0.153136    0.251513    0.000000
   302  O2    s     0.841500    0.412248    0.583242    0.000000
   303  O3    s     0.589719    0.408015    0.912100    0.000000
   304  O2    s     0.418009    0.829879    0.750040    0.000000
   305  O2    s     0.157644    0.578333    0.084005    0.000000
   306  O2    s     0.420477    0.573618    0.417873    0.000000
   307  F     s     0.450434    0.900502    0.251628    0.000000
   308  F     s     0.090494    0.536451    0.584707    0.000000
   309  F     s     0.457791    0.497023    0.930217    0.000000
   310  F     s     0.541214    0.078645    0.749775    0.000000
   311  F     s     0.913887    0.456127    0.085692    0.000000
   312  F     s     0.546628    0.448164    0.418560    0.000000
--------------------------------------------------------------------------------

  Final Cartesian lattice vectors (Angstroms) :

       11.989845    0.014013   -0.001515
       -5.926219   10.358777    0.011887
        0.019074    0.202333   29.482097


  Final cell parameters and derivatives :

--------------------------------------------------------------------------------
       a           11.989854 Angstrom     dE/de1(xx)     0.002123 eV/strain
       b           11.934172 Angstrom     dE/de2(yy)     0.002486 eV/strain
       c           29.482797 Angstrom     dE/de3(zz)     0.001376 eV/strain
       alpha       89.620035 Degrees      dE/de4(yz)    -0.000357 eV/strain
       beta        89.969714 Degrees      dE/de5(xz)    -0.000003 eV/strain
       gamma      119.706746 Degrees      dE/de6(xy)     0.000138 eV/strain
--------------------------------------------------------------------------------

  Primitive cell volume =          3664.102020 Angs**3

  Density of cell =      1.746156 g/cm**3

  Non-primitive cell volume =          3664.102020 Angs**3


  Final internal derivatives :

--------------------------------------------------------------------------------
   No.  Atomic          a             b             c           Radius
        Label          (eV)          (eV)          (eV)        (eV/Angs)
--------------------------------------------------------------------------------
      1 Si    c       0.000000      0.000000      0.000000      0.000000
      2 Si    c       0.000336     -0.000099      0.001183      0.000000
      3 Si    c       0.000231     -0.000809      0.000415      0.000000
      4 Si    c      -0.001594      0.000835      0.000870      0.000000
      5 Si    c      -0.000237      0.001061     -0.001642      0.000000
      6 Si    c       0.000623     -0.000093      0.001899      0.000000
      7 Si    c      -0.000592      0.000982     -0.001051      0.000000
      8 Si    c      -0.000627      0.001405     -0.001977      0.000000
      9 Si    c      -0.001177      0.001081     -0.002136      0.000000
     10 Si    c       0.000560     -0.000430      0.000247      0.000000
     11 Si    c       0.000294     -0.000442     -0.001428      0.000000
     12 Si    c      -0.002935      0.002104     -0.005065      0.000000
     13 Ge    c       0.000628      0.001884     -0.004224      0.000000
     14 Si    c       0.000324     -0.000741     -0.001324      0.000000
     15 Si    c       0.001106     -0.000733     -0.001212      0.000000
     16 Si    c      -0.000291      0.000186     -0.002298      0.000000
     17 Si    c      -0.000346      0.000879     -0.001423      0.000000
     18 Si    c      -0.000382      0.000516      0.000892      0.000000
     19 Si    c      -0.000527      0.000420     -0.000052      0.000000
     20 Si    c      -0.002098      0.002158      0.000074      0.000000
     21 Si    c      -0.000938      0.001450     -0.000670      0.000000
     22 Si    c       0.001630     -0.001910     -0.002673      0.000000
     23 Si    c       0.000849     -0.000724      0.000758      0.000000
     24 Si    c      -0.000064      0.000103      0.001729      0.000000
     25 Si    c      -0.000808      0.000191     -0.004327      0.000000
     26 Si    c       0.000464     -0.000546      0.002542      0.000000
     27 Si    c       0.000750     -0.000400      0.001025      0.000000
     28 Si    c       0.000311     -0.000431     -0.000345      0.000000
     29 Si    c      -0.000140     -0.000146     -0.001307      0.000000
     30 Si    c      -0.000346     -0.000769     -0.006115      0.000000
     31 Si    c       0.000145     -0.000219     -0.001277      0.000000
     32 Si    c      -0.000686      0.000709     -0.001659      0.000000
     33 Si    c      -0.000473      0.001216      0.000984      0.000000
     34 Si    c      -0.001514      0.001669     -0.003053      0.000000
     35 Si    c      -0.000874      0.000766     -0.001880      0.000000
     36 Si    c       0.000804     -0.000914     -0.001013      0.000000
     37 Ge    c      -0.000085      0.002790     -0.000049      0.000000
     38 Si    c      -0.000939      0.000915     -0.001894      0.000000
     39 Si    c       0.001039     -0.000738     -0.000939      0.000000
     40 Si    c       0.000563     -0.000422     -0.001142      0.000000
     41 Si    c      -0.000548      0.000464     -0.001467      0.000000
     42 Si    c       0.000708     -0.000499     -0.000097      0.000000
     43 Si    c      -0.000037      0.000096      0.000496      0.000000
     44 Si    c      -0.000653      0.003430     -0.003041      0.000000
     45 Si    c      -0.000827      0.000501     -0.000547      0.000000
     46 Si    c       0.001027      0.000706      0.001448      0.000000
     47 Si    c      -0.001120      0.001029      0.000121      0.000000
     48 Si    c       0.000178     -0.000633     -0.000199      0.000000
     49 Si    c      -0.001144     -0.000899     -0.002433      0.000000
     50 Ge    c      -0.000309      0.000312      0.000173      0.000000
     51 Si    c       0.000632      0.000194     -0.001219      0.000000
     52 Si    c       0.000463     -0.000032     -0.000179      0.000000
     53 Si    c       0.000098     -0.000880     -0.002460      0.000000
     54 Si    c       0.000848     -0.000994      0.003203      0.000000
     55 Si    c       0.000079     -0.000304      0.001405      0.000000
     56 Si    c       0.000797     -0.000512     -0.003423      0.000000
     57 Si    c       0.000709     -0.000913     -0.000205      0.000000
     58 Si    c       0.000217     -0.000188      0.002244      0.000000
     59 Si    c       0.000395     -0.001086      0.000556      0.000000
     60 Si    c      -0.000418      0.001218     -0.002865      0.000000
     61 O2    c      -0.000272      0.001433      0.003179      0.000000
     62 O3    c      -0.000298      0.000199      0.001391      0.000000
     63 O2    c      -0.000433      0.000031      0.001237      0.000000
     64 O2    c       0.000508     -0.000253      0.000359      0.000000
     65 O2    c       0.000130      0.000381      0.002313      0.000000
     66 O2    c      -0.000967      0.000597     -0.003252      0.000000
     67 O2    c      -0.000202      0.000174      0.000356      0.000000
     68 O2    c      -0.000563      0.000473     -0.000360      0.000000
     69 O2    c      -0.001325      0.000002     -0.003955      0.000000
     70 O2    c      -0.000521      0.000879     -0.000628      0.000000
     71 O2    c      -0.000589      0.001153      0.000052      0.000000
     72 O2    c      -0.000040      0.000021     -0.001321      0.000000
     73 O3    c      -0.000235      0.003443     -0.002932      0.000000
     74 O2    c       0.000173      0.000070      0.000248      0.000000
     75 O2    c       0.000351     -0.000363      0.000706      0.000000
     76 O2    c      -0.000435      0.000367     -0.000871      0.000000
     77 O2    c       0.000638     -0.000043      0.001927      0.000000
     78 O2    c      -0.000017      0.000194     -0.000774      0.000000
     79 O3    c      -0.001534      0.001237      0.002450      0.000000
     80 O3    c       0.000181      0.000241     -0.002193      0.000000
     81 O2    c       0.000140     -0.000216      0.000544      0.000000
     82 O2    c       0.000500     -0.000092     -0.000208      0.000000
     83 O2    c      -0.000468      0.000760     -0.001166      0.000000
     84 O2    c       0.000967     -0.001670     -0.000964      0.000000
     85 O2    c      -0.000195      0.000182      0.000354      0.000000
     86 O2    c      -0.001062     -0.002631      0.007904      0.000000
     87 O2    c       0.000436     -0.000635     -0.000708      0.000000
     88 O2    c       0.000514      0.000488      0.000023      0.000000
     89 O2    c      -0.000232      0.000318      0.000271      0.000000
     90 O2    c      -0.000416     -0.000276     -0.000382      0.000000
     91 O3    c      -0.001455      0.000252     -0.001235      0.000000
     92 O2    c       0.000411     -0.000697     -0.000219      0.000000
     93 O2    c      -0.001354     -0.000322     -0.000835      0.000000
     94 O2    c       0.001242     -0.000706      0.001094      0.000000
     95 O2    c      -0.000061      0.002072      0.000563      0.000000
     96 O2    c       0.000696     -0.000286     -0.000895      0.000000
     97 O2    c       0.001560     -0.001123      0.000894      0.000000
     98 O3    c      -0.000258     -0.000136      0.001537      0.000000
     99 O2    c      -0.000131     -0.000454      0.001123      0.000000
    100 O2    c       0.000128     -0.000107      0.000301      0.000000
    101 O2    c      -0.000382      0.000210      0.002270      0.000000
    102 O2    c       0.002251     -0.001232     -0.000135      0.000000
    103 O2    c       0.000291     -0.000070      0.000224      0.000000
    104 O2    c       0.002377      0.000935      0.001638      0.000000
    105 O2    c       0.000152     -0.000154     -0.000549      0.000000
    106 O2    c       0.000890     -0.000004      0.000664      0.000000
    107 O2    c       0.000308     -0.000467     -0.000485      0.000000
    108 O2    c      -0.000266     -0.000444     -0.000602      0.000000
    109 O2    c       0.000474     -0.000031     -0.000437      0.000000
    110 O2    c      -0.000990      0.000617     -0.000369      0.000000
    111 O2    c       0.000057     -0.000125     -0.000396      0.000000
    112 O2    c      -0.000386      0.000018     -0.001430      0.000000
    113 O2    c      -0.001813      0.001484      0.000146      0.000000
    114 O2    c       0.000422     -0.000274      0.000097      0.000000
    115 O1    c      -0.004454     -0.001807      0.002042      0.000000
    116 O2    c      -0.000674      0.000479      0.000681      0.000000
    117 O2    c       0.000185     -0.000450      0.000376      0.000000
    118 O2    c      -0.000410      0.000710      0.000498      0.000000
    119 O2    c       0.000136     -0.000260      0.000637      0.000000
    120 O2    c       0.000685     -0.000662      0.003344      0.000000
    121 O2    c       0.000171      0.000140     -0.000166      0.000000
    122 O2    c      -0.005132      0.002570      0.002366      0.000000
    123 O2    c      -0.000474      0.000068     -0.000607      0.000000
    124 O2    c       0.000178     -0.000295     -0.001063      0.000000
    125 O2    c      -0.000216      0.000512     -0.000029      0.000000
    126 O2    c      -0.000587      0.000308     -0.001386      0.000000
    127 O2    c      -0.001525     -0.000946     -0.002936      0.000000
    128 O2    c       0.000117      0.000382      0.000537      0.000000
    129 O2    c       0.000100     -0.000034     -0.000836      0.000000
    130 O2    c       0.000377     -0.000322      0.000744      0.000000
    131 O2    c      -0.000262      0.000217     -0.000758      0.000000
    132 O2    c       0.000104     -0.000436      0.001261      0.000000
    133 O2    c       0.000357     -0.000065      0.001558      0.000000
    134 O2    c      -0.002425      0.000850     -0.005432      0.000000
    135 O2    c      -0.000670      0.000642      0.000114      0.000000
    136 O2    c       0.000518     -0.001280      0.000284      0.000000
    137 O2    c      -0.000075     -0.000072      0.001145      0.000000
    138 O2    c      -0.000400     -0.000181      0.000235      0.000000
    139 O2    c      -0.000471      0.000223      0.000890      0.000000
    140 O2    c      -0.000379     -0.000090      0.000065      0.000000
    141 O2    c       0.000150      0.000180     -0.000293      0.000000
    142 O2    c      -0.000679      0.001279     -0.000163      0.000000
    143 O2    c      -0.001877      0.000649      0.000699      0.000000
    144 O2    c      -0.000636      0.000845     -0.000443      0.000000
    145 O2    c      -0.000669      0.000797      0.001660      0.000000
    146 O3    c       0.000316     -0.001323     -0.000710      0.000000
    147 O2    c       0.000018     -0.000209     -0.000740      0.000000
    148 O2    c       0.000055      0.000531      0.000305      0.000000
    149 O2    c      -0.000102     -0.000035     -0.000303      0.000000
    150 O2    c       0.000737     -0.000403      0.002649      0.000000
    151 O3    c      -0.001061     -0.000129     -0.006208      0.000000
    152 O2    c      -0.000614      0.000162      0.000325      0.000000
    153 O2    c       0.000471     -0.000689     -0.000475      0.000000
    154 O2    c       0.000037     -0.000556      0.000008      0.000000
    155 O2    c      -0.000466      0.000588     -0.000221      0.000000
    156 O2    c       0.001870     -0.001527     -0.001127      0.000000
    157 O2    c       0.000173     -0.000043     -0.000949      0.000000
    158 O2    c      -0.002074      0.000885     -0.000703      0.000000
    159 O2    c      -0.000374      0.000093     -0.000272      0.000000
    160 O2    c       0.000495      0.001030      0.003001      0.000000
    161 O2    c      -0.000571      0.000950      0.000255      0.000000
    162 O2    c       0.000476     -0.000499      0.000253      0.000000
    163 O3    c      -0.000410     -0.000507     -0.003757      0.000000
    164 O2    c       0.000911     -0.000730      0.000499      0.000000
    165 O2    c       0.000082      0.000275     -0.000526      0.000000
    166 O2    c      -0.000460      0.000018      0.000275      0.000000
    167 O2    c      -0.000068     -0.000143      0.002138      0.000000
    168 O2    c      -0.001214      0.001508      0.001727      0.000000
    169 O2    c       0.000248     -0.000060     -0.001048      0.000000
    170 O2    c       0.001306     -0.001086     -0.004006      0.000000
    171 O2    c      -0.000007     -0.000277      0.000855      0.000000
    172 O2    c       0.002146     -0.000511     -0.002645      0.000000
    173 O2    c       0.000711     -0.000428     -0.000754      0.000000
    174 O2    c      -0.000013      0.000051      0.000214      0.000000
    175 O2    c       0.000048     -0.000093      0.001143      0.000000
    176 O2    c       0.000794     -0.000022      0.000454      0.000000
    177 O3    c       0.003096     -0.002203     -0.000957      0.000000
    178 O2    c      -0.000155      0.000309     -0.001391      0.000000
    179 O2    c      -0.000884      0.001132      0.002865      0.000000
    180 O2    c      -0.000482      0.000475     -0.000281      0.000000
    181 F     c       0.000101     -0.000167      0.000759      0.000000
    182 F     c       0.000024      0.000009     -0.000298      0.000000
    183 F     c      -0.000821      0.000605      0.001548      0.000000
    184 F     c       0.000307     -0.000125     -0.000113      0.000000
    185 F     c      -0.000070      0.000088      0.002789      0.000000
    186 F     c       0.000246     -0.000131     -0.000373      0.000000
    187 O2    s       0.005572      0.000592     -0.000993      0.000000
    188 O3    s       0.000466     -0.000970     -0.001324      0.000000
    189 O2    s      -0.000133      0.000646     -0.002124      0.000000
    190 O2    s      -0.000788      0.000521     -0.000510      0.000000
    191 O2    s      -0.001077     -0.000295     -0.004813      0.000000
    192 O2    s      -0.001222      0.001990      0.002497      0.000000
    193 O2    s       0.001132     -0.000231     -0.000431      0.000000
    194 O2    s       0.001146     -0.001319      0.000187      0.000000
    195 O2    s       0.002530     -0.000193      0.003752      0.000000
    196 O2    s      -0.000591      0.000607     -0.001638      0.000000
    197 O2    s       0.001021     -0.001613      0.000089      0.000000
    198 O2    s       0.000182      0.000741      0.001906      0.000000
    199 O3    s      -0.002280     -0.002777      0.009000      0.000000
    200 O2    s      -0.000458      0.000596     -0.001180      0.000000
    201 O2    s      -0.000874      0.000739     -0.000667      0.000000
    202 O2    s       0.000428     -0.001003      0.001607      0.000000
    203 O2    s      -0.000644     -0.000247     -0.001531      0.000000
    204 O2    s       0.000895     -0.000885     -0.000069      0.000000
    205 O3    s      -0.000661      0.002296     -0.004554      0.000000
    206 O3    s      -0.000224     -0.000525      0.001865      0.000000
    207 O2    s      -0.000416      0.000307     -0.001177      0.000000
    208 O2    s      -0.000772      0.000177      0.000106      0.000000
    209 O2    s      -0.000328      0.000263      0.001011      0.000000
    210 O2    s      -0.000977      0.000564      0.002904      0.000000
    211 O2    s       0.000211     -0.000421     -0.000108      0.000000
    212 O2    s      -0.003915     -0.002004     -0.002736      0.000000
    213 O2    s      -0.000057      0.000766      0.000015      0.000000
    214 O2    s      -0.001477      0.000419     -0.002800      0.000000
    215 O2    s       0.000393     -0.000104      0.000355      0.000000
    216 O2    s       0.000436      0.000179      0.002344      0.000000
    217 O3    s       0.001782     -0.000653      0.004379      0.000000
    218 O2    s       0.000042      0.001082      0.001073      0.000000
    219 O2    s       0.000355      0.001853      0.001524      0.000000
    220 O2    s      -0.001104      0.001432     -0.000614      0.000000
    221 O2    s      -0.001859     -0.001756     -0.000839      0.000000
    222 O2    s      -0.000521      0.000016     -0.000010      0.000000
    223 O2    s       0.001358     -0.003796      0.004482      0.000000
    224 O3    s      -0.000191      0.000344     -0.001347      0.000000
    225 O2    s      -0.000346      0.000691     -0.000432      0.000000
    226 O2    s      -0.000180     -0.000393      0.000634      0.000000
    227 O2    s       0.001243      0.000172     -0.002614      0.000000
    228 O2    s       0.000283      0.001030     -0.002961      0.000000
    229 O2    s      -0.000383      0.000575     -0.000950      0.000000
    230 O2    s       0.002224     -0.000583     -0.000570      0.000000
    231 O2    s      -0.000110      0.000012     -0.000451      0.000000
    232 O2    s      -0.000736     -0.000775     -0.003747      0.000000
    233 O2    s      -0.000410      0.001086      0.000472      0.000000
    234 O2    s       0.000686     -0.000756      0.002726      0.000000
    235 O2    s      -0.000343     -0.000419      0.001228      0.000000
    236 O2    s       0.001844     -0.001392      0.001013      0.000000
    237 O2    s      -0.000467      0.000599     -0.002073      0.000000
    238 O2    s       0.000243      0.000568     -0.001165      0.000000
    239 O2    s       0.001981     -0.002960      0.000449      0.000000
    240 O2    s      -0.000312      0.000329     -0.000271      0.000000
    241 O1    s       0.003858      0.001726     -0.007161      0.000000
    242 O2    s       0.001052     -0.000524      0.000542      0.000000
    243 O2    s      -0.001070      0.001161      0.000424      0.000000
    244 O2    s       0.000186     -0.000608      0.000258      0.000000
    245 O2    s      -0.000281      0.000281      0.000804      0.000000
    246 O2    s      -0.000733      0.000896     -0.003070      0.000000
    247 O2    s      -0.000247     -0.000251     -0.000734      0.000000
    248 O2    s       0.002132      0.000010      0.001918      0.000000
    249 O2    s       0.000912     -0.000739     -0.000150      0.000000
    250 O2    s      -0.001028      0.002125     -0.001805      0.000000
    251 O2    s      -0.000004     -0.000502     -0.001567      0.000000
    252 O2    s       0.000342     -0.000207      0.001444      0.000000
    253 O2    s       0.003005     -0.002388      0.003767      0.000000
    254 O2    s      -0.000193     -0.000381     -0.002189      0.000000
    255 O2    s      -0.000215      0.000481      0.000771      0.000000
    256 O2    s      -0.000098     -0.000187     -0.002154      0.000000
    257 O2    s       0.000228     -0.000455      0.000702      0.000000
    258 O2    s      -0.000886      0.000172     -0.002266      0.000000
    259 O2    s      -0.000332      0.000028     -0.000988      0.000000
    260 O2    s       0.000393     -0.000671      0.003754      0.000000
    261 O2    s       0.001665     -0.001200      0.000914      0.000000
    262 O2    s       0.000420      0.000119     -0.000099      0.000000
    263 O2    s      -0.000009      0.000431     -0.000873      0.000000
    264 O2    s       0.000185     -0.000500      0.003862      0.000000
    265 O2    s      -0.000078      0.002080     -0.001484      0.000000
    266 O2    s       0.000160      0.000136     -0.001064      0.000000
    267 O2    s       0.000144     -0.000270     -0.000647      0.000000
    268 O2    s       0.001574     -0.001899     -0.000732      0.000000
    269 O2    s       0.001475     -0.000847     -0.002206      0.000000
    270 O2    s       0.000255     -0.000545      0.000099      0.000000
    271 O2    s       0.001788     -0.001759     -0.000927      0.000000
    272 O3    s      -0.001027      0.001404     -0.000721      0.000000
    273 O2    s      -0.000271      0.000563      0.001902      0.000000
    274 O2    s      -0.001034      0.000049     -0.000151      0.000000
    275 O2    s       0.000203      0.000391      0.001215      0.000000
    276 O2    s       0.000167     -0.000637     -0.002333      0.000000
    277 O3    s      -0.000170      0.000182      0.003530      0.000000
    278 O2    s       0.001093     -0.000467      0.002149      0.000000
    279 O2    s      -0.001209      0.001189      0.000090      0.000000
    280 O2    s      -0.000210      0.000922      0.000446      0.000000
    281 O2    s       0.000391     -0.000357      0.000907      0.000000
    282 O2    s      -0.002797      0.002451     -0.000489      0.000000
    283 O2    s      -0.000288      0.000302      0.000881      0.000000
    284 O2    s       0.002478     -0.001761      0.001656      0.000000
    285 O2    s       0.001020     -0.000487      0.000371      0.000000
    286 O2    s      -0.001089     -0.000153     -0.000376      0.000000
    287 O2    s       0.001259     -0.001609      0.000563      0.000000
    288 O2    s      -0.001037      0.001044      0.000620      0.000000
    289 O3    s       0.000554      0.004249     -0.000177      0.000000
    290 O2    s      -0.001585      0.001447      0.000453      0.000000
    291 O2    s       0.000050     -0.000412      0.001803      0.000000
    292 O2    s       0.000563      0.000139      0.000743      0.000000
    293 O2    s       0.000425     -0.000092     -0.001714      0.000000
    294 O2    s       0.001415     -0.001850      0.003681      0.000000
    295 O2    s      -0.000201     -0.000010      0.000646      0.000000
    296 O2    s      -0.001099     -0.000806      0.005465      0.000000
    297 O2    s       0.000222      0.000360     -0.001182      0.000000
    298 O2    s      -0.002972      0.001292     -0.000670      0.000000
    299 O2    s      -0.001313      0.000993     -0.000232      0.000000
    300 O2    s      -0.000415      0.000283     -0.001006      0.000000
    301 O2    s      -0.000239      0.000129     -0.000617      0.000000
    302 O2    s      -0.001500      0.000502     -0.000537      0.000000
    303 O3    s      -0.003769      0.004437      0.000768      0.000000
    304 O2    s       0.000652     -0.000891      0.001241      0.000000
    305 O2    s       0.003894     -0.003204     -0.000932      0.000000
    306 O2    s       0.000473     -0.000463      0.001232      0.000000
    307 F     s      -0.000162      0.000203     -0.001712      0.000000
    308 F     s      -0.000062      0.000015      0.000263      0.000000
    309 F     s       0.000011     -0.000359     -0.002720      0.000000
    310 F     s      -0.000328      0.000394      0.000625      0.000000
    311 F     s       0.000895     -0.001024     -0.000958      0.000000
    312 F     s      -0.000300      0.000197      0.000233      0.000000
--------------------------------------------------------------------------------
  Maximum abs         0.005572      0.004437      0.009000      0.000000
--------------------------------------------------------------------------------


  Time to end of optimisation =      69.0577 seconds


  Peak dynamic memory used =      19.13 MB 


  Timing analysis for GULP :

--------------------------------------------------------------------------------
  Task / Subroutine                                          Time (Seconds)
--------------------------------------------------------------------------------
  Calculation of reciprocal space energy and derivatives          1.9965
  Calculation of real space energy and derivatives               58.7614
  Calculation of three-body energy and derivatives                7.1641
  Calculation of matrix inversion                                 0.7679
--------------------------------------------------------------------------------
  Total CPU time                                                 69.0577
--------------------------------------------------------------------------------


  Dump file written as out.res                                                 
  CIF file written as out.cif                                                 


  Job Finished at 21:18.16 28th November   2016                               

