********************************************************************************
*                       GENERAL UTILITY LATTICE PROGRAM                        *
*                                 Julian Gale                                  *
*                      Nanochemistry Research Institute                        *
*                           Department of Chemistry                            *
*                    Curtin University, Western Australia                      *
********************************************************************************
* Version = 4.2.0 * Last modified =  20th January 2014                         *
********************************************************************************
*  optimise     - perform optimisation run                                     *
*  conp         - constant pressure calculation                                *
*  qok          - running with non charge neutral cell is OK                   *
********************************************************************************

  Job Started  at 16:15.42 28th November   2016                               

  Number of CPUs =     1


  Total number of configurations input =   1

********************************************************************************
*  Input for Configuration =   1                                               *
********************************************************************************

  Formula = Si57Ge3O120F6                                               

  Number of irreducible atoms/shells =     312


  Total number atoms/shells =     312

  Dimensionality = 3               :  Bulk   


  Charge on solid   =  -6.000000 =>neutralising background added


  Cartesian lattice vectors (Angstroms) :

       11.980286    0.000000    0.000000
       -5.967188   10.355303    0.000000
       -0.135653    0.033303   29.538182

  Cell parameters (Angstroms/Degrees):

  a =      11.9803    alpha =  89.8127
  b =      11.9516    beta  =  90.2631
  c =      29.5385    gamma = 119.9525

  Initial cell volume =        3664.491667 Angs**3

  Temperature of configuration =  0.000     K 

  Pressure of configuration =         0.000 GPa 

  Fractional coordinates of asymmetric unit :

--------------------------------------------------------------------------------
   No.  Atomic       x           y          z         Charge      Occupancy
        Label      (Frac)      (Frac)     (Frac)        (e)         (Frac)  
--------------------------------------------------------------------------------
      1 Si    c    0.699600    0.375700    0.033890     4.00000    1.000000    
      2 Si    c    0.623603 *  0.323007 *  0.367439 *   4.00000    1.000000    
      3 Si    c    0.675830 *  0.290741 *  0.700213 *   4.00000    1.000000    
      4 Si    c    0.292837 *  0.622080 *  0.535390 *   4.00000    1.000000    
      5 Si    c    0.383024 *  0.673386 *  0.869022 *   4.00000    1.000000    
      6 Si    c    0.326968 *  0.703641 *  0.200066 *   4.00000    1.000000    
      7 Si    c    0.381196 *  0.703848 *  0.300598 *   4.00000    1.000000    
      8 Si    c    0.325281 *  0.620115 *  0.970954 *   4.00000    1.000000    
      9 Si    c    0.296387 *  0.672329 *  0.635903 *   4.00000    1.000000    
     10 Si    c    0.623118 *  0.292951 *  0.800375 *   4.00000    1.000000    
     11 Si    c    0.681814 *  0.375654 *  0.469372 *   4.00000    1.000000    
     12 Si    c    0.705730 *  0.325648 *  0.135331 *   4.00000    1.000000    
     13 Ge    c    0.532351 *  0.429514 *  0.967073 *   4.00000    1.000000    
     14 Si    c    0.582605 *  0.111646 *  0.301585 *   4.00000    1.000000    
     15 Si    c    0.886840 *  0.463662 *  0.636396 *   4.00000    1.000000    
     16 Si    c    0.467958 *  0.590691 *  0.469906 *   4.00000    1.000000    
     17 Si    c    0.420798 *  0.883088 *  0.802432 *   4.00000    1.000000    
     18 Si    c    0.115379 *  0.532701 *  0.135445 *   4.00000    1.000000    
     19 Si    c    0.417376 *  0.532367 *  0.366641 *   4.00000    1.000000    
     20 Si    c    0.112078 *  0.582541 *  0.034362 *   4.00000    1.000000    
     21 Si    c    0.470260 *  0.880677 *  0.701090 *   4.00000    1.000000    
     22 Si    c    0.595261 *  0.464015 *  0.867955 *   4.00000    1.000000    
     23 Si    c    0.883638 *  0.411509 *  0.535290 *   4.00000    1.000000    
     24 Si    c    0.533290 *  0.115189 *  0.200076 *   4.00000    1.000000    
     25 Si    c    0.308347 *  0.391528 *  0.855135 *   4.00000    1.000000    
     26 Si    c    0.605141 *  0.905460 *  0.185715 *   4.00000    1.000000    
     27 Si    c    0.088675 *  0.695108 *  0.521090 *   4.00000    1.000000    
     28 Si    c    0.701801 *  0.604622 *  0.349000 *   4.00000    1.000000    
     29 Si    c    0.397491 *  0.089624 *  0.686466 *   4.00000    1.000000    
     30 Si    c    0.904010 *  0.301417 *  0.020793 *   4.00000    1.000000    
     31 Si    c    0.401341 *  0.305992 *  0.485507 *   4.00000    1.000000    
     32 Si    c    0.906975 *  0.604012 *  0.149753 *   4.00000    1.000000    
     33 Si    c    0.700554 *  0.091971 *  0.816109 *   4.00000    1.000000    
     34 Si    c    0.608487 *  0.702195 *  0.988803 *   4.00000    1.000000    
     35 Si    c    0.097170 *  0.393148 *  0.650122 *   4.00000    1.000000    
     36 Si    c    0.302533 *  0.903870 *  0.315172 *   4.00000    1.000000    
     37 Si    c    0.252882 *  0.332536 *  0.956958 *   4.00000    1.000000    
     38 Si    c    0.661868 *  0.911717 *  0.286437 *   4.00000    1.000000    
     39 Si    c    0.086480 *  0.743152 *  0.622095 *   4.00000    1.000000    
     40 Ge    c    0.730098 *  0.640760 *  0.448508 *   4.00000    1.000000    
     41 Si    c    0.341824 *  0.083721 *  0.787060 *   4.00000    1.000000    
     42 Si    c    0.914853 *  0.254519 *  0.121163 *   4.00000    1.000000    
     43 Si    c    0.337111 *  0.250272 *  0.384096 *   4.00000    1.000000    
     44 Si    c    0.910260 *  0.658960 *  0.048982 *   4.00000    1.000000    
     45 Si    c    0.749219 *  0.082352 *  0.715763 *   4.00000    1.000000    
     46 Si    c    0.668203 *  0.744321 *  0.886148 *   4.00000    1.000000    
     47 Si    c    0.088872 *  0.339577 *  0.549546 *   4.00000    1.000000    
     48 Si    c    0.254718 *  0.913069 *  0.214606 *   4.00000    1.000000    
     49 Si    c    0.968724 *  0.121308 *  0.969687 *   4.00000    1.000000    
     50 Si    c    0.880607 *  0.850531 *  0.300120 *   4.00000    1.000000    
     51 Si    c    0.147587 *  0.021507 *  0.637643 *   4.00000    1.000000    
     52 Si    c    0.015198 *  0.867201 *  0.466657 *   4.00000    1.000000    
     53 Si    c    0.124101 *  0.145951 *  0.803599 *   4.00000    1.000000    
     54 Si    c    0.854221 *  0.975649 *  0.136209 *   4.00000    1.000000    
     55 Si    c    0.120707 *  0.967264 *  0.367133 *   4.00000    1.000000    
     56 Si    c    0.854247 *  0.883768 *  0.035973 *   4.00000    1.000000    
     57 Si    c    0.029857 *  0.146698 *  0.702596 *   4.00000    1.000000    
     58 Si    c    0.881071 *  0.026387 *  0.868556 *   4.00000    1.000000    
     59 Ge    c    0.148069 *  0.116241 *  0.533887 *   4.00000    1.000000    
     60 Si    c    0.976012 *  0.852387 *  0.200275 *   4.00000    1.000000    
     61 O2    c    0.934431 *  0.001334 *  0.002095 *   0.87073    1.000000    
     62 O2    c    0.999808 *  0.927130 *  0.334195 *   0.87073    1.000000    
     63 O2    c    0.073021 *  0.064885 *  0.672106 *   0.87073    1.000000    
     64 O3    c    0.063164 *  0.993230 *  0.497800 *   1.33043    1.000000    
     65 O2    c    0.004493 *  0.066653 *  0.837043 *   0.87073    1.000000    
     66 O2    c    0.933265 *  0.933229 *  0.168767 *   0.87073    1.000000    
     67 O2    c    0.341321 *  0.580082 *  0.333533 *   0.87073    1.000000    
     68 O2    c    0.419983 *  0.755302 *  0.668777 *   0.87073    1.000000    
     69 O2    c    0.237742 *  0.657883 *  0.001604 *   0.87073    1.000000    
     70 O2    c    0.665468 *  0.420634 *  0.830624 *   0.87073    1.000000    
     71 O2    c    0.582828 *  0.241279 *  0.168125 *   0.87073    1.000000    
     72 O2    c    0.759306 *  0.328633 *  0.502723 *   0.87073    1.000000    
     73 O3    c    0.580950 *  0.340703 *  0.002414 *   1.33043    1.000000    
     74 O2    c    0.760864 *  0.414478 *  0.668220 *   0.87073    1.000000    
     75 O2    c    0.657190 *  0.236204 *  0.334693 *   0.87073    1.000000    
     76 O2    c    0.411324 *  0.661965 *  0.500879 *   0.87073    1.000000    
     77 O2    c    0.241933 *  0.581125 *  0.167504 *   0.87073    1.000000    
     78 O2    c    0.346830 *  0.757597 *  0.835537 *   0.87073    1.000000    
     79 O2    c    0.120688 *  0.213422 *  0.975328 *   0.87073    1.000000    
     80 O2    c    0.789763 *  0.914092 *  0.306071 *   0.87073    1.000000    
     81 O2    c    0.085657 *  0.867257 *  0.643773 *   0.87073    1.000000    
     82 O3    c    0.866469 *  0.783067 *  0.470441 *   1.33043    1.000000    
     83 O2    c    0.214543 *  0.081475 *  0.807096 *   0.87073    1.000000    
     84 O2    c    0.915452 *  0.129177 *  0.142240 *   0.87073    1.000000    
     85 O2    c    0.213320 *  0.123546 *  0.363872 *   0.87073    1.000000    
     86 O2    c    0.908761 *  0.785566 *  0.029452 *   0.87073    1.000000    
     87 O2    c    0.875767 *  0.082686 *  0.696240 *   0.87073    1.000000    
     88 O2    c    0.790058 *  0.871546 *  0.864763 *   0.87073    1.000000    
     89 O3    c    0.086142 *  0.217694 *  0.526873 *   1.33043    1.000000    
     90 O2    c    0.129536 *  0.913923 *  0.193971 *   0.87073    1.000000    
     91 O2    c    0.940648 *  0.869951 *  0.250754 *   0.87073    1.000000    
     92 O3    c    0.126709 *  0.057335 *  0.588050 *   1.33043    1.000000    
     93 O2    c    0.930138 *  0.069117 *  0.919062 *   0.87073    1.000000    
     94 O2    c    0.067997 *  0.137859 *  0.753915 *   0.87073    1.000000    
     95 O2    c    0.873521 *  0.938833 *  0.086165 *   0.87073    1.000000    
     96 O2    c    0.070518 *  0.924184 *  0.417088 *   0.87073    1.000000    
     97 O2    c    0.898000 *  0.201442 *  0.982268 *   0.87073    1.000000    
     98 O2    c    0.792513 *  0.696287 *  0.307869 *   0.87073    1.000000    
     99 O2    c    0.300714 *  0.091006 *  0.648109 *   0.87073    1.000000    
    100 O2    c    0.088158 *  0.789167 *  0.482124 *   0.87073    1.000000    
    101 O2    c    0.210153 *  0.296968 *  0.816553 *   0.87073    1.000000    
    102 O2    c    0.701990 *  0.904487 *  0.147564 *   0.87073    1.000000    
    103 O2    c    0.204544 *  0.901133 *  0.353389 *   0.87073    1.000000    
    104 O2    c    0.702220 *  0.813480 *  0.024473 *   0.87073    1.000000    
    105 O2    c    0.099534 *  0.297248 *  0.688869 *   0.87073    1.000000    
    106 O2    c    0.799860 *  0.095141 *  0.854290 *   0.87073    1.000000    
    107 O3    c    0.312251 *  0.208806 *  0.523950 *   1.33043    1.000000    
    108 O2    c    0.905144 *  0.700754 *  0.188052 *   0.87073    1.000000    
    109 O2    c    0.325024 *  0.646060 *  0.250482 *   0.87073    1.000000    
    110 O2    c    0.353864 *  0.676311 *  0.585562 *   0.87073    1.000000    
    111 O2    c    0.328775 *  0.671130 *  0.919394 *   0.87073    1.000000    
    112 O2    c    0.678522 *  0.348373 *  0.750200 *   0.87073    1.000000    
    113 O2    c    0.649126 *  0.324540 *  0.085411 *   0.87073    1.000000    
    114 O2    c    0.680490 *  0.324606 *  0.417696 *   0.87073    1.000000    
    115 O3    c    0.365281 *  0.314829 *  0.976824 *   1.33043    1.000000    
    116 O2    c    0.669988 *  0.042926 *  0.305528 *   0.87073    1.000000    
    117 O2    c    0.955674 *  0.619670 *  0.640577 *   0.87073    1.000000    
    118 O3    c    0.619577 *  0.679816 *  0.473724 *   1.33043    1.000000    
    119 O2    c    0.333497 *  0.951923 *  0.806107 *   0.87073    1.000000    
    120 O2    c    0.047459 *  0.376491 *  0.139579 *   0.87073    1.000000    
    121 O2    c    0.332431 *  0.375512 *  0.365730 *   0.87073    1.000000    
    122 O2    c    0.044406 *  0.671092 *  0.031031 *   0.87073    1.000000    
    123 O2    c    0.626401 *  0.948634 *  0.698388 *   0.87073    1.000000    
    124 O2    c    0.678461 *  0.622683 *  0.867668 *   0.87073    1.000000    
    125 O2    c    0.954329 *  0.326931 *  0.533125 *   0.87073    1.000000    
    126 O2    c    0.377244 *  0.046596 *  0.197271 *   0.87073    1.000000    
    127 O2    c    0.770557 *  0.300590 *  0.013737 *   0.87073    1.000000    
    128 O2    c    0.695695 *  0.465662 *  0.344747 *   0.87073    1.000000    
    129 O2    c    0.531680 *  0.223098 *  0.678631 *   0.87073    1.000000    
    130 O2    c    0.224037 *  0.697780 *  0.514403 *   0.87073    1.000000    
    131 O2    c    0.311291 *  0.527778 *  0.849360 *   0.87073    1.000000    
    132 O2    c    0.470819 *  0.771604 *  0.178510 *   0.87073    1.000000    
    133 O2    c    0.305922 *  0.771387 *  0.323128 *   0.87073    1.000000    
    134 O2    c    0.469913 *  0.696780 *  0.991492 *   0.87073    1.000000    
    135 O2    c    0.229441 *  0.528666 *  0.658267 *   0.87073    1.000000    
    136 O2    c    0.697283 *  0.224345 *  0.823613 *   0.87073    1.000000    
    137 O2    c    0.535844 *  0.306158 *  0.488907 *   0.87073    1.000000    
    138 O2    c    0.774757 *  0.468927 *  0.157841 *   0.87073    1.000000    
    139 O2    c    0.787834 *  0.532912 *  0.028909 *   0.87073    1.000000    
    140 O2    c    0.468596 *  0.258524 *  0.367467 *   0.87073    1.000000    
    141 O2    c    0.747796 *  0.206794 *  0.695355 *   0.87073    1.000000    
    142 O2    c    0.214135 *  0.466358 *  0.530266 *   0.87073    1.000000    
    143 O2    c    0.537123 *  0.736248 *  0.868187 *   0.87073    1.000000    
    144 O2    c    0.255184 *  0.787716 *  0.195027 *   0.87073    1.000000    
    145 O2    c    0.537327 *  0.783983 *  0.305890 *   0.87073    1.000000    
    146 O2    c    0.260401 *  0.465558 *  0.974015 *   0.87073    1.000000    
    147 O2    c    0.215037 *  0.746950 *  0.640982 *   0.87073    1.000000    
    148 O2    c    0.466885 *  0.211874 *  0.805943 *   0.87073    1.000000    
    149 O3    c    0.762563 *  0.528227 *  0.475855 *   1.33043    1.000000    
    150 O2    c    0.787798 *  0.251614 *  0.140553 *   0.87073    1.000000    
    151 O2    c    0.241995 *  0.321266 *  0.901943 *   0.87073    1.000000    
    152 O2    c    0.679192 *  0.910578 *  0.232296 *   0.87073    1.000000    
    153 O2    c    0.085194 *  0.764262 *  0.567970 *   0.87073    1.000000    
    154 O3    c    0.780849 *  0.687254 *  0.391705 *   1.33043    1.000000    
    155 O2    c    0.323548 *  0.084707 *  0.732897 *   0.87073    1.000000    
    156 O2    c    0.912517 *  0.232728 *  0.067081 *   0.87073    1.000000    
    157 O2    c    0.325777 *  0.241212 *  0.438433 *   0.87073    1.000000    
    158 O2    c    0.908817 *  0.676605 *  0.103228 *   0.87073    1.000000    
    159 O2    c    0.770083 *  0.087368 *  0.769930 *   0.87073    1.000000    
    160 O2    c    0.680675 *  0.760453 *  0.940222 *   0.87073    1.000000    
    161 O2    c    0.095810 *  0.319894 *  0.603830 *   0.87073    1.000000    
    162 O2    c    0.232787 *  0.908101 *  0.268717 *   0.87073    1.000000    
    163 O3    c    0.602908 *  0.571973 *  0.002140 *   1.33043    1.000000    
    164 O2    c    0.440779 *  0.031242 *  0.324269 *   0.87073    1.000000    
    165 O2    c    0.969729 *  0.403755 *  0.658817 *   0.87073    1.000000    
    166 O2    c    0.419298 *  0.447728 *  0.491925 *   0.87073    1.000000    
    167 O2    c    0.562554 *  0.964341 *  0.825341 *   0.87073    1.000000    
    168 O2    c    0.033941 *  0.592453 *  0.158762 *   0.87073    1.000000    
    169 O2    c    0.557643 *  0.583979 *  0.344126 *   0.87073    1.000000    
    170 O2    c    0.029789 *  0.440910 *  0.011221 *   0.87073    1.000000    
    171 O2    c    0.413365 *  0.965193 *  0.678049 *   0.87073    1.000000    
    172 O2    c    0.449737 *  0.411656 *  0.847868 *   0.87073    1.000000    
    173 O2    c    0.966812 *  0.553371 *  0.512962 *   0.87073    1.000000    
    174 O2    c    0.589063 *  0.029917 *  0.177207 *   0.87073    1.000000    
    175 O2    c    0.585837 *  0.167168 *  0.251055 *   0.87073    1.000000    
    176 O2    c    0.831139 *  0.412256 *  0.585888 *   0.87073    1.000000    
    177 O3    c    0.602379 *  0.408385 *  0.915912 *   1.33043    1.000000    
    178 O2    c    0.417613 *  0.827708 *  0.751992 *   0.87073    1.000000    
    179 O2    c    0.169367 *  0.585245 *  0.084694 *   0.87073    1.000000    
    180 O2    c    0.418417 *  0.583989 *  0.417460 *   0.87073    1.000000    
    181 F     c    0.454792 *  0.905544 *  0.252045 *   0.56000    1.000000    
    182 F     c    0.095519 *  0.544385 *  0.587070 *   0.56000    1.000000    
    183 F     c    0.477006 *  0.521567 *  0.929691 *   0.56000    1.000000    
    184 F     c    0.547799 *  0.088729 *  0.752309 *   0.56000    1.000000    
    185 F     c    0.912839 *  0.454697 *  0.085981 *   0.56000    1.000000    
    186 F     c    0.583373 *  0.490791 *  0.422875 *   0.56000    1.000000    
    187 O2    s    0.929229 *  0.001618 *  0.002254 *  -2.87073    1.000000    
    188 O2    s    0.000119 *  0.923186 *  0.334084 *  -2.87073    1.000000    
    189 O2    s    0.076352 *  0.069364 *  0.671765 *  -2.87073    1.000000    
    190 O3    s    0.066317 *  0.992150 *  0.498077 *  -3.33043    1.000000    
    191 O2    s    0.004145 *  0.070962 *  0.836807 *  -2.87073    1.000000    
    192 O2    s    0.929137 *  0.928847 *  0.168651 *  -2.87073    1.000000    
    193 O2    s    0.353287 *  0.587579 *  0.333653 *  -2.87073    1.000000    
    194 O2    s    0.412661 *  0.759906 *  0.668784 *  -2.87073    1.000000    
    195 O2    s    0.234506 *  0.646411 *  0.001602 *  -2.87073    1.000000    
    196 O2    s    0.653894 *  0.411756 *  0.831270 *  -2.87073    1.000000    
    197 O2    s    0.590120 *  0.236663 *  0.168136 *  -2.87073    1.000000    
    198 O2    s    0.764020 *  0.341618 *  0.502653 *  -2.87073    1.000000    
    199 O3    s    0.590514 *  0.350641 *  0.003394 *  -3.33043    1.000000    
    200 O2    s    0.764915 *  0.406541 *  0.668302 *  -2.87073    1.000000    
    201 O2    s    0.646024 *  0.232755 *  0.334819 *  -2.87073    1.000000    
    202 O2    s    0.404846 *  0.650275 *  0.501231 *  -2.87073    1.000000    
    203 O2    s    0.237969 *  0.589019 *  0.167649 *  -2.87073    1.000000    
    204 O2    s    0.358066 *  0.761220 *  0.835781 *  -2.87073    1.000000    
    205 O2    s    0.117997 *  0.216096 *  0.972699 *  -2.87073    1.000000    
    206 O2    s    0.786050 *  0.907188 *  0.303445 *  -2.87073    1.000000    
    207 O2    s    0.092253 *  0.870631 *  0.640913 *  -2.87073    1.000000    
    208 O3    s    0.874308 *  0.783089 *  0.468560 *  -3.33043    1.000000    
    209 O2    s    0.218012 *  0.088522 *  0.804698 *  -2.87073    1.000000    
    210 O2    s    0.908796 *  0.125586 *  0.139445 *  -2.87073    1.000000    
    211 O2    s    0.217155 *  0.121279 *  0.366335 *  -2.87073    1.000000    
    212 O2    s    0.903132 *  0.782994 *  0.032122 *  -2.87073    1.000000    
    213 O2    s    0.878866 *  0.089366 *  0.698907 *  -2.87073    1.000000    
    214 O2    s    0.787009 *  0.874691 *  0.867367 *  -2.87073    1.000000    
    215 O3    s    0.091561 *  0.221807 *  0.529779 *  -3.33043    1.000000    
    216 O2    s    0.126319 *  0.907324 *  0.196761 *  -2.87073    1.000000    
    217 O2    s    0.937817 *  0.865747 *  0.250658 *  -2.87073    1.000000    
    218 O3    s    0.130831 *  0.058518 *  0.588771 *  -3.33043    1.000000    
    219 O2    s    0.928836 *  0.070058 *  0.918947 *  -2.87073    1.000000    
    220 O2    s    0.070102 *  0.139735 *  0.753825 *  -2.87073    1.000000    
    221 O2    s    0.869125 *  0.936715 *  0.086111 *  -2.87073    1.000000    
    222 O2    s    0.070533 *  0.923184 *  0.416459 *  -2.87073    1.000000    
    223 O2    s    0.906237 *  0.202907 *  0.984807 *  -2.87073    1.000000    
    224 O2    s    0.792601 *  0.703133 *  0.311111 *  -2.87073    1.000000    
    225 O2    s    0.294793 *  0.083676 *  0.650946 *  -2.87073    1.000000    
    226 O2    s    0.080856 *  0.786946 *  0.484743 *  -2.87073    1.000000    
    227 O2    s    0.211252 *  0.290831 *  0.819183 *  -2.87073    1.000000    
    228 O2    s    0.708049 *  0.912040 *  0.150266 *  -2.87073    1.000000    
    229 O2    s    0.205763 *  0.908506 *  0.350884 *  -2.87073    1.000000    
    230 O2    s    0.708713 *  0.809655 *  0.022073 *  -2.87073    1.000000    
    231 O2    s    0.091849 *  0.290892 *  0.686401 *  -2.87073    1.000000    
    232 O2    s    0.798341 *  0.087418 *  0.851873 *  -2.87073    1.000000    
    233 O3    s    0.308291 *  0.211267 *  0.520892 *  -3.33043    1.000000    
    234 O2    s    0.912891 *  0.707125 *  0.185485 *  -2.87073    1.000000    
    235 O2    s    0.330998 *  0.657828 *  0.250523 *  -2.87073    1.000000    
    236 O2    s    0.341891 *  0.670430 *  0.585621 *  -2.87073    1.000000    
    237 O2    s    0.334060 *  0.666253 *  0.919334 *  -2.87073    1.000000    
    238 O2    s    0.672449 *  0.336540 *  0.750220 *  -2.87073    1.000000    
    239 O2    s    0.660137 *  0.329721 *  0.085626 *  -2.87073    1.000000    
    240 O2    s    0.674805 *  0.329470 *  0.417593 *  -2.87073    1.000000    
    241 O3    s    0.364372 *  0.324439 *  0.973997 *  -3.33043    1.000000    
    242 O2    s    0.660107 *  0.036423 *  0.303135 *  -2.87073    1.000000    
    243 O2    s    0.962302 *  0.616459 *  0.638196 *  -2.87073    1.000000    
    244 O3    s    0.611656 *  0.667736 *  0.471522 *  -3.33043    1.000000    
    245 O2    s    0.343361 *  0.958397 *  0.803759 *  -2.87073    1.000000    
    246 O2    s    0.040553 *  0.379810 *  0.137209 *  -2.87073    1.000000    
    247 O2    s    0.341576 *  0.378323 *  0.367756 *  -2.87073    1.000000    
    248 O2    s    0.037789 *  0.660763 *  0.033206 *  -2.87073    1.000000    
    249 O2    s    0.623224 *  0.955605 *  0.700488 *  -2.87073    1.000000    
    250 O2    s    0.669310 *  0.620183 *  0.869667 *  -2.87073    1.000000    
    251 O2    s    0.961098 *  0.337402 *  0.535142 *  -2.87073    1.000000    
    252 O2    s    0.380479 *  0.039661 *  0.199397 *  -2.87073    1.000000    
    253 O2    s    0.777985 *  0.308314 *  0.016601 *  -2.87073    1.000000    
    254 O2    s    0.688827 *  0.464947 *  0.347570 *  -2.87073    1.000000    
    255 O2    s    0.532410 *  0.216019 *  0.681708 *  -2.87073    1.000000    
    256 O2    s    0.217029 *  0.689532 *  0.517363 *  -2.87073    1.000000    
    257 O2    s    0.318525 *  0.528883 *  0.852039 *  -2.87073    1.000000    
    258 O2    s    0.470196 *  0.778719 *  0.181515 *  -2.87073    1.000000    
    259 O2    s    0.313344 *  0.778388 *  0.319935 *  -2.87073    1.000000    
    260 O2    s    0.468743 *  0.689279 *  0.989036 *  -2.87073    1.000000    
    261 O2    s    0.222406 *  0.529145 *  0.655093 *  -2.87073    1.000000    
    262 O2    s    0.690017 *  0.217296 *  0.820411 *  -2.87073    1.000000    
    263 O2    s    0.536561 *  0.313348 *  0.486488 *  -2.87073    1.000000    
    264 O2    s    0.781649 *  0.468504 *  0.154659 *  -2.87073    1.000000    
    265 O2    s    0.792985 *  0.531444 *  0.031612 *  -2.87073    1.000000    
    266 O2    s    0.470684 *  0.264545 *  0.369280 *  -2.87073    1.000000    
    267 O2    s    0.740314 *  0.201896 *  0.698051 *  -2.87073    1.000000    
    268 O2    s    0.208894 *  0.469131 *  0.532870 *  -2.87073    1.000000    
    269 O2    s    0.534496 *  0.730225 *  0.870200 *  -2.87073    1.000000    
    270 O2    s    0.262800 *  0.792699 *  0.197672 *  -2.87073    1.000000    
    271 O2    s    0.534535 *  0.789456 *  0.303299 *  -2.87073    1.000000    
    272 O2    s    0.266840 *  0.468745 *  0.971947 *  -2.87073    1.000000    
    273 O2    s    0.209610 *  0.738629 *  0.638440 *  -2.87073    1.000000    
    274 O2    s    0.469391 *  0.206278 *  0.803379 *  -2.87073    1.000000    
    275 O3    s    0.751746 *  0.520866 *  0.473215 *  -3.33043    1.000000    
    276 O2    s    0.793093 *  0.259734 *  0.137943 *  -2.87073    1.000000    
    277 O2    s    0.250302 *  0.329996 *  0.902418 *  -2.87073    1.000000    
    278 O2    s    0.669576 *  0.910173 *  0.233158 *  -2.87073    1.000000    
    279 O2    s    0.085696 *  0.755025 *  0.568840 *  -2.87073    1.000000    
    280 O3    s    0.769176 *  0.675508 *  0.391324 *  -3.33043    1.000000    
    281 O2    s    0.333189 *  0.085095 *  0.733824 *  -2.87073    1.000000    
    282 O2    s    0.911912 *  0.242170 *  0.067964 *  -2.87073    1.000000    
    283 O2    s    0.334538 *  0.248699 *  0.437390 *  -2.87073    1.000000    
    284 O2    s    0.908793 *  0.667113 *  0.102435 *  -2.87073    1.000000    
    285 O2    s    0.760505 *  0.087307 *  0.769050 *  -2.87073    1.000000    
    286 O2    s    0.672296 *  0.752968 *  0.939061 *  -2.87073    1.000000    
    287 O2    s    0.095294 *  0.329445 *  0.603107 *  -2.87073    1.000000    
    288 O2    s    0.242474 *  0.908181 *  0.267907 *  -2.87073    1.000000    
    289 O3    s    0.598599 *  0.576580 *  0.998366 *  -3.33043    1.000000    
    290 O2    s    0.440847 *  0.025962 *  0.320939 *  -2.87073    1.000000    
    291 O2    s    0.974871 *  0.409001 *  0.655556 *  -2.87073    1.000000    
    292 O2    s    0.422324 *  0.446536 *  0.489051 *  -2.87073    1.000000    
    293 O2    s    0.562359 *  0.969470 *  0.821972 *  -2.87073    1.000000    
    294 O2    s    0.028663 *  0.587339 *  0.155380 *  -2.87073    1.000000    
    295 O2    s    0.557845 *  0.580527 *  0.347033 *  -2.87073    1.000000    
    296 O2    s    0.024951 *  0.440891 *  0.014627 *  -2.87073    1.000000    
    297 O2    s    0.417805 *  0.969975 *  0.681390 *  -2.87073    1.000000    
    298 O2    s    0.448464 *  0.414734 *  0.850683 *  -2.87073    1.000000    
    299 O2    s    0.971446 *  0.553687 *  0.516241 *  -2.87073    1.000000    
    300 O2    s    0.584798 *  0.025209 *  0.180529 *  -2.87073    1.000000    
    301 O2    s    0.580126 *  0.156050 *  0.251111 *  -2.87073    1.000000    
    302 O2    s    0.842364 *  0.417540 *  0.585912 *  -2.87073    1.000000    
    303 O3    s    0.597047 *  0.415648 *  0.914212 *  -3.33043    1.000000    
    304 O2    s    0.423301 *  0.838861 *  0.752060 *  -2.87073    1.000000    
    305 O2    s    0.157926 *  0.579578 *  0.084696 *  -2.87073    1.000000    
    306 O2    s    0.423175 *  0.579247 *  0.417274 *  -2.87073    1.000000    
    307 F     s    0.454652 *  0.905216 *  0.252212 *  -1.56000    1.000000    
    308 F     s    0.096091 *  0.544539 *  0.587200 *  -1.56000    1.000000    
    309 F     s    0.480827 *  0.515697 *  0.932121 *  -1.56000    1.000000    
    310 F     s    0.547883 *  0.088952 *  0.752427 *  -1.56000    1.000000    
    311 F     s    0.913338 *  0.454729 *  0.086099 *  -1.56000    1.000000    
    312 F     s    0.592118 *  0.499447 *  0.424305 *  -1.56000    1.000000    
--------------------------------------------------------------------------------



********************************************************************************
*  General input information                                                   *
********************************************************************************

  Species output for all configurations : 

--------------------------------------------------------------------------------
  Species    Type    Atomic    Atomic    Charge       Radii (Angs)     Library
                     Number     Mass       (e)     Cova   Ionic  VDW   Symbol
--------------------------------------------------------------------------------
    Si       Core       14      28.09   4.000000   1.200  0.000  2.100          
    O1       Core        8      16.00   1.733957   0.730  0.000  1.360          
    O1       Shell       8       0.00  -3.733957   0.730  0.000  1.360          
    O2       Core        8      16.00   0.870733   0.730  0.000  1.360          
    O2       Shell       8       0.00  -2.870733   0.730  0.000  1.360          
    O3       Core        8      16.00   1.330431   0.730  0.000  1.360          
    O3       Shell       8       0.00  -3.330431   0.730  0.000  1.360          
    F        Core        9      19.00   0.560000   0.710  0.000  1.300          
    F        Shell       9       0.00  -1.560000   0.710  0.000  1.300          
    Ge       Core       32      72.61   4.000000   1.170  0.000  1.750          
--------------------------------------------------------------------------------


  Lattice summation method               =    Ewald          (3-D)
                                         =    Parry          (2-D)
                                         =    Saunders et al (1-D)
  Accuracy factor for lattice sums       =   12.000


  Time limit = Infinity

  Maximum range for interatomic potentials =        16.000000 Angstroms

  Taper potentials to zero over   1.0000 Angstroms using polynomial

  General interatomic potentials :

--------------------------------------------------------------------------------
Atom  Types   Potential         A         B         C         D     Cutoffs(Ang)
  1     2                                                            Min    Max 
--------------------------------------------------------------------------------
Si   c O1   s Buckingham    0.132E+04 0.318      10.1      0.00     0.000 16.000
Si   c O2   s Buckingham    0.132E+04 0.318      10.1      0.00     0.000 16.000
Si   c O3   s Buckingham    0.132E+04 0.318      10.1      0.00     0.000 16.000
Ge   c O1   s Buckingham    0.150E+04 0.326      16.8      0.00     0.000 16.000
Ge   c O2   s Buckingham    0.150E+04 0.326      16.8      0.00     0.000 16.000
Ge   c O3   s Buckingham    0.150E+04 0.326      16.8      0.00     0.000 16.000
O1   s O1   s Buckingham    0.228E+05 0.149      10.9      0.00     0.000 16.000
O1   s O2   s Buckingham    0.228E+05 0.149      10.9      0.00     0.000 16.000
O1   s O3   s Buckingham    0.228E+05 0.149      10.9      0.00     0.000 16.000
O2   s O2   s Buckingham    0.228E+05 0.149      10.9      0.00     0.000 16.000
O2   s O3   s Buckingham    0.228E+05 0.149      10.9      0.00     0.000 16.000
O3   s O3   s Buckingham    0.228E+05 0.149      10.9      0.00     0.000 16.000
Si   c F    s Buckingham     977.     0.282      0.00      0.00     0.000 16.000
Ge   c F    s Buckingham     681.     0.320      0.00      0.00     0.000 16.000
F    s F    s Buckingham     540.     0.262      0.00      0.00     0.000 16.000
O1   s F    s Buckingham    0.168E+04 0.268      0.00      0.00     0.000 16.000
O2   s F    s Buckingham    0.168E+04 0.268      0.00      0.00     0.000 16.000
O3   s F    s Buckingham    0.168E+04 0.268      0.00      0.00     0.000 16.000
O2   c O2   s Spring (c-s)   76.0      0.00      0.00      0.00     0.000  0.800
O3   c O3   s Spring (c-s)   128.      0.00      0.00      0.00     0.000  0.800
O1   c O1   s Spring (c-s)   180.      0.00      0.00      0.00     0.000  0.800
F    c F    s Spring (c-s)   33.5      0.00      0.00      0.00     0.000  0.800
--------------------------------------------------------------------------------

  General Three-body potentials :

  Harmonic form:

--------------------------------------------------------------------------------
Atom    Atom    Atom           Force Constants            Theta     Cutoffs  
  1       2       3     (eVrad**-2/eVrad**-3/eVrad**-4)   (deg)  1-2  1-3  2-3
--------------------------------------------------------------------------------
Si    c O1    s O1    s  1.261        0.0000    0.0000   109.470 0.00 0.00 0.00
                                                                 1.90 1.90 3.50
Si    c O1    s O2    s  1.261        0.0000    0.0000   109.470 0.00 0.00 0.00
                                                                 1.90 1.90 3.50
Si    c O2    s O2    s  1.261        0.0000    0.0000   109.470 0.00 0.00 0.00
                                                                 1.90 1.90 3.50
--------------------------------------------------------------------------------

********************************************************************************
*  Output for configuration   1                                                *
********************************************************************************


  Components of energy : 

--------------------------------------------------------------------------------
  Interatomic potentials     =        2063.16749932 eV
  Three-body potentials      =           0.46299044 eV
  Monopole - monopole (real) =       -6614.50600263 eV
  Monopole - monopole (recip)=       -3169.13124590 eV
  Monopole - monopole (total)=       -9783.63724853 eV
  Neutralising energy        =          -6.45551209 eV
--------------------------------------------------------------------------------
  Total lattice energy       =       -7726.46227086 eV
--------------------------------------------------------------------------------
  Total lattice energy       =         -745485.4993 kJ/(mole unit cells)
--------------------------------------------------------------------------------


  Number of variables =      939

  Maximum number of calculations  =          1000
  Maximum Hessian update interval =            10
  Maximum step size               =   1.000000000
  Maximum parameter tolerance     =   0.000010000
  Maximum function  tolerance     =   0.000010000
  Maximum gradient  tolerance     =   0.001000000
  Maximum gradient  component     =   0.010000000

  Symmetry not applied to optimisation

  Cell parameters to be optimised using strains

  Newton-Raphson optimiser to be used

  BFGS hessian update to be used

  Dumpfile to be written after every cycle

  Start of bulk optimisation :

  Cycle:      0 Energy:     -7726.462271  Gnorm:      0.007394  CPU:    2.037
  ** Hessian calculated **
  Cycle:      1 Energy:     -7726.504569  Gnorm:      0.002584  CPU:    5.213
  Cycle:      2 Energy:     -7726.504847  Gnorm:      0.000324  CPU:    8.016
  Cycle:      3 Energy:     -7726.504864  Gnorm:      0.000094  CPU:   10.331


  **** Optimisation achieved ****


  Final energy =   -7726.50486445 eV
  Final Gnorm  =       0.00001390

  Components of energy : 

--------------------------------------------------------------------------------
  Interatomic potentials     =        2063.17605591 eV
  Three-body potentials      =           0.46334409 eV
  Monopole - monopole (real) =       -6615.17745722 eV
  Monopole - monopole (recip)=       -3168.51255667 eV
  Monopole - monopole (total)=       -9783.69001389 eV
  Neutralising energy        =          -6.45425056 eV
--------------------------------------------------------------------------------
  Total lattice energy       =       -7726.50486445 eV
--------------------------------------------------------------------------------
  Total lattice energy       =         -745489.6090 kJ/(mole unit cells)
--------------------------------------------------------------------------------

  Final fractional coordinates of atoms :

--------------------------------------------------------------------------------
   No.  Atomic        x           y          z          Radius
        Label       (Frac)      (Frac)     (Frac)       (Angs) 
--------------------------------------------------------------------------------
     1  Si    c     0.699600    0.375700    0.033890    0.000000
     2  Si    c     0.627675    0.319925    0.367170    0.000000
     3  Si    c     0.673837    0.276874    0.699943    0.000000
     4  Si    c     0.290544    0.609111    0.534746    0.000000
     5  Si    c     0.383644    0.662878    0.868206    0.000000
     6  Si    c     0.333113    0.703764    0.199103    0.000000
     7  Si    c     0.387089    0.701422    0.299709    0.000000
     8  Si    c     0.325984    0.614087    0.970198    0.000000
     9  Si    c     0.293574    0.658182    0.635413    0.000000
    10  Si    c     0.621251    0.280356    0.800166    0.000000
    11  Si    c     0.683207    0.369643    0.469337    0.000000
    12  Si    c     0.711566    0.327006    0.135284    0.000000
    13  Ge    c     0.529572    0.422378    0.966703    0.000000
    14  Si    c     0.588671    0.109473    0.301464    0.000000
    15  Si    c     0.884757    0.449557    0.636155    0.000000
    16  Si    c     0.469941    0.584812    0.469290    0.000000
    17  Si    c     0.419500    0.870805    0.801576    0.000000
    18  Si    c     0.121174    0.533191    0.134200    0.000000
    19  Si    c     0.421500    0.528515    0.365787    0.000000
    20  Si    c     0.113593    0.579972    0.033161    0.000000
    21  Si    c     0.468404    0.866820    0.700417    0.000000
    22  Si    c     0.594480    0.452665    0.867873    0.000000
    23  Si    c     0.881821    0.398174    0.535137    0.000000
    24  Si    c     0.540482    0.115953    0.200110    0.000000
    25  Si    c     0.307672    0.380516    0.854777    0.000000
    26  Si    c     0.611515    0.905912    0.185567    0.000000
    27  Si    c     0.085853    0.681519    0.520286    0.000000
    28  Si    c     0.706372    0.601550    0.348525    0.000000
    29  Si    c     0.395709    0.075702    0.686101    0.000000
    30  Si    c     0.903595    0.299694    0.019882    0.000000
    31  Si    c     0.402738    0.300071    0.485157    0.000000
    32  Si    c     0.913749    0.605260    0.148999    0.000000
    33  Si    c     0.698710    0.079167    0.815444    0.000000
    34  Si    c     0.608510    0.695518    0.988935    0.000000
    35  Si    c     0.094766    0.378946    0.649624    0.000000
    36  Si    c     0.308891    0.901806    0.314751    0.000000
    37  Si    c     0.250896    0.325294    0.956766    0.000000
    38  Si    c     0.667912    0.909878    0.286133    0.000000
    39  Si    c     0.083649    0.729122    0.621419    0.000000
    40  Ge    c     0.731790    0.634785    0.448232    0.000000
    41  Si    c     0.339966    0.070808    0.786624    0.000000
    42  Si    c     0.919673    0.254720    0.120157    0.000000
    43  Si    c     0.340819    0.246311    0.383565    0.000000
    44  Si    c     0.913401    0.657767    0.048300    0.000000
    45  Si    c     0.747285    0.068345    0.715182    0.000000
    46  Si    c     0.668406    0.733741    0.886083    0.000000
    47  Si    c     0.086683    0.326623    0.548989    0.000000
    48  Si    c     0.261680    0.913782    0.214294    0.000000
    49  Si    c     0.965932    0.117077    0.969240    0.000000
    50  Si    c     0.885806    0.847674    0.299778    0.000000
    51  Si    c     0.146076    0.008205    0.637252    0.000000
    52  Si    c     0.017822    0.857928    0.465952    0.000000
    53  Si    c     0.123063    0.134048    0.803374    0.000000
    54  Si    c     0.860216    0.975925    0.135849    0.000000
    55  Si    c     0.125529    0.962487    0.366943    0.000000
    56  Si    c     0.854506    0.879948    0.035753    0.000000
    57  Si    c     0.027997    0.132822    0.702300    0.000000
    58  Si    c     0.880398    0.016241    0.868431    0.000000
    59  Ge    c     0.150410    0.107070    0.533797    0.000000
    60  Si    c     0.983158    0.853829    0.199840    0.000000
    61  O2    c     0.930974    0.997906    0.001907    0.000000
    62  O2    c     0.004568    0.922556    0.334110    0.000000
    63  O2    c     0.071314    0.050538    0.672081    0.000000
    64  O3    c     0.070291    0.982986    0.497797    0.000000
    65  O2    c     0.004283    0.056024    0.837223    0.000000
    66  O2    c     0.940904    0.935695    0.168576    0.000000
    67  O2    c     0.346679    0.577049    0.332395    0.000000
    68  O2    c     0.417408    0.741174    0.668160    0.000000
    69  O2    c     0.238691    0.653708    0.000105    0.000000
    70  O2    c     0.663831    0.407956    0.830608    0.000000
    71  O2    c     0.589985    0.242704    0.168566    0.000000
    72  O2    c     0.757456    0.318329    0.502349    0.000000
    73  O3    c     0.579512    0.336716    0.003005    0.000000
    74  O2    c     0.759002    0.400638    0.668051    0.000000
    75  O2    c     0.662668    0.233689    0.334720    0.000000
    76  O2    c     0.409843    0.652469    0.500375    0.000000
    77  O2    c     0.248326    0.582178    0.166045    0.000000
    78  O2    c     0.346124    0.745393    0.834562    0.000000
    79  O2    c     0.117851    0.208368    0.975212    0.000000
    80  O2    c     0.795357    0.911602    0.305858    0.000000
    81  O2    c     0.083113    0.853685    0.642837    0.000000
    82  O3    c     0.868843    0.777474    0.469729    0.000000
    83  O2    c     0.212897    0.068893    0.806668    0.000000
    84  O2    c     0.921534    0.129776    0.140970    0.000000
    85  O2    c     0.217051    0.118909    0.363673    0.000000
    86  O2    c     0.911332    0.783934    0.028637    0.000000
    87  O2    c     0.873919    0.068576    0.695825    0.000000
    88  O2    c     0.791031    0.861083    0.865115    0.000000
    89  O3    c     0.084533    0.204859    0.526363    0.000000
    90  O2    c     0.136841    0.915740    0.193889    0.000000
    91  O2    c     0.946378    0.868742    0.250440    0.000000
    92  O3    c     0.127870    0.047332    0.587869    0.000000
    93  O2    c     0.928361    0.062837    0.918786    0.000000
    94  O2    c     0.066056    0.125203    0.753767    0.000000
    95  O2    c     0.876129    0.935351    0.085966    0.000000
    96  O2    c     0.075397    0.917208    0.416794    0.000000
    97  O2    c     0.896025    0.198469    0.981328    0.000000
    98  O2    c     0.797224    0.693388    0.307434    0.000000
    99  O2    c     0.298986    0.076780    0.647768    0.000000
   100  O2    c     0.085402    0.774344    0.480903    0.000000
   101  O2    c     0.209897    0.285113    0.816232    0.000000
   102  O2    c     0.708482    0.905121    0.147520    0.000000
   103  O2    c     0.210393    0.897723    0.352985    0.000000
   104  O2    c     0.702073    0.806973    0.024629    0.000000
   105  O2    c     0.097536    0.283038    0.688241    0.000000
   106  O2    c     0.798274    0.083219    0.853536    0.000000
   107  O3    c     0.314138    0.203402    0.523804    0.000000
   108  O2    c     0.912781    0.702625    0.187199    0.000000
   109  O2    c     0.331312    0.645330    0.249356    0.000000
   110  O2    c     0.350661    0.661628    0.585108    0.000000
   111  O2    c     0.329303    0.662306    0.918336    0.000000
   112  O2    c     0.676321    0.334758    0.749907    0.000000
   113  O2    c     0.652864    0.326289    0.085823    0.000000
   114  O2    c     0.683911    0.321327    0.417424    0.000000
   115  O3    c     0.362876    0.306886    0.976583    0.000000
   116  O2    c     0.676217    0.040970    0.305482    0.000000
   117  O2    c     0.953571    0.605647    0.640303    0.000000
   118  O3    c     0.621342    0.674551    0.473412    0.000000
   119  O2    c     0.331711    0.939028    0.805544    0.000000
   120  O2    c     0.052724    0.376903    0.138291    0.000000
   121  O2    c     0.336517    0.371531    0.364862    0.000000
   122  O2    c     0.046662    0.669247    0.029748    0.000000
   123  O2    c     0.624523    0.934607    0.697693    0.000000
   124  O2    c     0.677963    0.611535    0.867593    0.000000
   125  O2    c     0.951354    0.312481    0.532709    0.000000
   126  O2    c     0.384469    0.047296    0.197178    0.000000
   127  O2    c     0.770805    0.300245    0.013703    0.000000
   128  O2    c     0.699755    0.462344    0.344344    0.000000
   129  O2    c     0.529830    0.209179    0.678325    0.000000
   130  O2    c     0.221440    0.684690    0.514156    0.000000
   131  O2    c     0.312138    0.517241    0.848520    0.000000
   132  O2    c     0.477196    0.772413    0.177823    0.000000
   133  O2    c     0.312062    0.769092    0.322267    0.000000
   134  O2    c     0.470538    0.691555    0.990753    0.000000
   135  O2    c     0.226577    0.514786    0.657917    0.000000
   136  O2    c     0.695338    0.211476    0.823077    0.000000
   137  O2    c     0.536829    0.299697    0.488366    0.000000
   138  O2    c     0.781906    0.470376    0.157755    0.000000
   139  O2    c     0.789101    0.532396    0.028649    0.000000
   140  O2    c     0.472579    0.255040    0.367080    0.000000
   141  O2    c     0.745526    0.192719    0.694970    0.000000
   142  O2    c     0.211573    0.453381    0.529374    0.000000
   143  O2    c     0.537812    0.725859    0.867697    0.000000
   144  O2    c     0.261986    0.788485    0.194512    0.000000
   145  O2    c     0.543082    0.781626    0.305128    0.000000
   146  O2    c     0.261198    0.459616    0.973806    0.000000
   147  O2    c     0.212255    0.732861    0.640132    0.000000
   148  O2    c     0.465116    0.198973    0.805515    0.000000
   149  O3    c     0.763194    0.522130    0.476241    0.000000
   150  O2    c     0.793504    0.252737    0.139909    0.000000
   151  O2    c     0.240547    0.312665    0.901756    0.000000
   152  O2    c     0.685639    0.909935    0.231996    0.000000
   153  O2    c     0.081299    0.749540    0.567310    0.000000
   154  O3    c     0.784344    0.682761    0.391551    0.000000
   155  O2    c     0.321706    0.071218    0.732468    0.000000
   156  O2    c     0.914601    0.232189    0.066083    0.000000
   157  O2    c     0.328062    0.236699    0.437853    0.000000
   158  O2    c     0.914035    0.677130    0.102506    0.000000
   159  O2    c     0.767995    0.073759    0.769330    0.000000
   160  O2    c     0.680885    0.750615    0.940144    0.000000
   161  O2    c     0.094237    0.306393    0.603214    0.000000
   162  O2    c     0.239807    0.907731    0.268395    0.000000
   163  O3    c     0.599893    0.564225    0.002311    0.000000
   164  O2    c     0.446961    0.028920    0.324210    0.000000
   165  O2    c     0.967024    0.388881    0.658507    0.000000
   166  O2    c     0.421772    0.442180    0.491394    0.000000
   167  O2    c     0.560961    0.951572    0.824749    0.000000
   168  O2    c     0.041058    0.594150    0.157716    0.000000
   169  O2    c     0.562145    0.580704    0.343605    0.000000
   170  O2    c     0.030037    0.438450    0.009992    0.000000
   171  O2    c     0.411435    0.951263    0.677468    0.000000
   172  O2    c     0.448723    0.399503    0.847931    0.000000
   173  O2    c     0.964934    0.539305    0.512399    0.000000
   174  O2    c     0.596565    0.031064    0.177118    0.000000
   175  O2    c     0.592678    0.166696    0.251196    0.000000
   176  O2    c     0.828659    0.398165    0.585673    0.000000
   177  O3    c     0.600632    0.398526    0.916145    0.000000
   178  O2    c     0.415871    0.814252    0.751292    0.000000
   179  O2    c     0.173366    0.584297    0.083201    0.000000
   180  O2    c     0.421586    0.579190    0.416708    0.000000
   181  F     c     0.462350    0.905834    0.251643    0.000000
   182  F     c     0.091329    0.528321    0.586702    0.000000
   183  F     c     0.476095    0.513259    0.929116    0.000000
   184  F     c     0.545262    0.074217    0.751832    0.000000
   185  F     c     0.917820    0.456432    0.085269    0.000000
   186  F     c     0.586277    0.486438    0.422395    0.000000
   187  O2    s     0.926192    0.998036    0.002036    0.000000
   188  O2    s     0.004911    0.918755    0.333959    0.000000
   189  O2    s     0.074631    0.055188    0.671675    0.000000
   190  O3    s     0.072581    0.982109    0.497994    0.000000
   191  O2    s     0.003814    0.060255    0.836907    0.000000
   192  O2    s     0.936580    0.930982    0.168417    0.000000
   193  O2    s     0.358515    0.584492    0.332563    0.000000
   194  O2    s     0.410136    0.745818    0.668179    0.000000
   195  O2    s     0.235507    0.642192    0.000207    0.000000
   196  O2    s     0.652352    0.399267    0.831225    0.000000
   197  O2    s     0.597140    0.237998    0.168485    0.000000
   198  O2    s     0.762546    0.331491    0.502340    0.000000
   199  O3    s     0.589326    0.346948    0.003905    0.000000
   200  O2    s     0.763002    0.392661    0.668124    0.000000
   201  O2    s     0.651365    0.230189    0.334795    0.000000
   202  O2    s     0.403671    0.640768    0.500703    0.000000
   203  O2    s     0.244295    0.589891    0.166276    0.000000
   204  O2    s     0.357524    0.749232    0.834836    0.000000
   205  O2    s     0.115404    0.211024    0.972518    0.000000
   206  O2    s     0.791649    0.904723    0.303211    0.000000
   207  O2    s     0.089791    0.857042    0.640057    0.000000
   208  O3    s     0.876652    0.777066    0.467875    0.000000
   209  O2    s     0.216414    0.075978    0.804291    0.000000
   210  O2    s     0.914738    0.126103    0.138301    0.000000
   211  O2    s     0.220996    0.116707    0.366099    0.000000
   212  O2    s     0.905511    0.781204    0.031378    0.000000
   213  O2    s     0.876989    0.075286    0.698482    0.000000
   214  O2    s     0.787744    0.864264    0.867623    0.000000
   215  O3    s     0.090217    0.209223    0.529276    0.000000
   216  O2    s     0.133568    0.908995    0.196609    0.000000
   217  O2    s     0.943644    0.864659    0.250332    0.000000
   218  O3    s     0.131805    0.048216    0.588597    0.000000
   219  O2    s     0.927072    0.063569    0.918670    0.000000
   220  O2    s     0.068272    0.127030    0.753657    0.000000
   221  O2    s     0.871846    0.933628    0.085894    0.000000
   222  O2    s     0.075146    0.916213    0.416140    0.000000
   223  O2    s     0.904275    0.199826    0.983867    0.000000
   224  O2    s     0.797363    0.700221    0.310665    0.000000
   225  O2    s     0.293098    0.069567    0.650617    0.000000
   226  O2    s     0.078651    0.772777    0.483628    0.000000
   227  O2    s     0.210861    0.279059    0.818862    0.000000
   228  O2    s     0.714530    0.912667    0.150193    0.000000
   229  O2    s     0.211553    0.905100    0.350497    0.000000
   230  O2    s     0.708567    0.803386    0.022187    0.000000
   231  O2    s     0.089818    0.276695    0.685830    0.000000
   232  O2    s     0.796797    0.075544    0.851171    0.000000
   233  O3    s     0.310146    0.205498    0.520737    0.000000
   234  O2    s     0.920425    0.708935    0.184676    0.000000
   235  O2    s     0.337201    0.656953    0.249447    0.000000
   236  O2    s     0.338779    0.655957    0.585158    0.000000
   237  O2    s     0.334654    0.657495    0.918340    0.000000
   238  O2    s     0.670305    0.323033    0.749955    0.000000
   239  O2    s     0.663715    0.331255    0.085954    0.000000
   240  O2    s     0.678049    0.325975    0.417324    0.000000
   241  O3    s     0.361996    0.316590    0.973761    0.000000
   242  O2    s     0.666302    0.034435    0.303053    0.000000
   243  O2    s     0.960139    0.602465    0.637882    0.000000
   244  O3    s     0.613342    0.662408    0.471193    0.000000
   245  O2    s     0.341612    0.945605    0.803174    0.000000
   246  O2    s     0.045863    0.380229    0.135964    0.000000
   247  O2    s     0.345579    0.374352    0.366914    0.000000
   248  O2    s     0.040015    0.658934    0.031990    0.000000
   249  O2    s     0.621350    0.941587    0.699803    0.000000
   250  O2    s     0.668919    0.609111    0.869580    0.000000
   251  O2    s     0.958291    0.323202    0.534734    0.000000
   252  O2    s     0.387630    0.040336    0.199293    0.000000
   253  O2    s     0.778382    0.307704    0.016434    0.000000
   254  O2    s     0.692936    0.461690    0.347170    0.000000
   255  O2    s     0.530570    0.202116    0.681404    0.000000
   256  O2    s     0.214419    0.676365    0.517036    0.000000
   257  O2    s     0.319188    0.518235    0.851256    0.000000
   258  O2    s     0.476506    0.779393    0.180861    0.000000
   259  O2    s     0.319494    0.776075    0.319113    0.000000
   260  O2    s     0.469301    0.683842    0.988385    0.000000
   261  O2    s     0.219605    0.515226    0.654711    0.000000
   262  O2    s     0.688060    0.204515    0.819887    0.000000
   263  O2    s     0.537600    0.307003    0.486014    0.000000
   264  O2    s     0.788601    0.469886    0.154502    0.000000
   265  O2    s     0.794169    0.530670    0.031321    0.000000
   266  O2    s     0.474582    0.261025    0.368885    0.000000
   267  O2    s     0.738116    0.187842    0.697662    0.000000
   268  O2    s     0.206475    0.456227    0.532028    0.000000
   269  O2    s     0.535160    0.719824    0.869718    0.000000
   270  O2    s     0.269545    0.793369    0.197133    0.000000
   271  O2    s     0.540286    0.787107    0.302575    0.000000
   272  O2    s     0.267344    0.462651    0.971679    0.000000
   273  O2    s     0.206837    0.724548    0.637646    0.000000
   274  O2    s     0.467670    0.193462    0.802971    0.000000
   275  O3    s     0.752562    0.514724    0.473521    0.000000
   276  O2    s     0.798737    0.260766    0.137318    0.000000
   277  O2    s     0.248885    0.321282    0.902197    0.000000
   278  O2    s     0.675967    0.909512    0.232890    0.000000
   279  O2    s     0.082028    0.740493    0.568163    0.000000
   280  O3    s     0.772641    0.671027    0.391061    0.000000
   281  O2    s     0.331352    0.071630    0.733414    0.000000
   282  O2    s     0.914024    0.241558    0.067001    0.000000
   283  O2    s     0.336911    0.244123    0.436861    0.000000
   284  O2    s     0.913955    0.667528    0.101703    0.000000
   285  O2    s     0.758447    0.073747    0.768433    0.000000
   286  O2    s     0.672513    0.743383    0.938999    0.000000
   287  O2    s     0.093586    0.315933    0.602516    0.000000
   288  O2    s     0.249416    0.907739    0.267565    0.000000
   289  O3    s     0.595987    0.569204    0.998519    0.000000
   290  O2    s     0.446970    0.023630    0.320835    0.000000
   291  O2    s     0.972262    0.394276    0.655237    0.000000
   292  O2    s     0.424628    0.440870    0.488525    0.000000
   293  O2    s     0.560841    0.956815    0.821345    0.000000
   294  O2    s     0.035615    0.588863    0.154348    0.000000
   295  O2    s     0.562250    0.577197    0.346483    0.000000
   296  O2    s     0.025277    0.438512    0.013427    0.000000
   297  O2    s     0.415907    0.956051    0.680826    0.000000
   298  O2    s     0.447521    0.402791    0.850681    0.000000
   299  O2    s     0.969535    0.539812    0.515708    0.000000
   300  O2    s     0.592139    0.026250    0.180441    0.000000
   301  O2    s     0.586895    0.155500    0.251193    0.000000
   302  O2    s     0.840016    0.403533    0.585694    0.000000
   303  O3    s     0.595398    0.405813    0.914308    0.000000
   304  O2    s     0.421621    0.825528    0.751331    0.000000
   305  O2    s     0.161866    0.578601    0.083296    0.000000
   306  O2    s     0.426312    0.574447    0.416516    0.000000
   307  F     s     0.462326    0.905635    0.251810    0.000000
   308  F     s     0.091718    0.528257    0.586842    0.000000
   309  F     s     0.479992    0.507049    0.931699    0.000000
   310  F     s     0.545264    0.074299    0.751954    0.000000
   311  F     s     0.918466    0.456681    0.085387    0.000000
   312  F     s     0.595280    0.495393    0.423903    0.000000
--------------------------------------------------------------------------------

  Final Cartesian lattice vectors (Angstroms) :

       11.985965    0.000532    0.001805
       -5.969556   10.354862   -0.006311
       -0.131265    0.017858   29.541973


  Final cell parameters and derivatives :

--------------------------------------------------------------------------------
       a           11.985966 Angstrom     dE/de1(xx)    -0.000431 eV/strain
       b           11.952356 Angstrom     dE/de2(yy)    -0.000095 eV/strain
       c           29.542270 Angstrom     dE/de3(zz)     0.001562 eV/strain
       alpha       89.873098 Degrees      dE/de4(yz)     0.000026 eV/strain
       beta        90.245954 Degrees      dE/de5(xz)     0.000018 eV/strain
       gamma      119.960816 Degrees      dE/de6(xy)     0.000112 eV/strain
--------------------------------------------------------------------------------

  Primitive cell volume =          3666.640840 Angs**3

  Density of cell =      1.744947 g/cm**3

  Non-primitive cell volume =          3666.640840 Angs**3


  Final internal derivatives :

--------------------------------------------------------------------------------
   No.  Atomic          a             b             c           Radius
        Label          (eV)          (eV)          (eV)        (eV/Angs)
--------------------------------------------------------------------------------
      1 Si    c       0.000000      0.000000      0.000000      0.000000
      2 Si    c      -0.000120      0.000259     -0.000118      0.000000
      3 Si    c       0.000060     -0.000096     -0.000322      0.000000
      4 Si    c      -0.000410     -0.000291      0.000321      0.000000
      5 Si    c       0.000040      0.000152     -0.000734      0.000000
      6 Si    c      -0.000035      0.000022     -0.000280      0.000000
      7 Si    c       0.000130     -0.000006      0.000609      0.000000
      8 Si    c       0.000074     -0.000130      0.000360      0.000000
      9 Si    c       0.000055     -0.000179     -0.000176      0.000000
     10 Si    c      -0.000012     -0.000008      0.001212      0.000000
     11 Si    c      -0.000209      0.000486      0.000703      0.000000
     12 Si    c       0.000730     -0.000315      0.001483      0.000000
     13 Ge    c       0.000127     -0.000170      0.000954      0.000000
     14 Si    c      -0.000017     -0.000018      0.000412      0.000000
     15 Si    c      -0.000175      0.000255     -0.000016      0.000000
     16 Si    c       0.000392     -0.000292     -0.000081      0.000000
     17 Si    c      -0.000087      0.000006      0.001175      0.000000
     18 Si    c      -0.000072     -0.000132      0.000285      0.000000
     19 Si    c       0.000123     -0.000308     -0.000073      0.000000
     20 Si    c      -0.000093     -0.000053     -0.000178      0.000000
     21 Si    c       0.000012      0.000108     -0.000185      0.000000
     22 Si    c      -0.000164      0.000334     -0.000708      0.000000
     23 Si    c       0.000039      0.000173     -0.000877      0.000000
     24 Si    c       0.000006     -0.000239      0.000022      0.000000
     25 Si    c       0.000075      0.000279      0.000435      0.000000
     26 Si    c      -0.000047     -0.000029     -0.000310      0.000000
     27 Si    c      -0.000166     -0.000255     -0.001219      0.000000
     28 Si    c      -0.000130     -0.000082     -0.002100      0.000000
     29 Si    c       0.000104     -0.000060     -0.000100      0.000000
     30 Si    c       0.000007      0.000021     -0.000845      0.000000
     31 Si    c       0.000112      0.000158      0.001331      0.000000
     32 Si    c       0.000191     -0.000123      0.000596      0.000000
     33 Si    c      -0.000368      0.000343     -0.000107      0.000000
     34 Si    c      -0.000459      0.000087      0.000746      0.000000
     35 Si    c       0.000095      0.000002      0.000458      0.000000
     36 Si    c       0.000355     -0.000212     -0.000132      0.000000
     37 Si    c      -0.000138     -0.000060      0.000752      0.000000
     38 Si    c      -0.000197      0.000062      0.000212      0.000000
     39 Si    c       0.000063     -0.000244     -0.000261      0.000000
     40 Ge    c      -0.000206     -0.000296      0.001147      0.000000
     41 Si    c       0.000197     -0.000169      0.000269      0.000000
     42 Si    c      -0.000019      0.000207      0.001310      0.000000
     43 Si    c       0.000192      0.000250     -0.000236      0.000000
     44 Si    c       0.000159      0.000190     -0.000710      0.000000
     45 Si    c      -0.000108      0.000126     -0.000184      0.000000
     46 Si    c       0.000108     -0.000221     -0.000519      0.000000
     47 Si    c      -0.000108      0.000465     -0.000690      0.000000
     48 Si    c       0.000118     -0.000058     -0.000341      0.000000
     49 Si    c       0.000173      0.000069      0.001015      0.000000
     50 Si    c      -0.000215     -0.000109      0.000391      0.000000
     51 Si    c       0.000139     -0.000374      0.002822      0.000000
     52 Si    c      -0.000974      0.000345      0.003125      0.000000
     53 Si    c       0.000212     -0.000041     -0.000197      0.000000
     54 Si    c      -0.000141      0.000190      0.001433      0.000000
     55 Si    c      -0.000160      0.000347     -0.002371      0.000000
     56 Si    c       0.000390     -0.000037     -0.001723      0.000000
     57 Si    c      -0.000010     -0.000011     -0.000288      0.000000
     58 Si    c       0.000072     -0.000229      0.000883      0.000000
     59 Ge    c      -0.000343      0.000189     -0.002302      0.000000
     60 Si    c       0.000091     -0.000149     -0.000911      0.000000
     61 O2    c      -0.000902     -0.000149      0.001532      0.000000
     62 O2    c       0.000268      0.000029      0.000649      0.000000
     63 O2    c       0.000104     -0.000025     -0.000195      0.000000
     64 O3    c      -0.000389     -0.000437     -0.002550      0.000000
     65 O2    c      -0.000127     -0.000050      0.000309      0.000000
     66 O2    c       0.000083      0.000049      0.000077      0.000000
     67 O2    c      -0.000283      0.000296     -0.000545      0.000000
     68 O2    c      -0.000005     -0.000098     -0.000205      0.000000
     69 O2    c       0.000078     -0.000027     -0.000273      0.000000
     70 O2    c       0.000228     -0.000305     -0.000662      0.000000
     71 O2    c      -0.000076      0.000100      0.000011      0.000000
     72 O2    c       0.000381     -0.000217      0.000899      0.000000
     73 O3    c       0.000033     -0.000149      0.001454      0.000000
     74 O2    c       0.000027     -0.000021     -0.000048      0.000000
     75 O2    c       0.000150     -0.000244     -0.000448      0.000000
     76 O2    c       0.000066      0.000180     -0.000397      0.000000
     77 O2    c       0.000022      0.000009     -0.000044      0.000000
     78 O2    c       0.000139     -0.000054     -0.000011      0.000000
     79 O2    c      -0.000164     -0.000036     -0.000348      0.000000
     80 O2    c       0.000019     -0.000014      0.000108      0.000000
     81 O2    c      -0.000042      0.000161      0.000204      0.000000
     82 O3    c       0.002455     -0.000222     -0.000840      0.000000
     83 O2    c      -0.000086      0.000072      0.000059      0.000000
     84 O2    c      -0.000001      0.000099     -0.000217      0.000000
     85 O2    c      -0.000087      0.000028     -0.000560      0.000000
     86 O2    c      -0.000307      0.000467      0.000049      0.000000
     87 O2    c       0.000062     -0.000014      0.000061      0.000000
     88 O2    c       0.000062      0.000174      0.000168      0.000000
     89 O3    c       0.000749     -0.000866     -0.000058      0.000000
     90 O2    c       0.000006      0.000011      0.000007      0.000000
     91 O2    c      -0.000021      0.000051      0.000418      0.000000
     92 O3    c      -0.000463      0.000514     -0.002009      0.000000
     93 O2    c      -0.000312      0.000036     -0.002662      0.000000
     94 O2    c      -0.000044      0.000003     -0.000115      0.000000
     95 O2    c       0.000090     -0.000337     -0.000861      0.000000
     96 O2    c      -0.000102     -0.000432      0.002019      0.000000
     97 O2    c       0.000047     -0.000109     -0.000057      0.000000
     98 O2    c      -0.000026     -0.000017      0.000062      0.000000
     99 O2    c       0.000030      0.000023      0.000083      0.000000
    100 O2    c      -0.000653      0.000319     -0.000045      0.000000
    101 O2    c      -0.000054     -0.000064     -0.000350      0.000000
    102 O2    c      -0.000019      0.000054      0.000026      0.000000
    103 O2    c       0.000203     -0.000234      0.000060      0.000000
    104 O2    c       0.000246     -0.000088      0.000492      0.000000
    105 O2    c       0.000002      0.000074     -0.000032      0.000000
    106 O2    c       0.000323     -0.000230      0.000205      0.000000
    107 O3    c       0.000259      0.000286     -0.000676      0.000000
    108 O2    c      -0.000025      0.000148      0.000255      0.000000
    109 O2    c      -0.000060     -0.000055     -0.000602      0.000000
    110 O2    c       0.000074      0.000047      0.000962      0.000000
    111 O2    c      -0.000100      0.000007      0.000807      0.000000
    112 O2    c       0.000071      0.000151     -0.000882      0.000000
    113 O2    c      -0.000471      0.000072      0.000866      0.000000
    114 O2    c       0.000183     -0.000125     -0.001010      0.000000
    115 O3    c      -0.000350      0.000102     -0.000096      0.000000
    116 O2    c       0.000061     -0.000077     -0.000019      0.000000
    117 O2    c      -0.000007     -0.000030     -0.000065      0.000000
    118 O3    c       0.000110     -0.000118      0.000047      0.000000
    119 O2    c       0.000023      0.000034     -0.000037      0.000000
    120 O2    c      -0.000011      0.000040     -0.000076      0.000000
    121 O2    c       0.000020      0.000015     -0.000022      0.000000
    122 O2    c       0.000082     -0.000007     -0.000142      0.000000
    123 O2    c       0.000019      0.000007      0.000053      0.000000
    124 O2    c      -0.000019      0.000055      0.000240      0.000000
    125 O2    c       0.000121     -0.000035     -0.000139      0.000000
    126 O2    c       0.000014     -0.000043      0.000029      0.000000
    127 O2    c      -0.000323      0.000091      0.000132      0.000000
    128 O2    c      -0.000013     -0.000083      0.000078      0.000000
    129 O2    c      -0.000009      0.000008     -0.000014      0.000000
    130 O2    c       0.000452     -0.000287     -0.000056      0.000000
    131 O2    c       0.000273     -0.000523      0.000036      0.000000
    132 O2    c       0.000015      0.000024     -0.000037      0.000000
    133 O2    c      -0.000057      0.000081      0.000016      0.000000
    134 O2    c       0.001002     -0.000465      0.000198      0.000000
    135 O2    c       0.000049      0.000093     -0.000053      0.000000
    136 O2    c       0.000017     -0.000072     -0.000039      0.000000
    137 O2    c       0.000160     -0.000014     -0.000059      0.000000
    138 O2    c      -0.000024     -0.000110      0.000123      0.000000
    139 O2    c      -0.000554      0.000418     -0.000256      0.000000
    140 O2    c      -0.000050      0.000010     -0.000009      0.000000
    141 O2    c       0.000023     -0.000062      0.000154      0.000000
    142 O2    c      -0.000024     -0.000066      0.000254      0.000000
    143 O2    c      -0.000329      0.000007     -0.000052      0.000000
    144 O2    c      -0.000055      0.000059     -0.000024      0.000000
    145 O2    c       0.000011     -0.000034     -0.000005      0.000000
    146 O2    c       0.000039      0.000154     -0.000024      0.000000
    147 O2    c      -0.000125      0.000093     -0.000066      0.000000
    148 O2    c      -0.000039     -0.000013      0.000083      0.000000
    149 O3    c       0.000109     -0.000022     -0.000193      0.000000
    150 O2    c      -0.000104      0.000110     -0.000086      0.000000
    151 O2    c       0.000099      0.000034     -0.001976      0.000000
    152 O2    c       0.000072     -0.000050      0.000051      0.000000
    153 O2    c      -0.000117      0.000310      0.001694      0.000000
    154 O3    c       0.000394      0.000809      0.000275      0.000000
    155 O2    c      -0.000066      0.000066     -0.000101      0.000000
    156 O2    c       0.000093     -0.000203     -0.000968      0.000000
    157 O2    c      -0.000146     -0.000123     -0.000899      0.000000
    158 O2    c      -0.000071      0.000120      0.000413      0.000000
    159 O2    c       0.000114     -0.000063     -0.000221      0.000000
    160 O2    c      -0.000143      0.000082      0.001293      0.000000
    161 O2    c       0.000129     -0.000138     -0.000228      0.000000
    162 O2    c      -0.000085      0.000050      0.000057      0.000000
    163 O3    c      -0.000072      0.000326     -0.000232      0.000000
    164 O2    c      -0.000054     -0.000038      0.000002      0.000000
    165 O2    c       0.000100     -0.000130      0.000194      0.000000
    166 O2    c      -0.000041      0.000103     -0.000107      0.000000
    167 O2    c      -0.000082      0.000012     -0.000047      0.000000
    168 O2    c      -0.000121      0.000084      0.000075      0.000000
    169 O2    c       0.000091     -0.000025     -0.000079      0.000000
    170 O2    c      -0.000017     -0.000038     -0.000087      0.000000
    171 O2    c      -0.000010      0.000039      0.000060      0.000000
    172 O2    c      -0.000309      0.000157      0.000115      0.000000
    173 O2    c      -0.000050     -0.000061      0.000209      0.000000
    174 O2    c      -0.000060      0.000132     -0.000071      0.000000
    175 O2    c      -0.000025      0.000101     -0.000336      0.000000
    176 O2    c      -0.000103      0.000078      0.000463      0.000000
    177 O3    c       0.000196     -0.000273      0.000255      0.000000
    178 O2    c       0.000093     -0.000214     -0.000831      0.000000
    179 O2    c       0.000160     -0.000018      0.000147      0.000000
    180 O2    c      -0.000138      0.000183      0.000298      0.000000
    181 F     c       0.000058     -0.000063      0.000156      0.000000
    182 F     c      -0.000049      0.000089     -0.000657      0.000000
    183 F     c      -0.000041      0.000281     -0.000500      0.000000
    184 F     c      -0.000036      0.000080      0.000482      0.000000
    185 F     c      -0.000046     -0.000058     -0.000264      0.000000
    186 F     c       0.000091     -0.000142      0.000310      0.000000
    187 O2    s      -0.000160      0.000041     -0.000307      0.000000
    188 O2    s      -0.000187      0.000054     -0.000301      0.000000
    189 O2    s      -0.000133     -0.000048      0.000137      0.000000
    190 O3    s       0.000284     -0.000444      0.000926      0.000000
    191 O2    s      -0.000017     -0.000049      0.000523      0.000000
    192 O2    s       0.000129      0.000143     -0.000032      0.000000
    193 O2    s       0.000198     -0.000155     -0.000015      0.000000
    194 O2    s      -0.000017      0.000071      0.000042      0.000000
    195 O2    s       0.000085     -0.000052     -0.000122      0.000000
    196 O2    s      -0.000137      0.000124      0.000163      0.000000
    197 O2    s      -0.000018     -0.000028      0.000079      0.000000
    198 O2    s      -0.000048     -0.000295     -0.000021      0.000000
    199 O3    s       0.000194     -0.000416     -0.001128      0.000000
    200 O2    s       0.000051     -0.000027      0.000057      0.000000
    201 O2    s      -0.000114      0.000086      0.000144      0.000000
    202 O2    s       0.000024     -0.000001      0.000066      0.000000
    203 O2    s       0.000033      0.000027      0.000081      0.000000
    204 O2    s       0.000040     -0.000024      0.000244      0.000000
    205 O2    s       0.000006      0.000108      0.000735      0.000000
    206 O2    s      -0.000035      0.000056     -0.000204      0.000000
    207 O2    s      -0.000128     -0.000064     -0.000308      0.000000
    208 O3    s      -0.000100     -0.000149      0.001005      0.000000
    209 O2    s      -0.000002     -0.000009     -0.000093      0.000000
    210 O2    s       0.000135     -0.000195      0.000068      0.000000
    211 O2    s      -0.000145      0.000281      0.000832      0.000000
    212 O2    s      -0.000287      0.000336      0.000005      0.000000
    213 O2    s      -0.000023     -0.000029     -0.000177      0.000000
    214 O2    s      -0.000046      0.000260      0.000202      0.000000
    215 O3    s      -0.000134      0.000113      0.000300      0.000000
    216 O2    s      -0.000003      0.000037     -0.000056      0.000000
    217 O2    s      -0.000050     -0.000069     -0.000436      0.000000
    218 O3    s       0.000348     -0.000270      0.000262      0.000000
    219 O2    s       0.000086     -0.000172      0.000893      0.000000
    220 O2    s       0.000105     -0.000069     -0.000131      0.000000
    221 O2    s      -0.000118      0.000123     -0.000755      0.000000
    222 O2    s       0.000025     -0.000030      0.001126      0.000000
    223 O2    s       0.000179     -0.000053     -0.000114      0.000000
    224 O2    s       0.000052      0.000033     -0.000230      0.000000
    225 O2    s       0.000027      0.000031     -0.000212      0.000000
    226 O2    s      -0.000650      0.001234      0.000085      0.000000
    227 O2    s       0.000116      0.000144      0.000311      0.000000
    228 O2    s      -0.000001     -0.000082     -0.000243      0.000000
    229 O2    s       0.000127     -0.000089     -0.000370      0.000000
    230 O2    s       0.000594     -0.000292     -0.000543      0.000000
    231 O2    s      -0.000045     -0.000018      0.000088      0.000000
    232 O2    s       0.000014     -0.000248      0.000392      0.000000
    233 O3    s      -0.000521     -0.000176      0.000379      0.000000
    234 O2    s      -0.000031     -0.000033      0.000004      0.000000
    235 O2    s       0.000036      0.000126      0.000455      0.000000
    236 O2    s      -0.000011      0.000139      0.000077      0.000000
    237 O2    s       0.000149     -0.000166     -0.000687      0.000000
    238 O2    s      -0.000066     -0.000184      0.000734      0.000000
    239 O2    s       0.000303      0.000041     -0.001194      0.000000
    240 O2    s      -0.000058     -0.000160     -0.000319      0.000000
    241 O3    s       0.000034      0.000141     -0.000040      0.000000
    242 O2    s      -0.000057      0.000067     -0.000051      0.000000
    243 O2    s       0.000080     -0.000011      0.000209      0.000000
    244 O3    s      -0.000085      0.000239     -0.000239      0.000000
    245 O2    s       0.000004     -0.000116     -0.000155      0.000000
    246 O2    s       0.000170     -0.000150      0.000244      0.000000
    247 O2    s       0.000015     -0.000132     -0.000007      0.000000
    248 O2    s      -0.000129      0.000075      0.000174      0.000000
    249 O2    s       0.000003      0.000014     -0.000065      0.000000
    250 O2    s       0.000068     -0.000019     -0.000350      0.000000
    251 O2    s      -0.000071     -0.000140      0.000651      0.000000
    252 O2    s      -0.000054      0.000057      0.000003      0.000000
    253 O2    s      -0.000301      0.000507      0.000665      0.000000
    254 O2    s       0.000050      0.000088     -0.000014      0.000000
    255 O2    s       0.000016     -0.000003      0.000078      0.000000
    256 O2    s      -0.000219      0.000247      0.000167      0.000000
    257 O2    s       0.000042      0.000007      0.000514      0.000000
    258 O2    s       0.000011     -0.000001      0.000128      0.000000
    259 O2    s       0.000039     -0.000082     -0.000165      0.000000
    260 O2    s       0.000089     -0.000166     -0.000662      0.000000
    261 O2    s      -0.000024      0.000026      0.000202      0.000000
    262 O2    s      -0.000087      0.000227     -0.000138      0.000000
    263 O2    s      -0.000198     -0.000015      0.000009      0.000000
    264 O2    s      -0.000066      0.000136     -0.000073      0.000000
    265 O2    s       0.000593     -0.000755      0.000665      0.000000
    266 O2    s      -0.000048      0.000026     -0.000016      0.000000
    267 O2    s      -0.000000      0.000044     -0.000166      0.000000
    268 O2    s       0.000063     -0.000144     -0.000611      0.000000
    269 O2    s       0.000022      0.000056     -0.000079      0.000000
    270 O2    s       0.000008      0.000000      0.000151      0.000000
    271 O2    s      -0.000081      0.000035     -0.000011      0.000000
    272 O2    s      -0.000024     -0.000121     -0.000373      0.000000
    273 O2    s      -0.000014      0.000010      0.000057      0.000000
    274 O2    s       0.000096      0.000109     -0.000240      0.000000
    275 O3    s      -0.000130      0.000361      0.000733      0.000000
    276 O2    s      -0.000056     -0.000142      0.000023      0.000000
    277 O2    s       0.000079      0.000248      0.000319      0.000000
    278 O2    s      -0.000074      0.000066     -0.000248      0.000000
    279 O2    s       0.000056     -0.000097     -0.000563      0.000000
    280 O3    s      -0.000229     -0.000867      0.000447      0.000000
    281 O2    s       0.000024     -0.000066     -0.000008      0.000000
    282 O2    s      -0.000133      0.000106      0.000101      0.000000
    283 O2    s      -0.000026     -0.000009     -0.000064      0.000000
    284 O2    s       0.000161     -0.000267     -0.000357      0.000000
    285 O2    s      -0.000005     -0.000009     -0.000022      0.000000
    286 O2    s      -0.000125     -0.000243      0.000712      0.000000
    287 O2    s      -0.000209      0.000075     -0.000078      0.000000
    288 O2    s       0.000020     -0.000023     -0.000020      0.000000
    289 O3    s      -0.000728      0.000824     -0.001470      0.000000
    290 O2    s       0.000006      0.000068     -0.000033      0.000000
    291 O2    s      -0.000103      0.000117     -0.000282      0.000000
    292 O2    s      -0.000026     -0.000040      0.000102      0.000000
    293 O2    s       0.000088     -0.000170      0.000087      0.000000
    294 O2    s      -0.000048      0.000166      0.000173      0.000000
    295 O2    s      -0.000003      0.000033      0.000051      0.000000
    296 O2    s       0.000175     -0.000153     -0.000647      0.000000
    297 O2    s      -0.000026      0.000013      0.000014      0.000000
    298 O2    s      -0.000204     -0.000023      0.000377      0.000000
    299 O2    s      -0.000082      0.000221     -0.000549      0.000000
    300 O2    s       0.000051     -0.000132      0.000168      0.000000
    301 O2    s       0.000018     -0.000119      0.000525      0.000000
    302 O2    s       0.000197     -0.000137      0.000032      0.000000
    303 O3    s       0.000089     -0.000124      0.000046      0.000000
    304 O2    s      -0.000117      0.000280      0.000647      0.000000
    305 O2    s       0.000102      0.000059     -0.000240      0.000000
    306 O2    s       0.000117     -0.000140     -0.000060      0.000000
    307 F     s      -0.000101      0.000073     -0.000270      0.000000
    308 F     s       0.000056     -0.000210      0.001374      0.000000
    309 F     s      -0.000379      0.000222      0.000000      0.000000
    310 F     s       0.000038     -0.000155     -0.000790      0.000000
    311 F     s      -0.000082      0.000257      0.000377      0.000000
    312 F     s      -0.000122      0.000402     -0.000312      0.000000
--------------------------------------------------------------------------------
  Maximum abs         0.002455      0.001234      0.003125      0.000000
--------------------------------------------------------------------------------


  Time to end of optimisation =      12.2261 seconds


  Peak dynamic memory used =      19.13 MB 


  Timing analysis for GULP :

--------------------------------------------------------------------------------
  Task / Subroutine                                          Time (Seconds)
--------------------------------------------------------------------------------
  Calculation of reciprocal space energy and derivatives          0.4965
  Calculation of real space energy and derivatives               10.0967
  Calculation of three-body energy and derivatives                1.0972
  Calculation of matrix inversion                                 0.4047
--------------------------------------------------------------------------------
  Total CPU time                                                 12.2262
--------------------------------------------------------------------------------


  Dump file written as out.res                                                 
  CIF file written as out.cif                                                 


  Job Finished at 16:15.54 28th November   2016                               

