********************************************************************************
*                       GENERAL UTILITY LATTICE PROGRAM                        *
*                                 Julian Gale                                  *
*                      Nanochemistry Research Institute                        *
*                           Department of Chemistry                            *
*                    Curtin University, Western Australia                      *
********************************************************************************
* Version = 4.2.0 * Last modified =  20th January 2014                         *
********************************************************************************
*  optimise     - perform optimisation run                                     *
*  conp         - constant pressure calculation                                *
*  qok          - running with non charge neutral cell is OK                   *
********************************************************************************

  Job Started  at 14:06.51 28th November   2016                               

  Number of CPUs =     1


  Total number of configurations input =   1

********************************************************************************
*  Input for Configuration =   1                                               *
********************************************************************************

  Formula = Si57Ge3O120F6                                               

  Number of irreducible atoms/shells =     312


  Total number atoms/shells =     312

  Dimensionality = 3               :  Bulk   


  Charge on solid   =  -6.000000 =>neutralising background added


  Cartesian lattice vectors (Angstroms) :

       11.932933    0.000000    0.000000
       -5.961114   10.395190    0.000000
        0.029446    0.200594   29.512384

  Cell parameters (Angstroms/Degrees):

  a =      11.9329    alpha =  89.6906
  b =      11.9831    beta  =  89.9428
  c =      29.5131    gamma = 119.8321

  Initial cell volume =        3660.866659 Angs**3

  Temperature of configuration =  0.000     K 

  Pressure of configuration =         0.000 GPa 

  Fractional coordinates of asymmetric unit :

--------------------------------------------------------------------------------
   No.  Atomic       x           y          z         Charge      Occupancy
        Label      (Frac)      (Frac)     (Frac)        (e)         (Frac)  
--------------------------------------------------------------------------------
      1 Si    c    0.699600    0.375700    0.033890     4.00000    1.000000    
      2 Si    c    0.620786 *  0.322894 *  0.366417 *   4.00000    1.000000    
      3 Si    c    0.676562 *  0.297396 *  0.698562 *   4.00000    1.000000    
      4 Si    c    0.299019 *  0.623919 *  0.532192 *   4.00000    1.000000    
      5 Si    c    0.384012 *  0.667860 *  0.868259 *   4.00000    1.000000    
      6 Si    c    0.325198 *  0.703445 *  0.199992 *   4.00000    1.000000    
      7 Si    c    0.379441 *  0.703192 *  0.300551 *   4.00000    1.000000    
      8 Si    c    0.324185 *  0.617351 *  0.970258 *   4.00000    1.000000    
      9 Si    c    0.298690 *  0.672741 *  0.633066 *   4.00000    1.000000    
     10 Si    c    0.624189 *  0.301735 *  0.800610 *   4.00000    1.000000    
     11 Si    c    0.674349 *  0.379196 *  0.466619 *   4.00000    1.000000    
     12 Si    c    0.705017 *  0.325385 *  0.135395 *   4.00000    1.000000    
     13 Ge    c    0.534261 *  0.431506 *  0.967538 *   4.00000    1.000000    
     14 Si    c    0.583562 *  0.113142 *  0.301656 *   4.00000    1.000000    
     15 Si    c    0.888238 *  0.465661 *  0.632963 *   4.00000    1.000000    
     16 Si    c    0.468718 *  0.582524 *  0.467190 *   4.00000    1.000000    
     17 Si    c    0.411680 *  0.875543 *  0.801975 *   4.00000    1.000000    
     18 Si    c    0.115052 *  0.532011 *  0.135179 *   4.00000    1.000000    
     19 Si    c    0.416100 *  0.529998 *  0.365762 *   4.00000    1.000000    
     20 Si    c    0.110953 *  0.581202 *  0.034027 *   4.00000    1.000000    
     21 Si    c    0.468152 *  0.880289 *  0.698512 *   4.00000    1.000000    
     22 Si    c    0.603735 *  0.470148 *  0.868905 *   4.00000    1.000000    
     23 Si    c    0.885823 *  0.419641 *  0.531411 *   4.00000    1.000000    
     24 Si    c    0.531861 *  0.114570 *  0.200088 *   4.00000    1.000000    
     25 Si    c    0.313420 *  0.388293 *  0.854661 *   4.00000    1.000000    
     26 Si    c    0.603973 *  0.905648 *  0.185430 *   4.00000    1.000000    
     27 Si    c    0.096660 *  0.701579 *  0.518892 *   4.00000    1.000000    
     28 Si    c    0.698074 *  0.601314 *  0.351744 *   4.00000    1.000000    
     29 Si    c    0.397502 *  0.094247 *  0.679603 *   4.00000    1.000000    
     30 Si    c    0.904323 *  0.300996 *  0.020651 *   4.00000    1.000000    
     31 Si    c    0.396387 *  0.302320 *  0.481842 *   4.00000    1.000000    
     32 Si    c    0.905193 *  0.602825 *  0.149319 *   4.00000    1.000000    
     33 Si    c    0.695555 *  0.090801 *  0.816559 *   4.00000    1.000000    
     34 Si    c    0.608348 *  0.702627 *  0.989056 *   4.00000    1.000000    
     35 Si    c    0.097640 *  0.394112 *  0.646513 *   4.00000    1.000000    
     36 Si    c    0.303081 *  0.904205 *  0.315351 *   4.00000    1.000000    
     37 Si    c    0.253773 *  0.331009 *  0.956677 *   4.00000    1.000000    
     38 Si    c    0.660398 *  0.911631 *  0.286047 *   4.00000    1.000000    
     39 Si    c    0.088615 *  0.744031 *  0.619934 *   4.00000    1.000000    
     40 Si    c    0.747985 *  0.659706 *  0.452091 *   4.00000    1.000000    
     41 Ge    c    0.357211 *  0.086016 *  0.779568 *   4.00000    1.000000    
     42 Si    c    0.915253 *  0.254274 *  0.121204 *   4.00000    1.000000    
     43 Si    c    0.338598 *  0.251293 *  0.381400 *   4.00000    1.000000    
     44 Si    c    0.908929 *  0.658407 *  0.048465 *   4.00000    1.000000    
     45 Si    c    0.748027 *  0.083618 *  0.714715 *   4.00000    1.000000    
     46 Si    c    0.671605 *  0.747531 *  0.886367 *   4.00000    1.000000    
     47 Si    c    0.089149 *  0.342872 *  0.545510 *   4.00000    1.000000    
     48 Si    c    0.253088 *  0.912467 *  0.215015 *   4.00000    1.000000    
     49 Si    c    0.968458 *  0.121169 *  0.968938 *   4.00000    1.000000    
     50 Si    c    0.878794 *  0.849273 *  0.301020 *   4.00000    1.000000    
     51 Ge    c    0.148133 *  0.026050 *  0.632230 *   4.00000    1.000000    
     52 Si    c    0.027000 *  0.879112 *  0.466524 *   4.00000    1.000000    
     53 Si    c    0.129527 *  0.144626 *  0.801528 *   4.00000    1.000000    
     54 Si    c    0.854296 *  0.975746 *  0.135870 *   4.00000    1.000000    
     55 Si    c    0.121900 *  0.971569 *  0.365668 *   4.00000    1.000000    
     56 Si    c    0.853601 *  0.883636 *  0.035635 *   4.00000    1.000000    
     57 Si    c    0.031687 *  0.151701 *  0.701629 *   4.00000    1.000000    
     58 Si    c    0.883152 *  0.029498 *  0.867390 *   4.00000    1.000000    
     59 Si    c    0.144734 *  0.122981 *  0.530191 *   4.00000    1.000000    
     60 Si    c    0.972660 *  0.849400 *  0.200268 *   4.00000    1.000000    
     61 O2    c    0.932139 *  0.999477 *  0.000731 *   0.87073    1.000000    
     62 O2    c    0.000611 *  0.930783 *  0.333159 *   0.87073    1.000000    
     63 O3    c    0.068933 *  0.066341 *  0.671560 *   1.33043    1.000000    
     64 O2    c    0.067348 *  0.003088 *  0.497085 *   0.87073    1.000000    
     65 O2    c    0.005358 *  0.071003 *  0.835144 *   0.87073    1.000000    
     66 O2    c    0.931350 *  0.931790 *  0.168904 *   0.87073    1.000000    
     67 O2    c    0.340148 *  0.579444 *  0.333270 *   0.87073    1.000000    
     68 O2    c    0.421330 *  0.756012 *  0.666239 *   0.87073    1.000000    
     69 O2    c    0.236342 *  0.655871 *  0.000680 *   0.87073    1.000000    
     70 O2    c    0.677686 *  0.430041 *  0.831341 *   0.87073    1.000000    
     71 O2    c    0.581228 *  0.240704 *  0.168174 *   0.87073    1.000000    
     72 O2    c    0.760961 *  0.342463 *  0.499286 *   0.87073    1.000000    
     73 O3    c    0.580535 *  0.340971 *  0.002823 *   1.33043    1.000000    
     74 O2    c    0.763405 *  0.418080 *  0.665872 *   0.87073    1.000000    
     75 O2    c    0.659300 *  0.238143 *  0.334048 *   0.87073    1.000000    
     76 O2    c    0.421593 *  0.661441 *  0.499265 *   0.87073    1.000000    
     77 O2    c    0.241343 *  0.581610 *  0.167377 *   0.87073    1.000000    
     78 O2    c    0.345563 *  0.747050 *  0.833441 *   0.87073    1.000000    
     79 O2    c    0.120734 *  0.211870 *  0.974950 *   0.87073    1.000000    
     80 O2    c    0.787087 *  0.911893 *  0.306150 *   0.87073    1.000000    
     81 O3    c    0.082649 *  0.863003 *  0.641211 *   1.33043    1.000000    
     82 O2    c    0.873043 *  0.785956 *  0.472309 *   0.87073    1.000000    
     83 O3    c    0.211333 *  0.076052 *  0.801431 *   1.33043    1.000000    
     84 O2    c    0.916030 *  0.128822 *  0.142018 *   0.87073    1.000000    
     85 O2    c    0.212507 *  0.125887 *  0.361393 *   0.87073    1.000000    
     86 O2    c    0.907826 *  0.785126 *  0.028980 *   0.87073    1.000000    
     87 O2    c    0.876433 *  0.089198 *  0.695432 *   0.87073    1.000000    
     88 O2    c    0.792304 *  0.875000 *  0.864532 *   0.87073    1.000000    
     89 O2    c    0.087216 *  0.218905 *  0.523099 *   0.87073    1.000000    
     90 O2    c    0.127010 *  0.912636 *  0.194717 *   0.87073    1.000000    
     91 O2    c    0.932552 *  0.860436 *  0.250885 *   0.87073    1.000000    
     92 O3    c    0.115845 *  0.066334 *  0.580222 *   1.33043    1.000000    
     93 O2    c    0.931275 *  0.073363 *  0.917863 *   0.87073    1.000000    
     94 O2    c    0.068798 *  0.149161 *  0.753195 *   0.87073    1.000000    
     95 O2    c    0.875218 *  0.940006 *  0.085689 *   0.87073    1.000000    
     96 O2    c    0.066457 *  0.927905 *  0.415735 *   0.87073    1.000000    
     97 O2    c    0.897946 *  0.201257 *  0.982163 *   0.87073    1.000000    
     98 O2    c    0.797073 *  0.698042 *  0.313574 *   0.87073    1.000000    
     99 O3    c    0.313619 *  0.095273 *  0.637044 *   1.33043    1.000000    
    100 O2    c    0.099259 *  0.800840 *  0.480838 *   0.87073    1.000000    
    101 O2    c    0.219865 *  0.294811 *  0.815758 *   0.87073    1.000000    
    102 O2    c    0.701329 *  0.905235 *  0.146924 *   0.87073    1.000000    
    103 O2    c    0.204743 *  0.902816 *  0.353802 *   0.87073    1.000000    
    104 O2    c    0.700729 *  0.813023 *  0.024948 *   0.87073    1.000000    
    105 O2    c    0.102348 *  0.300073 *  0.685104 *   0.87073    1.000000    
    106 O2    c    0.796398 *  0.093988 *  0.853631 *   0.87073    1.000000    
    107 O2    c    0.298688 *  0.203329 *  0.520341 *   0.87073    1.000000    
    108 O2    c    0.902802 *  0.699150 *  0.187447 *   0.87073    1.000000    
    109 O2    c    0.323524 *  0.646037 *  0.250462 *   0.87073    1.000000    
    110 O2    c    0.356699 *  0.676966 *  0.582652 *   0.87073    1.000000    
    111 O2    c    0.329070 *  0.668086 *  0.918497 *   0.87073    1.000000    
    112 O2    c    0.677545 *  0.350331 *  0.749009 *   0.87073    1.000000    
    113 O2    c    0.648704 *  0.324427 *  0.085526 *   0.87073    1.000000    
    114 O2    c    0.676369 *  0.321735 *  0.416862 *   0.87073    1.000000    
    115 O3    c    0.366919 *  0.315667 *  0.977307 *   1.33043    1.000000    
    116 O2    c    0.670586 *  0.043469 *  0.304816 *   0.87073    1.000000    
    117 O2    c    0.956463 *  0.620078 *  0.637548 *   0.87073    1.000000    
    118 O2    c    0.625028 *  0.669486 *  0.470358 *   0.87073    1.000000    
    119 O3    c    0.321845 *  0.937395 *  0.806196 *   1.33043    1.000000    
    120 O2    c    0.047722 *  0.376243 *  0.139377 *   0.87073    1.000000    
    121 O2    c    0.328930 *  0.374112 *  0.363211 *   0.87073    1.000000    
    122 O2    c    0.043752 *  0.670222 *  0.030568 *   0.87073    1.000000    
    123 O2    c    0.624999 *  0.951641 *  0.697454 *   0.87073    1.000000    
    124 O2    c    0.685781 *  0.627934 *  0.868617 *   0.87073    1.000000    
    125 O2    c    0.956357 *  0.333949 *  0.528348 *   0.87073    1.000000    
    126 O2    c    0.375365 *  0.045563 *  0.197142 *   0.87073    1.000000    
    127 O2    c    0.770603 *  0.300523 *  0.013675 *   0.87073    1.000000    
    128 O2    c    0.696755 *  0.466734 *  0.344504 *   0.87073    1.000000    
    129 O2    c    0.533682 *  0.229192 *  0.676852 *   0.87073    1.000000    
    130 O2    c    0.230520 *  0.700444 *  0.511143 *   0.87073    1.000000    
    131 O2    c    0.313455 *  0.523091 *  0.849202 *   0.87073    1.000000    
    132 O2    c    0.469728 *  0.772311 *  0.178204 *   0.87073    1.000000    
    133 O2    c    0.303781 *  0.770627 *  0.323262 *   0.87073    1.000000    
    134 O2    c    0.468082 *  0.694501 *  0.991370 *   0.87073    1.000000    
    135 O2    c    0.230382 *  0.528690 *  0.654643 *   0.87073    1.000000    
    136 O2    c    0.690805 *  0.222217 *  0.821616 *   0.87073    1.000000    
    137 O2    c    0.531326 *  0.303308 *  0.489746 *   0.87073    1.000000    
    138 O2    c    0.773048 *  0.467985 *  0.157759 *   0.87073    1.000000    
    139 O2    c    0.787170 *  0.532532 *  0.028493 *   0.87073    1.000000    
    140 O2    c    0.464613 *  0.250637 *  0.361998 *   0.87073    1.000000    
    141 O2    c    0.738515 *  0.204754 *  0.696400 *   0.87073    1.000000    
    142 O2    c    0.215569 *  0.469069 *  0.526730 *   0.87073    1.000000    
    143 O2    c    0.539210 *  0.735542 *  0.867554 *   0.87073    1.000000    
    144 O2    c    0.252524 *  0.786903 *  0.195455 *   0.87073    1.000000    
    145 O2    c    0.535698 *  0.784301 *  0.305638 *   0.87073    1.000000    
    146 O2    c    0.259279 *  0.463280 *  0.973142 *   0.87073    1.000000    
    147 O2    c    0.217237 *  0.747079 *  0.638964 *   0.87073    1.000000    
    148 O3    c    0.470629 *  0.230903 *  0.806291 *   1.33043    1.000000    
    149 O2    c    0.749906 *  0.534827 *  0.471807 *   0.87073    1.000000    
    150 O2    c    0.787912 *  0.251929 *  0.140784 *   0.87073    1.000000    
    151 O2    c    0.246180 *  0.318104 *  0.901702 *   0.87073    1.000000    
    152 O2    c    0.678461 *  0.910312 *  0.231850 *   0.87073    1.000000    
    153 O2    c    0.093312 *  0.770185 *  0.565675 *   0.87073    1.000000    
    154 O2    c    0.767685 *  0.676197 *  0.397887 *   0.87073    1.000000    
    155 O3    c    0.310487 *  0.087216 *  0.722143 *   1.33043    1.000000    
    156 O2    c    0.912963 *  0.232839 *  0.067082 *   0.87073    1.000000    
    157 O2    c    0.321452 *  0.232245 *  0.435752 *   0.87073    1.000000    
    158 O2    c    0.906693 *  0.675278 *  0.102750 *   0.87073    1.000000    
    159 O2    c    0.757659 *  0.084807 *  0.768837 *   0.87073    1.000000    
    160 O2    c    0.681384 *  0.763193 *  0.940468 *   0.87073    1.000000    
    161 O2    c    0.094546 *  0.322381 *  0.599715 *   0.87073    1.000000    
    162 O2    c    0.232363 *  0.909237 *  0.269262 *   0.87073    1.000000    
    163 O3    c    0.604222 *  0.573395 *  0.002419 *   1.33043    1.000000    
    164 O2    c    0.441783 *  0.029623 *  0.324703 *   0.87073    1.000000    
    165 O2    c    0.968738 *  0.403075 *  0.655480 *   0.87073    1.000000    
    166 O2    c    0.410191 *  0.441489 *  0.490816 *   0.87073    1.000000    
    167 O2    c    0.555166 *  0.965823 *  0.823698 *   0.87073    1.000000    
    168 O2    c    0.032544 *  0.591307 *  0.158271 *   0.87073    1.000000    
    169 O2    c    0.558028 *  0.586468 *  0.343067 *   0.87073    1.000000    
    170 O2    c    0.029910 *  0.440237 *  0.010936 *   0.87073    1.000000    
    171 O2    c    0.418893 *  0.970838 *  0.675571 *   0.87073    1.000000    
    172 O2    c    0.458482 *  0.415907 *  0.848514 *   0.87073    1.000000    
    173 O2    c    0.970909 *  0.562999 *  0.510052 *   0.87073    1.000000    
    174 O2    c    0.588510 *  0.030212 *  0.176960 *   0.87073    1.000000    
    175 O2    c    0.584333 *  0.166493 *  0.250894 *   0.87073    1.000000    
    176 O2    c    0.832301 *  0.415714 *  0.582495 *   0.87073    1.000000    
    177 O3    c    0.609266 *  0.413259 *  0.916795 *   1.33043    1.000000    
    178 O2    c    0.416273 *  0.831385 *  0.749680 *   0.87073    1.000000    
    179 O2    c    0.169187 *  0.584253 *  0.084207 *   0.87073    1.000000    
    180 O2    c    0.415682 *  0.582519 *  0.416505 *   0.87073    1.000000    
    181 F     c    0.452965 *  0.904940 *  0.251597 *   0.56000    1.000000    
    182 F     c    0.095540 *  0.547866 *  0.583973 *   0.56000    1.000000    
    183 F     c    0.479233 *  0.522481 *  0.929941 *   0.56000    1.000000    
    184 F     c    0.507521 *  0.088438 *  0.754354 *   0.56000    1.000000    
    185 F     c    0.912353 *  0.454501 *  0.085616 *   0.56000    1.000000    
    186 F     c    0.547497 *  0.451464 *  0.417922 *   0.56000    1.000000    
    187 O2    s    0.927386 *  0.000170 *  0.001067 *  -2.87073    1.000000    
    188 O2    s    0.000678 *  0.926294 *  0.333234 *  -2.87073    1.000000    
    189 O3    s    0.071748 *  0.072143 *  0.671411 *  -3.33043    1.000000    
    190 O2    s    0.071403 *  0.002465 *  0.497321 *  -2.87073    1.000000    
    191 O2    s    0.004339 *  0.073893 *  0.835329 *  -2.87073    1.000000    
    192 O2    s    0.927309 *  0.927419 *  0.168722 *  -2.87073    1.000000    
    193 O2    s    0.352051 *  0.586899 *  0.333310 *  -2.87073    1.000000    
    194 O2    s    0.413871 *  0.760514 *  0.666238 *  -2.87073    1.000000    
    195 O2    s    0.233156 *  0.644330 *  0.000759 *  -2.87073    1.000000    
    196 O2    s    0.664970 *  0.420926 *  0.831896 *  -2.87073    1.000000    
    197 O2    s    0.588680 *  0.236149 *  0.168170 *  -2.87073    1.000000    
    198 O2    s    0.765192 *  0.354299 *  0.499308 *  -2.87073    1.000000    
    199 O3    s    0.590380 *  0.351069 *  0.003768 *  -3.33043    1.000000    
    200 O2    s    0.766852 *  0.409936 *  0.666021 *  -2.87073    1.000000    
    201 O2    s    0.647619 *  0.234179 *  0.334107 *  -2.87073    1.000000    
    202 O2    s    0.413647 *  0.649521 *  0.499434 *  -2.87073    1.000000    
    203 O2    s    0.237242 *  0.589251 *  0.167504 *  -2.87073    1.000000    
    204 O2    s    0.356542 *  0.751789 *  0.833941 *  -2.87073    1.000000    
    205 O2    s    0.118075 *  0.214666 *  0.972301 *  -2.87073    1.000000    
    206 O2    s    0.783778 *  0.905168 *  0.303552 *  -2.87073    1.000000    
    207 O3    s    0.088579 *  0.864252 *  0.638338 *  -3.33043    1.000000    
    208 O2    s    0.876493 *  0.782825 *  0.469641 *  -2.87073    1.000000    
    209 O3    s    0.211610 *  0.084425 *  0.800050 *  -3.33043    1.000000    
    210 O2    s    0.909357 *  0.125340 *  0.139253 *  -2.87073    1.000000    
    211 O2    s    0.215996 *  0.122572 *  0.363894 *  -2.87073    1.000000    
    212 O2    s    0.902208 *  0.782576 *  0.031649 *  -2.87073    1.000000    
    213 O2    s    0.878081 *  0.094942 *  0.698164 *  -2.87073    1.000000    
    214 O2    s    0.789245 *  0.877958 *  0.867099 *  -2.87073    1.000000    
    215 O2    s    0.093467 *  0.221807 *  0.526155 *  -2.87073    1.000000    
    216 O2    s    0.123688 *  0.905876 *  0.197397 *  -2.87073    1.000000    
    217 O2    s    0.930923 *  0.857899 *  0.250906 *  -2.87073    1.000000    
    218 O3    s    0.121713 *  0.068788 *  0.579472 *  -3.33043    1.000000    
    219 O2    s    0.929933 *  0.073688 *  0.917817 *  -2.87073    1.000000    
    220 O2    s    0.070982 *  0.148943 *  0.752413 *  -2.87073    1.000000    
    221 O2    s    0.870427 *  0.937634 *  0.085653 *  -2.87073    1.000000    
    222 O2    s    0.068208 *  0.927251 *  0.415908 *  -2.87073    1.000000    
    223 O2    s    0.906206 *  0.202707 *  0.984630 *  -2.87073    1.000000    
    224 O2    s    0.795482 *  0.704043 *  0.316201 *  -2.87073    1.000000    
    225 O3    s    0.308413 *  0.089678 *  0.640679 *  -3.33043    1.000000    
    226 O2    s    0.091310 *  0.798863 *  0.483271 *  -2.87073    1.000000    
    227 O2    s    0.220817 *  0.289768 *  0.818496 *  -2.87073    1.000000    
    228 O2    s    0.707493 *  0.912691 *  0.149681 *  -2.87073    1.000000    
    229 O2    s    0.205886 *  0.910345 *  0.351154 *  -2.87073    1.000000    
    230 O2    s    0.707434 *  0.809370 *  0.022462 *  -2.87073    1.000000    
    231 O2    s    0.094400 *  0.294191 *  0.682810 *  -2.87073    1.000000    
    232 O2    s    0.794655 *  0.086932 *  0.851116 *  -2.87073    1.000000    
    233 O2    s    0.292432 *  0.204819 *  0.517555 *  -2.87073    1.000000    
    234 O2    s    0.910537 *  0.705456 *  0.184945 *  -2.87073    1.000000    
    235 O2    s    0.329422 *  0.657712 *  0.250473 *  -2.87073    1.000000    
    236 O2    s    0.344969 *  0.671193 *  0.582727 *  -2.87073    1.000000    
    237 O2    s    0.334297 *  0.662986 *  0.918480 *  -2.87073    1.000000    
    238 O2    s    0.672086 *  0.339867 *  0.748815 *  -2.87073    1.000000    
    239 O2    s    0.659778 *  0.329628 *  0.085728 *  -2.87073    1.000000    
    240 O2    s    0.670516 *  0.327726 *  0.416839 *  -2.87073    1.000000    
    241 O3    s    0.365855 *  0.325089 *  0.974391 *  -3.33043    1.000000    
    242 O2    s    0.660580 *  0.036925 *  0.302534 *  -2.87073    1.000000    
    243 O2    s    0.963121 *  0.616632 *  0.635184 *  -2.87073    1.000000    
    244 O2    s    0.621786 *  0.659465 *  0.468105 *  -2.87073    1.000000    
    245 O3    s    0.333724 *  0.941103 *  0.803918 *  -3.33043    1.000000    
    246 O2    s    0.040809 *  0.379492 *  0.137040 *  -2.87073    1.000000    
    247 O2    s    0.338898 *  0.377258 *  0.365390 *  -2.87073    1.000000    
    248 O2    s    0.036998 *  0.659867 *  0.032750 *  -2.87073    1.000000    
    249 O2    s    0.621907 *  0.958197 *  0.699378 *  -2.87073    1.000000    
    250 O2    s    0.676270 *  0.625229 *  0.870554 *  -2.87073    1.000000    
    251 O2    s    0.963148 *  0.343855 *  0.530515 *  -2.87073    1.000000    
    252 O2    s    0.378638 *  0.038685 *  0.199336 *  -2.87073    1.000000    
    253 O2    s    0.778037 *  0.308236 *  0.016540 *  -2.87073    1.000000    
    254 O2    s    0.689075 *  0.466065 *  0.347554 *  -2.87073    1.000000    
    255 O2    s    0.534869 *  0.222598 *  0.679482 *  -2.87073    1.000000    
    256 O2    s    0.223570 *  0.692637 *  0.514177 *  -2.87073    1.000000    
    257 O2    s    0.321025 *  0.524687 *  0.851825 *  -2.87073    1.000000    
    258 O2    s    0.469039 *  0.779289 *  0.181235 *  -2.87073    1.000000    
    259 O2    s    0.311469 *  0.777756 *  0.320071 *  -2.87073    1.000000    
    260 O2    s    0.467304 *  0.687237 *  0.988891 *  -2.87073    1.000000    
    261 O2    s    0.223595 *  0.529569 *  0.651516 *  -2.87073    1.000000    
    262 O2    s    0.684597 *  0.215931 *  0.818950 *  -2.87073    1.000000    
    263 O2    s    0.531783 *  0.310950 *  0.486526 *  -2.87073    1.000000    
    264 O2    s    0.780052 *  0.467632 *  0.154557 *  -2.87073    1.000000    
    265 O2    s    0.792350 *  0.531165 *  0.031211 *  -2.87073    1.000000    
    266 O2    s    0.467283 *  0.258371 *  0.364543 *  -2.87073    1.000000    
    267 O2    s    0.732822 *  0.201170 *  0.698648 *  -2.87073    1.000000    
    268 O2    s    0.210436 *  0.471612 *  0.529345 *  -2.87073    1.000000    
    269 O2    s    0.536664 *  0.729490 *  0.869638 *  -2.87073    1.000000    
    270 O2    s    0.260350 *  0.791917 *  0.198039 *  -2.87073    1.000000    
    271 O2    s    0.532891 *  0.789685 *  0.303028 *  -2.87073    1.000000    
    272 O2    s    0.265925 *  0.466555 *  0.971157 *  -2.87073    1.000000    
    273 O2    s    0.212065 *  0.738900 *  0.636359 *  -2.87073    1.000000    
    274 O3    s    0.477813 *  0.227356 *  0.803804 *  -3.33043    1.000000    
    275 O2    s    0.741767 *  0.532183 *  0.469168 *  -2.87073    1.000000    
    276 O2    s    0.793217 *  0.259900 *  0.138140 *  -2.87073    1.000000    
    277 O2    s    0.254217 *  0.326947 *  0.902213 *  -2.87073    1.000000    
    278 O2    s    0.668766 *  0.909976 *  0.232752 *  -2.87073    1.000000    
    279 O2    s    0.093225 *  0.760470 *  0.566377 *  -2.87073    1.000000    
    280 O2    s    0.758299 *  0.666605 *  0.398859 *  -2.87073    1.000000    
    281 O3    s    0.322049 *  0.087748 *  0.721850 *  -3.33043    1.000000    
    282 O2    s    0.912344 *  0.242197 *  0.067945 *  -2.87073    1.000000    
    283 O2    s    0.331088 *  0.241585 *  0.434852 *  -2.87073    1.000000    
    284 O2    s    0.906780 *  0.665870 *  0.101953 *  -2.87073    1.000000    
    285 O2    s    0.749879 *  0.085275 *  0.767986 *  -2.87073    1.000000    
    286 O2    s    0.673254 *  0.755571 *  0.939279 *  -2.87073    1.000000    
    287 O2    s    0.094357 *  0.331935 *  0.598981 *  -2.87073    1.000000    
    288 O2    s    0.241996 *  0.909059 *  0.268390 *  -2.87073    1.000000    
    289 O3    s    0.599812 *  0.577963 *  0.998659 *  -3.33043    1.000000    
    290 O2    s    0.441723 *  0.024731 *  0.321290 *  -2.87073    1.000000    
    291 O2    s    0.974221 *  0.408705 *  0.652185 *  -2.87073    1.000000    
    292 O2    s    0.414943 *  0.441223 *  0.487415 *  -2.87073    1.000000    
    293 O2    s    0.556044 *  0.970438 *  0.820778 *  -2.87073    1.000000    
    294 O2    s    0.027331 *  0.586223 *  0.154908 *  -2.87073    1.000000    
    295 O2    s    0.558294 *  0.581969 *  0.346396 *  -2.87073    1.000000    
    296 O2    s    0.024883 *  0.440076 *  0.014351 *  -2.87073    1.000000    
    297 O2    s    0.422066 *  0.974049 *  0.678453 *  -2.87073    1.000000    
    298 O2    s    0.456967 *  0.418473 *  0.851271 *  -2.87073    1.000000    
    299 O2    s    0.975685 *  0.562885 *  0.513251 *  -2.87073    1.000000    
    300 O2    s    0.584093 *  0.025369 *  0.180301 *  -2.87073    1.000000    
    301 O2    s    0.578850 *  0.155567 *  0.250972 *  -2.87073    1.000000    
    302 O2    s    0.843651 *  0.421336 *  0.582508 *  -2.87073    1.000000    
    303 O3    s    0.603843 *  0.420484 *  0.915024 *  -3.33043    1.000000    
    304 O2    s    0.421209 *  0.840805 *  0.749462 *  -2.87073    1.000000    
    305 O2    s    0.157658 *  0.578576 *  0.084273 *  -2.87073    1.000000    
    306 O2    s    0.421239 *  0.577098 *  0.416565 *  -2.87073    1.000000    
    307 F     s    0.452723 *  0.904539 *  0.251724 *  -1.56000    1.000000    
    308 F     s    0.095809 *  0.548103 *  0.584133 *  -1.56000    1.000000    
    309 F     s    0.483207 *  0.516601 *  0.932462 *  -1.56000    1.000000    
    310 F     s    0.498706 *  0.088433 *  0.755782 *  -1.56000    1.000000    
    311 F     s    0.912869 *  0.454589 *  0.085710 *  -1.56000    1.000000    
    312 F     s    0.547787 *  0.451203 *  0.418077 *  -1.56000    1.000000    
--------------------------------------------------------------------------------



********************************************************************************
*  General input information                                                   *
********************************************************************************

  Species output for all configurations : 

--------------------------------------------------------------------------------
  Species    Type    Atomic    Atomic    Charge       Radii (Angs)     Library
                     Number     Mass       (e)     Cova   Ionic  VDW   Symbol
--------------------------------------------------------------------------------
    Si       Core       14      28.09   4.000000   1.200  0.000  2.100          
    O1       Core        8      16.00   1.733957   0.730  0.000  1.360          
    O1       Shell       8       0.00  -3.733957   0.730  0.000  1.360          
    O2       Core        8      16.00   0.870733   0.730  0.000  1.360          
    O2       Shell       8       0.00  -2.870733   0.730  0.000  1.360          
    O3       Core        8      16.00   1.330431   0.730  0.000  1.360          
    O3       Shell       8       0.00  -3.330431   0.730  0.000  1.360          
    F        Core        9      19.00   0.560000   0.710  0.000  1.300          
    F        Shell       9       0.00  -1.560000   0.710  0.000  1.300          
    Ge       Core       32      72.61   4.000000   1.170  0.000  1.750          
--------------------------------------------------------------------------------


  Lattice summation method               =    Ewald          (3-D)
                                         =    Parry          (2-D)
                                         =    Saunders et al (1-D)
  Accuracy factor for lattice sums       =   12.000


  Time limit = Infinity

  Maximum range for interatomic potentials =        16.000000 Angstroms

  Taper potentials to zero over   1.0000 Angstroms using polynomial

  General interatomic potentials :

--------------------------------------------------------------------------------
Atom  Types   Potential         A         B         C         D     Cutoffs(Ang)
  1     2                                                            Min    Max 
--------------------------------------------------------------------------------
Si   c O1   s Buckingham    0.132E+04 0.318      10.1      0.00     0.000 16.000
Si   c O2   s Buckingham    0.132E+04 0.318      10.1      0.00     0.000 16.000
Si   c O3   s Buckingham    0.132E+04 0.318      10.1      0.00     0.000 16.000
Ge   c O1   s Buckingham    0.150E+04 0.326      16.8      0.00     0.000 16.000
Ge   c O2   s Buckingham    0.150E+04 0.326      16.8      0.00     0.000 16.000
Ge   c O3   s Buckingham    0.150E+04 0.326      16.8      0.00     0.000 16.000
O1   s O1   s Buckingham    0.228E+05 0.149      10.9      0.00     0.000 16.000
O1   s O2   s Buckingham    0.228E+05 0.149      10.9      0.00     0.000 16.000
O1   s O3   s Buckingham    0.228E+05 0.149      10.9      0.00     0.000 16.000
O2   s O2   s Buckingham    0.228E+05 0.149      10.9      0.00     0.000 16.000
O2   s O3   s Buckingham    0.228E+05 0.149      10.9      0.00     0.000 16.000
O3   s O3   s Buckingham    0.228E+05 0.149      10.9      0.00     0.000 16.000
Si   c F    s Buckingham     977.     0.282      0.00      0.00     0.000 16.000
Ge   c F    s Buckingham     681.     0.320      0.00      0.00     0.000 16.000
F    s F    s Buckingham     540.     0.262      0.00      0.00     0.000 16.000
O1   s F    s Buckingham    0.168E+04 0.268      0.00      0.00     0.000 16.000
O2   s F    s Buckingham    0.168E+04 0.268      0.00      0.00     0.000 16.000
O3   s F    s Buckingham    0.168E+04 0.268      0.00      0.00     0.000 16.000
O2   c O2   s Spring (c-s)   76.0      0.00      0.00      0.00     0.000  0.800
O3   c O3   s Spring (c-s)   128.      0.00      0.00      0.00     0.000  0.800
O1   c O1   s Spring (c-s)   180.      0.00      0.00      0.00     0.000  0.800
F    c F    s Spring (c-s)   33.5      0.00      0.00      0.00     0.000  0.800
--------------------------------------------------------------------------------

  General Three-body potentials :

  Harmonic form:

--------------------------------------------------------------------------------
Atom    Atom    Atom           Force Constants            Theta     Cutoffs  
  1       2       3     (eVrad**-2/eVrad**-3/eVrad**-4)   (deg)  1-2  1-3  2-3
--------------------------------------------------------------------------------
Si    c O1    s O1    s  1.261        0.0000    0.0000   109.470 0.00 0.00 0.00
                                                                 1.90 1.90 3.50
Si    c O1    s O2    s  1.261        0.0000    0.0000   109.470 0.00 0.00 0.00
                                                                 1.90 1.90 3.50
Si    c O2    s O2    s  1.261        0.0000    0.0000   109.470 0.00 0.00 0.00
                                                                 1.90 1.90 3.50
--------------------------------------------------------------------------------

********************************************************************************
*  Output for configuration   1                                                *
********************************************************************************


  Components of energy : 

--------------------------------------------------------------------------------
  Interatomic potentials     =        2063.64489272 eV
  Three-body potentials      =           0.47019259 eV
  Monopole - monopole (real) =       -6614.06937375 eV
  Monopole - monopole (recip)=       -3170.16957440 eV
  Monopole - monopole (total)=       -9784.23894815 eV
  Neutralising energy        =          -6.45764215 eV
--------------------------------------------------------------------------------
  Total lattice energy       =       -7726.58150498 eV
--------------------------------------------------------------------------------
  Total lattice energy       =         -745497.0036 kJ/(mole unit cells)
--------------------------------------------------------------------------------


  Number of variables =      939

  Maximum number of calculations  =          1000
  Maximum Hessian update interval =            10
  Maximum step size               =   1.000000000
  Maximum parameter tolerance     =   0.000010000
  Maximum function  tolerance     =   0.000010000
  Maximum gradient  tolerance     =   0.001000000
  Maximum gradient  component     =   0.010000000

  Symmetry not applied to optimisation

  Cell parameters to be optimised using strains

  Newton-Raphson optimiser to be used

  BFGS hessian update to be used

  Dumpfile to be written after every cycle

  Start of bulk optimisation :

  Cycle:      0 Energy:     -7726.581505  Gnorm:      0.005982  CPU:    2.064
  ** Hessian calculated **
  Cycle:      1 Energy:     -7726.615269  Gnorm:      0.002217  CPU:    5.310
  Cycle:      2 Energy:     -7726.615428  Gnorm:      0.000113  CPU:    8.070
  Cycle:      3 Energy:     -7726.615432  Gnorm:      0.000029  CPU:   10.922


  **** Optimisation achieved ****


  Final energy =   -7726.61543164 eV
  Final Gnorm  =       0.00000199

  Components of energy : 

--------------------------------------------------------------------------------
  Interatomic potentials     =        2063.66150618 eV
  Three-body potentials      =           0.47266691 eV
  Monopole - monopole (real) =       -6614.55330048 eV
  Monopole - monopole (recip)=       -3169.73953940 eV
  Monopole - monopole (total)=       -9784.29283988 eV
  Neutralising energy        =          -6.45676484 eV
--------------------------------------------------------------------------------
  Total lattice energy       =       -7726.61543164 eV
--------------------------------------------------------------------------------
  Total lattice energy       =         -745500.2770 kJ/(mole unit cells)
--------------------------------------------------------------------------------

  Final fractional coordinates of atoms :

--------------------------------------------------------------------------------
   No.  Atomic        x           y          z          Radius
        Label       (Frac)      (Frac)     (Frac)       (Angs) 
--------------------------------------------------------------------------------
     1  Si    c     0.699600    0.375700    0.033890    0.000000
     2  Si    c     0.620897    0.316943    0.365644    0.000000
     3  Si    c     0.672951    0.285009    0.697802    0.000000
     4  Si    c     0.294983    0.613887    0.530589    0.000000
     5  Si    c     0.386593    0.658588    0.866507    0.000000
     6  Si    c     0.329581    0.702932    0.198140    0.000000
     7  Si    c     0.381066    0.697984    0.298807    0.000000
     8  Si    c     0.325582    0.612186    0.968547    0.000000
     9  Si    c     0.295403    0.662033    0.631558    0.000000
    10  Si    c     0.620625    0.289102    0.800018    0.000000
    11  Si    c     0.671841    0.372108    0.465913    0.000000
    12  Si    c     0.709955    0.325967    0.135257    0.000000
    13  Ge    c     0.533680    0.426516    0.966854    0.000000
    14  Si    c     0.585677    0.107896    0.301347    0.000000
    15  Si    c     0.884809    0.454959    0.632387    0.000000
    16  Si    c     0.465527    0.574089    0.465307    0.000000
    17  Si    c     0.408979    0.863023    0.800155    0.000000
    18  Si    c     0.120081    0.532065    0.133053    0.000000
    19  Si    c     0.415406    0.522786    0.363788    0.000000
    20  Si    c     0.112333    0.578741    0.031965    0.000000
    21  Si    c     0.466523    0.868662    0.696733    0.000000
    22  Si    c     0.606274    0.461285    0.868523    0.000000
    23  Si    c     0.882175    0.410336    0.530762    0.000000
    24  Si    c     0.536903    0.114127    0.199865    0.000000
    25  Si    c     0.315785    0.378898    0.853652    0.000000
    26  Si    c     0.608805    0.905443    0.184660    0.000000
    27  Si    c     0.092590    0.691924    0.517938    0.000000
    28  Si    c     0.698077    0.594797    0.350200    0.000000
    29  Si    c     0.394552    0.081678    0.678206    0.000000
    30  Si    c     0.903955    0.299350    0.019355    0.000000
    31  Si    c     0.393038    0.294307    0.480518    0.000000
    32  Si    c     0.910889    0.603244    0.148060    0.000000
    33  Si    c     0.692127    0.077974    0.815280    0.000000
    34  Si    c     0.609383    0.697733    0.988305    0.000000
    35  Si    c     0.094669    0.383750    0.645387    0.000000
    36  Si    c     0.305103    0.899110    0.314496    0.000000
    37  Si    c     0.253462    0.325034    0.955712    0.000000
    38  Si    c     0.662397    0.906854    0.285224    0.000000
    39  Si    c     0.084865    0.733087    0.619108    0.000000
    40  Si    c     0.745283    0.652070    0.450703    0.000000
    41  Ge    c     0.354231    0.073062    0.778220    0.000000
    42  Si    c     0.919776    0.254276    0.119781    0.000000
    43  Si    c     0.338089    0.244536    0.379911    0.000000
    44  Si    c     0.911608    0.657311    0.047290    0.000000
    45  Si    c     0.745737    0.071820    0.713444    0.000000
    46  Si    c     0.674085    0.738964    0.885413    0.000000
    47  Si    c     0.085294    0.333166    0.544327    0.000000
    48  Si    c     0.257742    0.911856    0.214174    0.000000
    49  Si    c     0.966848    0.118090    0.967799    0.000000
    50  Si    c     0.879856    0.843272    0.299970    0.000000
    51  Ge    c     0.145482    0.015190    0.631132    0.000000
    52  Si    c     0.024470    0.870654    0.465469    0.000000
    53  Si    c     0.129707    0.135756    0.800478    0.000000
    54  Si    c     0.859419    0.975931    0.134785    0.000000
    55  Si    c     0.122387    0.964511    0.364815    0.000000
    56  Si    c     0.854428    0.880894    0.034622    0.000000
    57  Si    c     0.030657    0.142281    0.700781    0.000000
    58  Si    c     0.883015    0.021571    0.866560    0.000000
    59  Si    c     0.141533    0.113849    0.529280    0.000000
    60  Si    c     0.977470    0.849412    0.199212    0.000000
    61  O2    c     0.930493    0.996739    0.999629    0.000000
    62  O2    c     0.000954    0.922867    0.332439    0.000000
    63  O3    c     0.068650    0.056947    0.671019    0.000000
    64  O2    c     0.064209    0.993623    0.496426    0.000000
    65  O2    c     0.006215    0.065080    0.834558    0.000000
    66  O2    c     0.937061    0.932647    0.167860    0.000000
    67  O2    c     0.340711    0.572968    0.330969    0.000000
    68  O2    c     0.419001    0.744716    0.664338    0.000000
    69  O2    c     0.237062    0.651814    0.998151    0.000000
    70  O2    c     0.677083    0.417457    0.830893    0.000000
    71  O2    c     0.587222    0.241438    0.168549    0.000000
    72  O2    c     0.757065    0.334300    0.498779    0.000000
    73  O3    c     0.579366    0.338098    0.003371    0.000000
    74  O2    c     0.759870    0.406383    0.665388    0.000000
    75  O2    c     0.660901    0.232185    0.333932    0.000000
    76  O2    c     0.417229    0.652186    0.497335    0.000000
    77  O2    c     0.247166    0.582560    0.164869    0.000000
    78  O2    c     0.345172    0.734363    0.831339    0.000000
    79  O2    c     0.119192    0.207938    0.973915    0.000000
    80  O2    c     0.788117    0.905738    0.305549    0.000000
    81  O3    c     0.078568    0.852113    0.640200    0.000000
    82  O2    c     0.870209    0.778478    0.470771    0.000000
    83  O3    c     0.208395    0.063895    0.799931    0.000000
    84  O2    c     0.921779    0.129194    0.140326    0.000000
    85  O2    c     0.212416    0.118667    0.360061    0.000000
    86  O2    c     0.910141    0.783687    0.027706    0.000000
    87  O2    c     0.875249    0.078757    0.694503    0.000000
    88  O2    c     0.795901    0.866692    0.864137    0.000000
    89  O2    c     0.083066    0.208899    0.522090    0.000000
    90  O2    c     0.132115    0.913423    0.194133    0.000000
    91  O2    c     0.934710    0.857445    0.249802    0.000000
    92  O3    c     0.113761    0.057462    0.579387    0.000000
    93  O2    c     0.929914    0.069320    0.916826    0.000000
    94  O2    c     0.068588    0.141876    0.752398    0.000000
    95  O2    c     0.877644    0.937770    0.084618    0.000000
    96  O2    c     0.066958    0.921132    0.414958    0.000000
    97  O2    c     0.896585    0.198702    0.980900    0.000000
    98  O2    c     0.797660    0.691710    0.312083    0.000000
    99  O3    c     0.310931    0.082501    0.635588    0.000000
   100  O2    c     0.095315    0.791228    0.479954    0.000000
   101  O2    c     0.223481    0.285251    0.814625    0.000000
   102  O2    c     0.706786    0.906135    0.146170    0.000000
   103  O2    c     0.205853    0.896245    0.352991    0.000000
   104  O2    c     0.701289    0.808573    0.024093    0.000000
   105  O2    c     0.100270    0.290095    0.683862    0.000000
   106  O2    c     0.792842    0.081602    0.852340    0.000000
   107  O2    c     0.295279    0.194990    0.518960    0.000000
   108  O2    c     0.908827    0.699781    0.186084    0.000000
   109  O2    c     0.326678    0.643603    0.248369    0.000000
   110  O2    c     0.352848    0.666200    0.581027    0.000000
   111  O2    c     0.331420    0.660782    0.916502    0.000000
   112  O2    c     0.673119    0.337300    0.748266    0.000000
   113  O2    c     0.651754    0.325817    0.085854    0.000000
   114  O2    c     0.675274    0.315552    0.416188    0.000000
   115  O3    c     0.366395    0.309755    0.976531    0.000000
   116  O2    c     0.672728    0.038231    0.304458    0.000000
   117  O2    c     0.953090    0.609267    0.637118    0.000000
   118  O2    c     0.621784    0.661530    0.468744    0.000000
   119  O3    c     0.318077    0.923715    0.804568    0.000000
   120  O2    c     0.052676    0.376422    0.137520    0.000000
   121  O2    c     0.328277    0.366953    0.361329    0.000000
   122  O2    c     0.045652    0.668359    0.028687    0.000000
   123  O2    c     0.623520    0.939940    0.695720    0.000000
   124  O2    c     0.688516    0.619195    0.867801    0.000000
   125  O2    c     0.952289    0.324257    0.527424    0.000000
   126  O2    c     0.380394    0.045163    0.196651    0.000000
   127  O2    c     0.770480    0.299858    0.013514    0.000000
   128  O2    c     0.697120    0.460340    0.343423    0.000000
   129  O2    c     0.530407    0.216962    0.675896    0.000000
   130  O2    c     0.226372    0.690672    0.509969    0.000000
   131  O2    c     0.316928    0.513878    0.847689    0.000000
   132  O2    c     0.474685    0.772752    0.176734    0.000000
   133  O2    c     0.305197    0.765076    0.321686    0.000000
   134  O2    c     0.469143    0.690109    0.989841    0.000000
   135  O2    c     0.227263    0.518335    0.653302    0.000000
   136  O2    c     0.686988    0.208966    0.820550    0.000000
   137  O2    c     0.528272    0.296115    0.488691    0.000000
   138  O2    c     0.779321    0.468590    0.157424    0.000000
   139  O2    c     0.788195    0.531877    0.027947    0.000000
   140  O2    c     0.464742    0.244391    0.360750    0.000000
   141  O2    c     0.735294    0.192654    0.695470    0.000000
   142  O2    c     0.211270    0.459165    0.525184    0.000000
   143  O2    c     0.542088    0.726850    0.865972    0.000000
   144  O2    c     0.257356    0.786913    0.194105    0.000000
   145  O2    c     0.537176    0.778907    0.304218    0.000000
   146  O2    c     0.260837    0.458331    0.971901    0.000000
   147  O2    c     0.214004    0.736477    0.637808    0.000000
   148  O3    c     0.467068    0.217605    0.805465    0.000000
   149  O2    c     0.747073    0.527630    0.470890    0.000000
   150  O2    c     0.793012    0.252474    0.139864    0.000000
   151  O2    c     0.247231    0.310573    0.900783    0.000000
   152  O2    c     0.682259    0.907857    0.231040    0.000000
   153  O2    c     0.089044    0.759679    0.564890    0.000000
   154  O2    c     0.766289    0.668947    0.396541    0.000000
   155  O3    c     0.307136    0.073820    0.720788    0.000000
   156  O2    c     0.915273    0.232402    0.065674    0.000000
   157  O2    c     0.319576    0.224972    0.434229    0.000000
   158  O2    c     0.910836    0.675121    0.101549    0.000000
   159  O2    c     0.754170    0.071607    0.767552    0.000000
   160  O2    c     0.682863    0.755343    0.939490    0.000000
   161  O2    c     0.091440    0.312610    0.598463    0.000000
   162  O2    c     0.235947    0.906597    0.268411    0.000000
   163  O3    c     0.603148    0.568019    0.001970    0.000000
   164  O2    c     0.443717    0.023808    0.324360    0.000000
   165  O2    c     0.965497    0.392241    0.654613    0.000000
   166  O2    c     0.406345    0.433299    0.489147    0.000000
   167  O2    c     0.551779    0.953175    0.822303    0.000000
   168  O2    c     0.038946    0.592551    0.156514    0.000000
   169  O2    c     0.557803    0.579304    0.341327    0.000000
   170  O2    c     0.029820    0.437923    0.009048    0.000000
   171  O2    c     0.417530    0.959418    0.673917    0.000000
   172  O2    c     0.460904    0.406003    0.848228    0.000000
   173  O2    c     0.966938    0.553432    0.509254    0.000000
   174  O2    c     0.594396    0.030704    0.176531    0.000000
   175  O2    c     0.587847    0.163674    0.250907    0.000000
   176  O2    c     0.828739    0.405927    0.581915    0.000000
   177  O3    c     0.611521    0.406961    0.916876    0.000000
   178  O2    c     0.414463    0.819547    0.747852    0.000000
   179  O2    c     0.172753    0.582895    0.081821    0.000000
   180  O2    c     0.413461    0.574659    0.414528    0.000000
   181  F     c     0.457256    0.902996    0.250636    0.000000
   182  F     c     0.091587    0.537622    0.582995    0.000000
   183  F     c     0.480532    0.516092    0.928775    0.000000
   184  F     c     0.504052    0.075486    0.753161    0.000000
   185  F     c     0.916724    0.455543    0.084532    0.000000
   186  F     c     0.545567    0.444551    0.416525    0.000000
   187  O2    s     0.925966    0.997367    0.999980    0.000000
   188  O2    s     0.001109    0.918657    0.332461    0.000000
   189  O3    s     0.071168    0.062638    0.670796    0.000000
   190  O2    s     0.068349    0.993165    0.496591    0.000000
   191  O2    s     0.005018    0.067447    0.834660    0.000000
   192  O2    s     0.932874    0.928135    0.167671    0.000000
   193  O2    s     0.352545    0.580455    0.331095    0.000000
   194  O2    s     0.411547    0.749285    0.664399    0.000000
   195  O2    s     0.234027    0.640324    0.998360    0.000000
   196  O2    s     0.664394    0.408807    0.831464    0.000000
   197  O2    s     0.594466    0.236744    0.168427    0.000000
   198  O2    s     0.761477    0.346155    0.498766    0.000000
   199  O3    s     0.589528    0.348431    0.004205    0.000000
   200  O2    s     0.763370    0.398309    0.665488    0.000000
   201  O2    s     0.649080    0.228285    0.333904    0.000000
   202  O2    s     0.409413    0.640257    0.497550    0.000000
   203  O2    s     0.242839    0.589947    0.165109    0.000000
   204  O2    s     0.356307    0.739604    0.831889    0.000000
   205  O2    s     0.116778    0.210710    0.971246    0.000000
   206  O2    s     0.784909    0.899159    0.302876    0.000000
   207  O3    s     0.084643    0.853379    0.637346    0.000000
   208  O2    s     0.873726    0.775243    0.468169    0.000000
   209  O3    s     0.209033    0.072580    0.798600    0.000000
   210  O2    s     0.914918    0.125644    0.137658    0.000000
   211  O2    s     0.215925    0.115426    0.362598    0.000000
   212  O2    s     0.904402    0.781049    0.030409    0.000000
   213  O2    s     0.876760    0.084450    0.697205    0.000000
   214  O2    s     0.792329    0.869647    0.866593    0.000000
   215  O2    s     0.089448    0.211913    0.525138    0.000000
   216  O2    s     0.128704    0.906435    0.196736    0.000000
   217  O2    s     0.933256    0.854911    0.249835    0.000000
   218  O3    s     0.119449    0.059712    0.578610    0.000000
   219  O2    s     0.928685    0.069310    0.916796    0.000000
   220  O2    s     0.070694    0.141238    0.751583    0.000000
   221  O2    s     0.872972    0.935610    0.084586    0.000000
   222  O2    s     0.068349    0.920247    0.415091    0.000000
   223  O2    s     0.904866    0.200109    0.983337    0.000000
   224  O2    s     0.796058    0.697680    0.314736    0.000000
   225  O3    s     0.305739    0.077099    0.639259    0.000000
   226  O2    s     0.087484    0.789350    0.482370    0.000000
   227  O2    s     0.223937    0.280285    0.817383    0.000000
   228  O2    s     0.712901    0.913446    0.148904    0.000000
   229  O2    s     0.207018    0.903855    0.350341    0.000000
   230  O2    s     0.708017    0.805039    0.021604    0.000000
   231  O2    s     0.092320    0.284222    0.681617    0.000000
   232  O2    s     0.791469    0.074915    0.849854    0.000000
   233  O2    s     0.289050    0.196440    0.516228    0.000000
   234  O2    s     0.916445    0.706049    0.183611    0.000000
   235  O2    s     0.332536    0.655167    0.248457    0.000000
   236  O2    s     0.341136    0.660498    0.581119    0.000000
   237  O2    s     0.336600    0.655660    0.916551    0.000000
   238  O2    s     0.667852    0.326964    0.748066    0.000000
   239  O2    s     0.662723    0.330807    0.085956    0.000000
   240  O2    s     0.669370    0.321518    0.416156    0.000000
   241  O3    s     0.365287    0.319177    0.973605    0.000000
   242  O2    s     0.662694    0.031722    0.302129    0.000000
   243  O2    s     0.959698    0.605836    0.634705    0.000000
   244  O2    s     0.618626    0.651510    0.466489    0.000000
   245  O3    s     0.330088    0.927528    0.802294    0.000000
   246  O2    s     0.045736    0.379632    0.135206    0.000000
   247  O2    s     0.338225    0.370149    0.363532    0.000000
   248  O2    s     0.038900    0.658050    0.030922    0.000000
   249  O2    s     0.620334    0.946465    0.697677    0.000000
   250  O2    s     0.679034    0.616513    0.869741    0.000000
   251  O2    s     0.959140    0.334189    0.529589    0.000000
   252  O2    s     0.383615    0.038253    0.198835    0.000000
   253  O2    s     0.778134    0.307377    0.016232    0.000000
   254  O2    s     0.689388    0.459747    0.346452    0.000000
   255  O2    s     0.531617    0.210346    0.678500    0.000000
   256  O2    s     0.219422    0.682832    0.512987    0.000000
   257  O2    s     0.324314    0.515420    0.850350    0.000000
   258  O2    s     0.473904    0.779563    0.179806    0.000000
   259  O2    s     0.312972    0.772276    0.318553    0.000000
   260  O2    s     0.468390    0.682738    0.987428    0.000000
   261  O2    s     0.220455    0.519175    0.650177    0.000000
   262  O2    s     0.680843    0.202773    0.817899    0.000000
   263  O2    s     0.528761    0.303701    0.485475    0.000000
   264  O2    s     0.786084    0.468146    0.154139    0.000000
   265  O2    s     0.793336    0.530342    0.030646    0.000000
   266  O2    s     0.467299    0.252084    0.363316    0.000000
   267  O2    s     0.729691    0.189073    0.697696    0.000000
   268  O2    s     0.206203    0.461703    0.527832    0.000000
   269  O2    s     0.539489    0.720789    0.868090    0.000000
   270  O2    s     0.265112    0.791790    0.196697    0.000000
   271  O2    s     0.534389    0.784340    0.301639    0.000000
   272  O2    s     0.267278    0.461501    0.969897    0.000000
   273  O2    s     0.208781    0.728290    0.635211    0.000000
   274  O3    s     0.474483    0.214331    0.802972    0.000000
   275  O2    s     0.738978    0.524926    0.468226    0.000000
   276  O2    s     0.798225    0.260382    0.137243    0.000000
   277  O2    s     0.255262    0.319378    0.901266    0.000000
   278  O2    s     0.672474    0.907504    0.231946    0.000000
   279  O2    s     0.089041    0.750004    0.565551    0.000000
   280  O2    s     0.756905    0.659385    0.397476    0.000000
   281  O3    s     0.318775    0.074478    0.720475    0.000000
   282  O2    s     0.914601    0.241656    0.066575    0.000000
   283  O2    s     0.329234    0.234318    0.433374    0.000000
   284  O2    s     0.910935    0.665678    0.100729    0.000000
   285  O2    s     0.746532    0.072289    0.766697    0.000000
   286  O2    s     0.674803    0.747941    0.938320    0.000000
   287  O2    s     0.091185    0.322132    0.597755    0.000000
   288  O2    s     0.245527    0.906370    0.267539    0.000000
   289  O3    s     0.599034    0.572835    0.998175    0.000000
   290  O2    s     0.443638    0.019015    0.320899    0.000000
   291  O2    s     0.970996    0.397935    0.651323    0.000000
   292  O2    s     0.411208    0.432986    0.485767    0.000000
   293  O2    s     0.552802    0.957864    0.819353    0.000000
   294  O2    s     0.033493    0.587258    0.153169    0.000000
   295  O2    s     0.558049    0.574876    0.344651    0.000000
   296  O2    s     0.024948    0.437857    0.012507    0.000000
   297  O2    s     0.420522    0.962502    0.676819    0.000000
   298  O2    s     0.459373    0.408718    0.850898    0.000000
   299  O2    s     0.971753    0.553351    0.512453    0.000000
   300  O2    s     0.589766    0.025708    0.179856    0.000000
   301  O2    s     0.582341    0.152705    0.250898    0.000000
   302  O2    s     0.840113    0.411508    0.581914    0.000000
   303  O3    s     0.606013    0.413998    0.914944    0.000000
   304  O2    s     0.419352    0.828969    0.747632    0.000000
   305  O2    s     0.161156    0.577241    0.081968    0.000000
   306  O2    s     0.419072    0.569257    0.414597    0.000000
   307  F     s     0.457118    0.902692    0.250758    0.000000
   308  F     s     0.091812    0.537841    0.583163    0.000000
   309  F     s     0.484554    0.509954    0.931451    0.000000
   310  F     s     0.494985    0.075414    0.754628    0.000000
   311  F     s     0.917378    0.455801    0.084640    0.000000
   312  F     s     0.545829    0.444330    0.416675    0.000000
--------------------------------------------------------------------------------

  Final Cartesian lattice vectors (Angstroms) :

       11.926114   -0.000567    0.011334
       -5.958202   10.405030   -0.002822
        0.057451    0.208839   29.514273


  Final cell parameters and derivatives :

--------------------------------------------------------------------------------
       a           11.926119 Angstrom     dE/de1(xx)     0.000154 eV/strain
       b           11.990198 Angstrom     dE/de2(yy)     0.000127 eV/strain
       c           29.515068 Angstrom     dE/de3(zz)     0.000334 eV/strain
       alpha       89.717097 Degrees      dE/de4(yz)     0.000017 eV/strain
       beta        89.834042 Degrees      dE/de5(xz)     0.000001 eV/strain
       gamma      119.799346 Degrees      dE/de6(xy)     0.000050 eV/strain
--------------------------------------------------------------------------------

  Primitive cell volume =          3662.359104 Angs**3

  Density of cell =      1.746987 g/cm**3

  Non-primitive cell volume =          3662.359104 Angs**3


  Final internal derivatives :

--------------------------------------------------------------------------------
   No.  Atomic          a             b             c           Radius
        Label          (eV)          (eV)          (eV)        (eV/Angs)
--------------------------------------------------------------------------------
      1 Si    c       0.000000      0.000000      0.000000      0.000000
      2 Si    c       0.000005      0.000003      0.000057      0.000000
      3 Si    c       0.000005     -0.000017      0.000034      0.000000
      4 Si    c       0.000006     -0.000014      0.000046      0.000000
      5 Si    c      -0.000016      0.000058     -0.000130      0.000000
      6 Si    c      -0.000014      0.000012     -0.000067      0.000000
      7 Si    c       0.000006      0.000015      0.000165      0.000000
      8 Si    c      -0.000001     -0.000050      0.000035      0.000000
      9 Si    c       0.000013     -0.000000      0.000016      0.000000
     10 Si    c      -0.000038      0.000052     -0.000041      0.000000
     11 Si    c      -0.000002      0.000009     -0.000041      0.000000
     12 Si    c       0.000021      0.000003     -0.000083      0.000000
     13 Ge    c      -0.000100      0.000087     -0.000104      0.000000
     14 Si    c       0.000020     -0.000041     -0.000002      0.000000
     15 Si    c      -0.000001      0.000005      0.000001      0.000000
     16 Si    c       0.000003      0.000001     -0.000005      0.000000
     17 Si    c       0.000001     -0.000022      0.000013      0.000000
     18 Si    c      -0.000002     -0.000024     -0.000010      0.000000
     19 Si    c       0.000006     -0.000010      0.000029      0.000000
     20 Si    c      -0.000052     -0.000020     -0.000093      0.000000
     21 Si    c      -0.000001     -0.000009     -0.000023      0.000000
     22 Si    c       0.000056      0.000070     -0.000274      0.000000
     23 Si    c       0.000004     -0.000003      0.000002      0.000000
     24 Si    c       0.000007     -0.000025     -0.000017      0.000000
     25 Si    c      -0.000035     -0.000002     -0.000141      0.000000
     26 Si    c       0.000017      0.000013     -0.000057      0.000000
     27 Si    c      -0.000017      0.000013     -0.000012      0.000000
     28 Si    c       0.000006      0.000016     -0.000008      0.000000
     29 Si    c      -0.000009     -0.000008      0.000020      0.000000
     30 Si    c       0.000066      0.000028     -0.000036      0.000000
     31 Si    c      -0.000020      0.000005      0.000008      0.000000
     32 Si    c       0.000005      0.000030      0.000062      0.000000
     33 Si    c       0.000046     -0.000049      0.000038      0.000000
     34 Si    c       0.000042     -0.000038      0.000107      0.000000
     35 Si    c       0.000007     -0.000011      0.000011      0.000000
     36 Si    c      -0.000009     -0.000001      0.000074      0.000000
     37 Si    c      -0.000066      0.000017      0.000038      0.000000
     38 Si    c      -0.000004      0.000007      0.000055      0.000000
     39 Si    c      -0.000007      0.000008     -0.000007      0.000000
     40 Si    c       0.000004      0.000001     -0.000001      0.000000
     41 Ge    c       0.000013     -0.000028     -0.000128      0.000000
     42 Si    c       0.000022     -0.000011      0.000021      0.000000
     43 Si    c      -0.000008      0.000008      0.000015      0.000000
     44 Si    c       0.000008     -0.000094     -0.000129      0.000000
     45 Si    c      -0.000019      0.000014     -0.000011      0.000000
     46 Si    c       0.000022     -0.000025     -0.000034      0.000000
     47 Si    c       0.000003     -0.000007     -0.000004      0.000000
     48 Si    c      -0.000022      0.000023     -0.000033      0.000000
     49 Si    c      -0.000002      0.000021      0.000037      0.000000
     50 Si    c       0.000002     -0.000003      0.000096      0.000000
     51 Ge    c      -0.000028      0.000041     -0.000053      0.000000
     52 Si    c      -0.000020      0.000033      0.000126      0.000000
     53 Si    c       0.000014     -0.000069      0.000100      0.000000
     54 Si    c      -0.000024      0.000023      0.000149      0.000000
     55 Si    c       0.000008     -0.000009     -0.000032      0.000000
     56 Si    c      -0.000017     -0.000053     -0.000244      0.000000
     57 Si    c       0.000038     -0.000032      0.000035      0.000000
     58 Si    c      -0.000017     -0.000027     -0.000533      0.000000
     59 Si    c      -0.000024      0.000015     -0.000035      0.000000
     60 Si    c       0.000026     -0.000016     -0.000151      0.000000
     61 O2    c      -0.000039      0.000010      0.000093      0.000000
     62 O2    c      -0.000014     -0.000019     -0.000027      0.000000
     63 O3    c       0.000031      0.000008     -0.000040      0.000000
     64 O2    c       0.000012     -0.000039     -0.000054      0.000000
     65 O2    c       0.000012      0.000064     -0.000036      0.000000
     66 O2    c      -0.000020      0.000024     -0.000030      0.000000
     67 O2    c       0.000004     -0.000032      0.000022      0.000000
     68 O2    c      -0.000007      0.000013      0.000008      0.000000
     69 O2    c      -0.000052      0.000038      0.000059      0.000000
     70 O2    c       0.000046     -0.000127     -0.000194      0.000000
     71 O2    c      -0.000015      0.000049     -0.000057      0.000000
     72 O2    c       0.000004     -0.000013      0.000009      0.000000
     73 O3    c       0.000082      0.000057      0.000348      0.000000
     74 O2    c       0.000010      0.000006     -0.000036      0.000000
     75 O2    c       0.000028     -0.000038     -0.000053      0.000000
     76 O2    c       0.000014      0.000004     -0.000028      0.000000
     77 O2    c       0.000021     -0.000020      0.000014      0.000000
     78 O2    c       0.000041     -0.000077      0.000161      0.000000
     79 O2    c       0.000001      0.000046     -0.000040      0.000000
     80 O2    c       0.000005     -0.000003      0.000008      0.000000
     81 O3    c      -0.000005      0.000008     -0.000009      0.000000
     82 O2    c      -0.000019     -0.000002      0.000014      0.000000
     83 O3    c      -0.000160      0.000192     -0.000067      0.000000
     84 O2    c      -0.000006      0.000022     -0.000011      0.000000
     85 O2    c      -0.000010     -0.000015     -0.000019      0.000000
     86 O2    c      -0.000052      0.000059      0.000042      0.000000
     87 O2    c       0.000025     -0.000006     -0.000018      0.000000
     88 O2    c      -0.000005      0.000032     -0.000051      0.000000
     89 O2    c       0.000024     -0.000034     -0.000003      0.000000
     90 O2    c       0.000009     -0.000003     -0.000004      0.000000
     91 O2    c      -0.000042      0.000010      0.000146      0.000000
     92 O3    c       0.000029     -0.000032      0.000313      0.000000
     93 O2    c       0.000092      0.000008      0.000826      0.000000
     94 O2    c       0.000027     -0.000017     -0.000076      0.000000
     95 O2    c      -0.000023     -0.000004      0.000018      0.000000
     96 O2    c       0.000024      0.000015     -0.000158      0.000000
     97 O2    c       0.000015     -0.000014     -0.000041      0.000000
     98 O2    c      -0.000000     -0.000009     -0.000007      0.000000
     99 O3    c      -0.000044     -0.000011      0.000009      0.000000
    100 O2    c       0.000021     -0.000029      0.000016      0.000000
    101 O2    c      -0.000014     -0.000021     -0.000010      0.000000
    102 O2    c       0.000010     -0.000008     -0.000031      0.000000
    103 O2    c      -0.000005     -0.000001     -0.000005      0.000000
    104 O2    c       0.000068     -0.000005      0.000058      0.000000
    105 O2    c      -0.000008     -0.000017     -0.000004      0.000000
    106 O2    c      -0.000110      0.000110     -0.000062      0.000000
    107 O2    c       0.000013      0.000004     -0.000014      0.000000
    108 O2    c      -0.000004      0.000010      0.000021      0.000000
    109 O2    c      -0.000009     -0.000027     -0.000115      0.000000
    110 O2    c       0.000006     -0.000002     -0.000013      0.000000
    111 O2    c      -0.000016      0.000025     -0.000081      0.000000
    112 O2    c      -0.000003      0.000002      0.000026      0.000000
    113 O2    c      -0.000003      0.000003      0.000161      0.000000
    114 O2    c       0.000003     -0.000000     -0.000006      0.000000
    115 O3    c       0.000020     -0.000042      0.000029      0.000000
    116 O2    c      -0.000013      0.000016     -0.000003      0.000000
    117 O2    c      -0.000004     -0.000006      0.000013      0.000000
    118 O2    c      -0.000007      0.000006      0.000011      0.000000
    119 O3    c       0.000006     -0.000045     -0.000003      0.000000
    120 O2    c       0.000002      0.000002      0.000001      0.000000
    121 O2    c      -0.000003      0.000006     -0.000010      0.000000
    122 O2    c      -0.000006     -0.000007     -0.000015      0.000000
    123 O2    c      -0.000010     -0.000007     -0.000023      0.000000
    124 O2    c      -0.000005      0.000008     -0.000008      0.000000
    125 O2    c       0.000002     -0.000007     -0.000005      0.000000
    126 O2    c      -0.000003      0.000007     -0.000001      0.000000
    127 O2    c      -0.000044      0.000018      0.000039      0.000000
    128 O2    c       0.000015     -0.000022     -0.000012      0.000000
    129 O2    c       0.000005      0.000007     -0.000006      0.000000
    130 O2    c      -0.000003      0.000010     -0.000017      0.000000
    131 O2    c      -0.000029      0.000032     -0.000000      0.000000
    132 O2    c      -0.000002     -0.000020     -0.000027      0.000000
    133 O2    c       0.000022     -0.000041      0.000004      0.000000
    134 O2    c      -0.000044      0.000031      0.000075      0.000000
    135 O2    c       0.000003     -0.000000     -0.000000      0.000000
    136 O2    c       0.000020     -0.000010      0.000012      0.000000
    137 O2    c       0.000014     -0.000012      0.000008      0.000000
    138 O2    c      -0.000030     -0.000058      0.000029      0.000000
    139 O2    c       0.000049      0.000014      0.000076      0.000000
    140 O2    c      -0.000002     -0.000013     -0.000029      0.000000
    141 O2    c       0.000000      0.000004     -0.000009      0.000000
    142 O2    c       0.000010      0.000008     -0.000013      0.000000
    143 O2    c      -0.000068      0.000024     -0.000076      0.000000
    144 O2    c      -0.000003     -0.000015     -0.000029      0.000000
    145 O2    c      -0.000010     -0.000017      0.000022      0.000000
    146 O2    c      -0.000001      0.000005     -0.000031      0.000000
    147 O2    c       0.000009      0.000001      0.000021      0.000000
    148 O3    c      -0.000046      0.000068      0.000139      0.000000
    149 O2    c       0.000012     -0.000013      0.000019      0.000000
    150 O2    c       0.000009     -0.000021      0.000010      0.000000
    151 O2    c       0.000002     -0.000056      0.000173      0.000000
    152 O2    c       0.000022     -0.000009     -0.000040      0.000000
    153 O2    c      -0.000003      0.000005     -0.000014      0.000000
    154 O2    c      -0.000001     -0.000000     -0.000010      0.000000
    155 O3    c      -0.000017      0.000016      0.000071      0.000000
    156 O2    c       0.000001     -0.000025      0.000043      0.000000
    157 O2    c      -0.000001      0.000000      0.000001      0.000000
    158 O2    c      -0.000019      0.000029     -0.000078      0.000000
    159 O2    c      -0.000006      0.000009      0.000046      0.000000
    160 O2    c       0.000020      0.000013     -0.000008      0.000000
    161 O2    c       0.000000     -0.000001      0.000017      0.000000
    162 O2    c      -0.000025      0.000010     -0.000025      0.000000
    163 O3    c      -0.000041      0.000022     -0.000133      0.000000
    164 O2    c       0.000009      0.000009      0.000009      0.000000
    165 O2    c      -0.000004      0.000002      0.000010      0.000000
    166 O2    c       0.000000      0.000003      0.000008      0.000000
    167 O2    c       0.000011      0.000007      0.000025      0.000000
    168 O2    c       0.000009      0.000007      0.000056      0.000000
    169 O2    c      -0.000013      0.000009     -0.000004      0.000000
    170 O2    c      -0.000023      0.000004      0.000043      0.000000
    171 O2    c      -0.000007      0.000021      0.000008      0.000000
    172 O2    c       0.000044     -0.000016     -0.000097      0.000000
    173 O2    c       0.000000     -0.000001     -0.000006      0.000000
    174 O2    c      -0.000013      0.000021     -0.000010      0.000000
    175 O2    c       0.000001      0.000018      0.000026      0.000000
    176 O2    c      -0.000005      0.000003      0.000010      0.000000
    177 O3    c       0.000241     -0.000217     -0.000033      0.000000
    178 O2    c      -0.000005      0.000001      0.000000      0.000000
    179 O2    c       0.000031     -0.000007      0.000048      0.000000
    180 O2    c      -0.000004      0.000004      0.000003      0.000000
    181 F     c       0.000000     -0.000009      0.000018      0.000000
    182 F     c       0.000002     -0.000001     -0.000003      0.000000
    183 F     c       0.000001      0.000012      0.000245      0.000000
    184 F     c      -0.000019      0.000017      0.000021      0.000000
    185 F     c      -0.000001     -0.000006     -0.000046      0.000000
    186 F     c       0.000002     -0.000001     -0.000011      0.000000
    187 O2    s       0.000011     -0.000016     -0.000039      0.000000
    188 O2    s       0.000010      0.000004      0.000033      0.000000
    189 O3    s      -0.000016      0.000021      0.000038      0.000000
    190 O2    s       0.000003      0.000013      0.000063      0.000000
    191 O2    s       0.000056     -0.000028     -0.000090      0.000000
    192 O2    s       0.000027      0.000009     -0.000024      0.000000
    193 O2    s      -0.000007     -0.000015      0.000009      0.000000
    194 O2    s       0.000021     -0.000013      0.000021      0.000000
    195 O2    s       0.000011      0.000014      0.000007      0.000000
    196 O2    s      -0.000043      0.000063      0.000097      0.000000
    197 O2    s      -0.000012      0.000003      0.000015      0.000000
    198 O2    s       0.000006      0.000002      0.000009      0.000000
    199 O3    s      -0.000076     -0.000108     -0.000226      0.000000
    200 O2    s      -0.000005      0.000014     -0.000006      0.000000
    201 O2    s       0.000000      0.000013     -0.000002      0.000000
    202 O2    s       0.000002     -0.000006     -0.000007      0.000000
    203 O2    s      -0.000001     -0.000003     -0.000002      0.000000
    204 O2    s      -0.000058      0.000050     -0.000077      0.000000
    205 O2    s      -0.000002     -0.000028      0.000000      0.000000
    206 O2    s       0.000011      0.000002      0.000053      0.000000
    207 O3    s      -0.000016      0.000032      0.000019      0.000000
    208 O2    s      -0.000019      0.000021      0.000003      0.000000
    209 O3    s       0.000043     -0.000028      0.000153      0.000000
    210 O2    s       0.000033     -0.000019      0.000044      0.000000
    211 O2    s       0.000001      0.000008     -0.000011      0.000000
    212 O2    s       0.000020     -0.000001     -0.000084      0.000000
    213 O2    s       0.000023     -0.000012      0.000014      0.000000
    214 O2    s       0.000020     -0.000103     -0.000098      0.000000
    215 O2    s      -0.000014      0.000018     -0.000009      0.000000
    216 O2    s      -0.000002      0.000024     -0.000037      0.000000
    217 O2    s       0.000017     -0.000006     -0.000034      0.000000
    218 O3    s       0.000005     -0.000003     -0.000087      0.000000
    219 O2    s       0.000021     -0.000030     -0.000140      0.000000
    220 O2    s       0.000007     -0.000005      0.000010      0.000000
    221 O2    s       0.000043     -0.000027     -0.000028      0.000000
    222 O2    s      -0.000006      0.000001      0.000040      0.000000
    223 O2    s      -0.000012     -0.000021     -0.000087      0.000000
    224 O2    s       0.000004     -0.000007     -0.000004      0.000000
    225 O3    s       0.000001     -0.000002     -0.000063      0.000000
    226 O2    s       0.000013     -0.000003      0.000012      0.000000
    227 O2    s      -0.000041     -0.000048     -0.000202      0.000000
    228 O2    s      -0.000013      0.000004      0.000003      0.000000
    229 O2    s      -0.000009      0.000010      0.000061      0.000000
    230 O2    s       0.000001      0.000005      0.000009      0.000000
    231 O2    s       0.000011     -0.000019      0.000017      0.000000
    232 O2    s       0.000008      0.000043     -0.000083      0.000000
    233 O2    s       0.000000     -0.000002      0.000007      0.000000
    234 O2    s      -0.000004     -0.000009      0.000038      0.000000
    235 O2    s       0.000000      0.000014      0.000031      0.000000
    236 O2    s       0.000005      0.000002      0.000003      0.000000
    237 O2    s      -0.000026      0.000033     -0.000064      0.000000
    238 O2    s      -0.000005      0.000008      0.000060      0.000000
    239 O2    s      -0.000035     -0.000005      0.000013      0.000000
    240 O2    s       0.000002     -0.000007      0.000014      0.000000
    241 O3    s       0.000009      0.000000     -0.000007      0.000000
    242 O2    s       0.000027      0.000005      0.000074      0.000000
    243 O2    s      -0.000008      0.000003      0.000010      0.000000
    244 O2    s       0.000003      0.000002      0.000012      0.000000
    245 O3    s      -0.000022      0.000052      0.000041      0.000000
    246 O2    s       0.000009     -0.000013      0.000047      0.000000
    247 O2    s      -0.000006      0.000006     -0.000004      0.000000
    248 O2    s      -0.000007      0.000060      0.000008      0.000000
    249 O2    s       0.000002     -0.000006      0.000007      0.000000
    250 O2    s       0.000044     -0.000055      0.000046      0.000000
    251 O2    s      -0.000003      0.000003     -0.000012      0.000000
    252 O2    s      -0.000018      0.000000     -0.000034      0.000000
    253 O2    s       0.000092     -0.000111     -0.000191      0.000000
    254 O2    s      -0.000012      0.000018     -0.000025      0.000000
    255 O2    s      -0.000008      0.000006     -0.000025      0.000000
    256 O2    s      -0.000006     -0.000003     -0.000003      0.000000
    257 O2    s      -0.000029      0.000024     -0.000030      0.000000
    258 O2    s      -0.000007     -0.000001     -0.000014      0.000000
    259 O2    s      -0.000009      0.000000      0.000024      0.000000
    260 O2    s       0.000037     -0.000008      0.000073      0.000000
    261 O2    s      -0.000006      0.000002      0.000028      0.000000
    262 O2    s      -0.000029      0.000013     -0.000002      0.000000
    263 O2    s      -0.000004      0.000002      0.000027      0.000000
    264 O2    s      -0.000014      0.000017      0.000024      0.000000
    265 O2    s      -0.000035      0.000103      0.000077      0.000000
    266 O2    s      -0.000010      0.000018      0.000008      0.000000
    267 O2    s       0.000010     -0.000005     -0.000007      0.000000
    268 O2    s      -0.000006     -0.000003     -0.000008      0.000000
    269 O2    s       0.000011      0.000008     -0.000051      0.000000
    270 O2    s       0.000008      0.000001     -0.000001      0.000000
    271 O2    s       0.000006     -0.000004     -0.000001      0.000000
    272 O2    s       0.000008     -0.000046      0.000061      0.000000
    273 O2    s      -0.000017      0.000009      0.000002      0.000000
    274 O3    s       0.000057     -0.000077     -0.000178      0.000000
    275 O2    s      -0.000010      0.000007     -0.000007      0.000000
    276 O2    s      -0.000018      0.000014      0.000030      0.000000
    277 O2    s       0.000022     -0.000008      0.000040      0.000000
    278 O2    s       0.000002      0.000003      0.000006      0.000000
    279 O2    s       0.000004     -0.000005     -0.000005      0.000000
    280 O2    s       0.000000      0.000005      0.000003      0.000000
    281 O3    s       0.000026     -0.000020     -0.000029      0.000000
    282 O2    s       0.000014     -0.000009      0.000009      0.000000
    283 O2    s       0.000003     -0.000001      0.000006      0.000000
    284 O2    s       0.000016     -0.000001     -0.000054      0.000000
    285 O2    s       0.000011     -0.000001      0.000018      0.000000
    286 O2    s      -0.000009      0.000026      0.000078      0.000000
    287 O2    s       0.000000     -0.000002     -0.000005      0.000000
    288 O2    s      -0.000004      0.000012     -0.000022      0.000000
    289 O3    s       0.000149     -0.000064      0.000329      0.000000
    290 O2    s      -0.000008      0.000020      0.000078      0.000000
    291 O2    s      -0.000002      0.000001     -0.000005      0.000000
    292 O2    s      -0.000001      0.000002      0.000006      0.000000
    293 O2    s       0.000019     -0.000005      0.000001      0.000000
    294 O2    s       0.000017     -0.000011      0.000014      0.000000
    295 O2    s       0.000000     -0.000006     -0.000007      0.000000
    296 O2    s       0.000038     -0.000025     -0.000165      0.000000
    297 O2    s      -0.000005     -0.000014     -0.000059      0.000000
    298 O2    s       0.000063     -0.000022      0.000006      0.000000
    299 O2    s      -0.000001      0.000001      0.000006      0.000000
    300 O2    s       0.000011     -0.000012     -0.000052      0.000000
    301 O2    s      -0.000000      0.000015      0.000036      0.000000
    302 O2    s      -0.000000      0.000003      0.000006      0.000000
    303 O3    s      -0.000242      0.000223      0.000151      0.000000
    304 O2    s       0.000009     -0.000016     -0.000011      0.000000
    305 O2    s       0.000013      0.000009     -0.000013      0.000000
    306 O2    s      -0.000004      0.000001     -0.000002      0.000000
    307 F     s      -0.000001      0.000015     -0.000051      0.000000
    308 F     s      -0.000006      0.000001      0.000001      0.000000
    309 F     s       0.000111     -0.000193     -0.000098      0.000000
    310 F     s      -0.000026     -0.000004      0.000024      0.000000
    311 F     s       0.000004      0.000017      0.000122      0.000000
    312 F     s      -0.000006      0.000005      0.000015      0.000000
--------------------------------------------------------------------------------
  Maximum abs         0.000242      0.000223      0.000826      0.000000
--------------------------------------------------------------------------------


  Time to end of optimisation =      13.8966 seconds


  Peak dynamic memory used =      19.13 MB 


  Timing analysis for GULP :

--------------------------------------------------------------------------------
  Task / Subroutine                                          Time (Seconds)
--------------------------------------------------------------------------------
  Calculation of reciprocal space energy and derivatives          0.4645
  Calculation of real space energy and derivatives               11.7101
  Calculation of three-body energy and derivatives                1.2918
  Calculation of matrix inversion                                 0.3137
--------------------------------------------------------------------------------
  Total CPU time                                                 13.8967
--------------------------------------------------------------------------------


  Dump file written as out.res                                                 
  CIF file written as out.cif                                                 


  Job Finished at 14:07.05 28th November   2016                               

