********************************************************************************
*                       GENERAL UTILITY LATTICE PROGRAM                        *
*                                 Julian Gale                                  *
*                      Nanochemistry Research Institute                        *
*                           Department of Chemistry                            *
*                    Curtin University, Western Australia                      *
********************************************************************************
* Version = 4.2.0 * Last modified =  20th January 2014                         *
********************************************************************************
*  optimise     - perform optimisation run                                     *
*  conp         - constant pressure calculation                                *
*  qok          - running with non charge neutral cell is OK                   *
********************************************************************************

  Job Started  at 19:25.12 27th November   2016                               

  Number of CPUs =     1


  Total number of configurations input =   1

********************************************************************************
*  Input for Configuration =   1                                               *
********************************************************************************

  Formula = Si57Ge3O120F6                                               

  Number of irreducible atoms/shells =     312


  Total number atoms/shells =     312

  Dimensionality = 3               :  Bulk   


  Charge on solid   =  -6.000000 =>neutralising background added


  Cartesian lattice vectors (Angstroms) :

       11.982088    0.000000    0.000000
       -5.898374   10.353191    0.000000
       -0.048463    0.021708   29.540229

  Cell parameters (Angstroms/Degrees):

  a =      11.9821    alpha =  89.9169
  b =      11.9155    beta  =  90.0940
  c =      29.5403    gamma = 119.6708

  Initial cell volume =        3664.549484 Angs**3

  Temperature of configuration =  0.000     K 

  Pressure of configuration =         0.000 GPa 

  Fractional coordinates of asymmetric unit :

--------------------------------------------------------------------------------
   No.  Atomic       x           y          z         Charge      Occupancy
        Label      (Frac)      (Frac)     (Frac)        (e)         (Frac)  
--------------------------------------------------------------------------------
      1 Si    c    0.699600    0.375700    0.033890     4.00000    1.000000    
      2 Si    c    0.619932 *  0.324093 *  0.367218 *   4.00000    1.000000    
      3 Si    c    0.678142 *  0.291397 *  0.699899 *   4.00000    1.000000    
      4 Si    c    0.306239 *  0.621761 *  0.533408 *   4.00000    1.000000    
      5 Si    c    0.383751 *  0.672188 *  0.869250 *   4.00000    1.000000    
      6 Si    c    0.325782 *  0.705455 *  0.199957 *   4.00000    1.000000    
      7 Si    c    0.380305 *  0.706186 *  0.300228 *   4.00000    1.000000    
      8 Si    c    0.325444 *  0.619480 *  0.971172 *   4.00000    1.000000    
      9 Si    c    0.300196 *  0.672107 *  0.635532 *   4.00000    1.000000    
     10 Si    c    0.625442 *  0.293239 *  0.800279 *   4.00000    1.000000    
     11 Si    c    0.667880 *  0.376773 *  0.467521 *   4.00000    1.000000    
     12 Si    c    0.704428 *  0.325383 *  0.135441 *   4.00000    1.000000    
     13 Ge    c    0.531917 *  0.428635 *  0.967166 *   4.00000    1.000000    
     14 Si    c    0.582201 *  0.114480 *  0.301827 *   4.00000    1.000000    
     15 Si    c    0.886316 *  0.465329 *  0.635383 *   4.00000    1.000000    
     16 Si    c    0.471105 *  0.587826 *  0.466851 *   4.00000    1.000000    
     17 Si    c    0.423657 *  0.882496 *  0.802669 *   4.00000    1.000000    
     18 Si    c    0.115366 *  0.532823 *  0.135456 *   4.00000    1.000000    
     19 Si    c    0.419988 *  0.535790 *  0.365691 *   4.00000    1.000000    
     20 Si    c    0.111794 *  0.582145 *  0.034353 *   4.00000    1.000000    
     21 Si    c    0.472593 *  0.881909 *  0.701358 *   4.00000    1.000000    
     22 Si    c    0.595155 *  0.462620 *  0.868092 *   4.00000    1.000000    
     23 Si    c    0.876655 *  0.407391 *  0.532066 *   4.00000    1.000000    
     24 Si    c    0.530637 *  0.116042 *  0.200295 *   4.00000    1.000000    
     25 Si    c    0.308697 *  0.389976 *  0.855051 *   4.00000    1.000000    
     26 Si    c    0.603024 *  0.906203 *  0.185606 *   4.00000    1.000000    
     27 Si    c    0.094407 *  0.691413 *  0.517176 *   4.00000    1.000000    
     28 Si    c    0.700240 *  0.604120 *  0.353056 *   4.00000    1.000000    
     29 Si    c    0.399836 *  0.091011 *  0.687144 *   4.00000    1.000000    
     30 Si    c    0.904588 *  0.302045 *  0.020981 *   4.00000    1.000000    
     31 Si    c    0.391875 *  0.303753 *  0.481983 *   4.00000    1.000000    
     32 Si    c    0.905869 *  0.603659 *  0.149533 *   4.00000    1.000000    
     33 Si    c    0.702852 *  0.091201 *  0.816033 *   4.00000    1.000000    
     34 Si    c    0.608367 *  0.702163 *  0.989168 *   4.00000    1.000000    
     35 Si    c    0.097237 *  0.390908 *  0.653965 *   4.00000    1.000000    
     36 Si    c    0.302273 *  0.906961 *  0.315703 *   4.00000    1.000000    
     37 Si    c    0.252870 *  0.331125 *  0.956959 *   4.00000    1.000000    
     38 Si    c    0.660464 *  0.912798 *  0.286117 *   4.00000    1.000000    
     39 Si    c    0.087154 *  0.746867 *  0.618668 *   4.00000    1.000000    
     40 Si    c    0.747452 *  0.659876 *  0.453486 *   4.00000    1.000000    
     41 Si    c    0.344623 *  0.084193 *  0.787736 *   4.00000    1.000000    
     42 Si    c    0.914800 *  0.254737 *  0.121225 *   4.00000    1.000000    
     43 Si    c    0.340141 *  0.255252 *  0.380934 *   4.00000    1.000000    
     44 Si    c    0.909484 *  0.658220 *  0.048831 *   4.00000    1.000000    
     45 Si    c    0.750971 *  0.081878 *  0.715466 *   4.00000    1.000000    
     46 Si    c    0.668220 *  0.743319 *  0.886446 *   4.00000    1.000000    
     47 Ge    c    0.089411 *  0.357973 *  0.554331 *   4.00000    1.000000    
     48 Si    c    0.253122 *  0.915036 *  0.215161 *   4.00000    1.000000    
     49 Si    c    0.968987 *  0.120742 *  0.970141 *   4.00000    1.000000    
     50 Si    c    0.879166 *  0.850928 *  0.301739 *   4.00000    1.000000    
     51 Si    c    0.154427 *  0.030587 *  0.636231 *   4.00000    1.000000    
     52 Ge    c    0.029890 *  0.882381 *  0.469299 *   4.00000    1.000000    
     53 Si    c    0.124924 *  0.143056 *  0.804578 *   4.00000    1.000000    
     54 Si    c    0.852471 *  0.975001 *  0.136828 *   4.00000    1.000000    
     55 Si    c    0.123396 *  0.977552 *  0.365797 *   4.00000    1.000000    
     56 Si    c    0.853288 *  0.883298 *  0.036487 *   4.00000    1.000000    
     57 Si    c    0.030957 *  0.145721 *  0.704177 *   4.00000    1.000000    
     58 Si    c    0.881756 *  0.024636 *  0.869189 *   4.00000    1.000000    
     59 Si    c    0.148149 *  0.131388 *  0.536572 *   4.00000    1.000000    
     60 Si    c    0.973127 *  0.850869 *  0.201198 *   4.00000    1.000000    
     61 O2    c    0.934445 *  0.001917 *  0.003145 *   0.87073    1.000000    
     62 O2    c    0.999934 *  0.933367 *  0.334050 *   0.87073    1.000000    
     63 O2    c    0.077818 *  0.069891 *  0.671532 *   0.87073    1.000000    
     64 O3    c    0.069331 *  0.002092 *  0.507306 *   1.33043    1.000000    
     65 O2    c    0.006568 *  0.064758 *  0.838452 *   0.87073    1.000000    
     66 O2    c    0.929751 *  0.932697 *  0.170328 *   0.87073    1.000000    
     67 O2    c    0.342843 *  0.582989 *  0.332882 *   0.87073    1.000000    
     68 O2    c    0.420752 *  0.756760 *  0.668586 *   0.87073    1.000000    
     69 O2    c    0.237483 *  0.657502 *  0.001612 *   0.87073    1.000000    
     70 O2    c    0.666766 *  0.420671 *  0.830519 *   0.87073    1.000000    
     71 O2    c    0.581433 *  0.242211 *  0.168109 *   0.87073    1.000000    
     72 O2    c    0.748127 *  0.336571 *  0.501752 *   0.87073    1.000000    
     73 O3    c    0.581067 *  0.340309 *  0.002414 *   1.33043    1.000000    
     74 O2    c    0.761145 *  0.415646 *  0.667584 *   0.87073    1.000000    
     75 O2    c    0.658326 *  0.239189 *  0.334524 *   0.87073    1.000000    
     76 O2    c    0.429267 *  0.670114 *  0.499914 *   0.87073    1.000000    
     77 O2    c    0.241538 *  0.582515 *  0.167385 *   0.87073    1.000000    
     78 O2    c    0.348739 *  0.757282 *  0.835606 *   0.87073    1.000000    
     79 O2    c    0.120881 *  0.211818 *  0.974978 *   0.87073    1.000000    
     80 O2    c    0.786912 *  0.913363 *  0.306139 *   0.87073    1.000000    
     81 O2    c    0.089922 *  0.874050 *  0.638810 *   0.87073    1.000000    
     82 O3    c    0.866973 *  0.782688 *  0.475566 *   1.33043    1.000000    
     83 O2    c    0.217740 *  0.080934 *  0.808580 *   0.87073    1.000000    
     84 O2    c    0.915053 *  0.129008 *  0.142277 *   0.87073    1.000000    
     85 O2    c    0.215798 *  0.131560 *  0.359127 *   0.87073    1.000000    
     86 O2    c    0.907409 *  0.784659 *  0.029142 *   0.87073    1.000000    
     87 O2    c    0.877262 *  0.080462 *  0.696463 *   0.87073    1.000000    
     88 O2    c    0.789950 *  0.870105 *  0.864941 *   0.87073    1.000000    
     89 O3    c    0.083197 *  0.215787 *  0.531942 *   1.33043    1.000000    
     90 O2    c    0.126679 *  0.914896 *  0.195295 *   0.87073    1.000000    
     91 O2    c    0.933271 *  0.860629 *  0.251852 *   0.87073    1.000000    
     92 O2    c    0.146321 *  0.078566 *  0.587193 *   0.87073    1.000000    
     93 O2    c    0.928498 *  0.066223 *  0.919820 *   0.87073    1.000000    
     94 O2    c    0.066333 *  0.127399 *  0.754921 *   0.87073    1.000000    
     95 O2    c    0.872295 *  0.936166 *  0.086997 *   0.87073    1.000000    
     96 O3    c    0.073370 *  0.946730 *  0.416346 *   1.33043    1.000000    
     97 O2    c    0.899182 *  0.202319 *  0.982255 *   0.87073    1.000000    
     98 O2    c    0.798674 *  0.699907 *  0.314843 *   0.87073    1.000000    
     99 O2    c    0.304446 *  0.093606 *  0.648967 *   0.87073    1.000000    
    100 O3    c    0.100869 *  0.787949 *  0.478752 *   1.33043    1.000000    
    101 O2    c    0.210229 *  0.295048 *  0.816552 *   0.87073    1.000000    
    102 O2    c    0.700328 *  0.905579 *  0.147379 *   0.87073    1.000000    
    103 O2    c    0.204025 *  0.905314 *  0.354058 *   0.87073    1.000000    
    104 O2    c    0.701792 *  0.813951 *  0.024604 *   0.87073    1.000000    
    105 O2    c    0.095956 *  0.299648 *  0.695745 *   0.87073    1.000000    
    106 O2    c    0.802144 *  0.094831 *  0.854072 *   0.87073    1.000000    
    107 O2    c    0.298088 *  0.209304 *  0.520934 *   0.87073    1.000000    
    108 O2    c    0.903909 *  0.700196 *  0.187877 *   0.87073    1.000000    
    109 O2    c    0.324212 *  0.647583 *  0.250195 *   0.87073    1.000000    
    110 O2    c    0.355394 *  0.671108 *  0.585442 *   0.87073    1.000000    
    111 O2    c    0.328978 *  0.670079 *  0.919486 *   0.87073    1.000000    
    112 O2    c    0.680196 *  0.348446 *  0.749963 *   0.87073    1.000000    
    113 O2    c    0.649027 *  0.324636 *  0.085362 *   0.87073    1.000000    
    114 O2    c    0.674036 *  0.320791 *  0.417701 *   0.87073    1.000000    
    115 O3    c    0.365335 *  0.313447 *  0.976651 *   1.33043    1.000000    
    116 O2    c    0.669712 *  0.045226 *  0.304611 *   0.87073    1.000000    
    117 O2    c    0.958188 *  0.622205 *  0.637250 *   0.87073    1.000000    
    118 O2    c    0.625604 *  0.672884 *  0.469749 *   0.87073    1.000000    
    119 O2    c    0.336507 *  0.951749 *  0.806024 *   0.87073    1.000000    
    120 O2    c    0.047209 *  0.376422 *  0.139468 *   0.87073    1.000000    
    121 O2    c    0.333226 *  0.379648 *  0.362598 *   0.87073    1.000000    
    122 O2    c    0.043767 *  0.670767 *  0.030775 *   0.87073    1.000000    
    123 O2    c    0.628046 *  0.949352 *  0.697482 *   0.87073    1.000000    
    124 O2    c    0.678208 *  0.621232 *  0.867838 *   0.87073    1.000000    
    125 O3    c    0.940106 *  0.318432 *  0.528787 *   1.33043    1.000000    
    126 O2    c    0.374905 *  0.047863 *  0.197067 *   0.87073    1.000000    
    127 O2    c    0.771049 *  0.300693 *  0.013597 *   0.87073    1.000000    
    128 O2    c    0.696630 *  0.467872 *  0.345115 *   0.87073    1.000000    
    129 O2    c    0.534394 *  0.222826 *  0.678593 *   0.87073    1.000000    
    130 O2    c    0.228742 *  0.691575 *  0.514355 *   0.87073    1.000000    
    131 O2    c    0.312192 *  0.526886 *  0.849228 *   0.87073    1.000000    
    132 O2    c    0.469010 *  0.772987 *  0.177942 *   0.87073    1.000000    
    133 O2    c    0.303761 *  0.772911 *  0.322947 *   0.87073    1.000000    
    134 O2    c    0.469607 *  0.696550 *  0.991592 *   0.87073    1.000000    
    135 O2    c    0.229401 *  0.529609 *  0.658404 *   0.87073    1.000000    
    136 O2    c    0.699658 *  0.224116 *  0.823064 *   0.87073    1.000000    
    137 O2    c    0.524929 *  0.301466 *  0.489102 *   0.87073    1.000000    
    138 O2    c    0.773904 *  0.469112 *  0.157555 *   0.87073    1.000000    
    139 O2    c    0.787223 *  0.532786 *  0.028683 *   0.87073    1.000000    
    140 O2    c    0.464729 *  0.251506 *  0.362406 *   0.87073    1.000000    
    141 O2    c    0.751222 *  0.207826 *  0.695036 *   0.87073    1.000000    
    142 O3    c    0.234054 *  0.469221 *  0.527314 *   1.33043    1.000000    
    143 O2    c    0.537497 *  0.735427 *  0.868340 *   0.87073    1.000000    
    144 O2    c    0.252491 *  0.788769 *  0.195291 *   0.87073    1.000000    
    145 O2    c    0.535729 *  0.786540 *  0.305522 *   0.87073    1.000000    
    146 O2    c    0.261109 *  0.464803 *  0.974156 *   0.87073    1.000000    
    147 O2    c    0.210491 *  0.738319 *  0.635599 *   0.87073    1.000000    
    148 O2    c    0.469949 *  0.211608 *  0.806269 *   0.87073    1.000000    
    149 O2    c    0.746152 *  0.532739 *  0.473253 *   0.87073    1.000000    
    150 O2    c    0.787800 *  0.252357 *  0.140475 *   0.87073    1.000000    
    151 O2    c    0.242522 *  0.320306 *  0.901889 *   0.87073    1.000000    
    152 O2    c    0.677311 *  0.910403 *  0.231945 *   0.87073    1.000000    
    153 O2    c    0.083526 *  0.755647 *  0.564443 *   0.87073    1.000000    
    154 O2    c    0.772604 *  0.677980 *  0.399283 *   0.87073    1.000000    
    155 O2    c    0.326645 *  0.087482 *  0.733646 *   0.87073    1.000000    
    156 O2    c    0.912968 *  0.232704 *  0.067115 *   0.87073    1.000000    
    157 O2    c    0.319210 *  0.234770 *  0.435135 *   0.87073    1.000000    
    158 O2    c    0.907700 *  0.676296 *  0.103015 *   0.87073    1.000000    
    159 O2    c    0.771051 *  0.085654 *  0.769596 *   0.87073    1.000000    
    160 O2    c    0.680265 *  0.759717 *  0.940453 *   0.87073    1.000000    
    161 O3    c    0.094008 *  0.309132 *  0.611245 *   1.33043    1.000000    
    162 O2    c    0.233171 *  0.912665 *  0.269338 *   0.87073    1.000000    
    163 O3    c    0.601966 *  0.571210 *  0.002282 *   1.33043    1.000000    
    164 O2    c    0.441441 *  0.031229 *  0.324809 *   0.87073    1.000000    
    165 O2    c    0.973713 *  0.412136 *  0.658610 *   0.87073    1.000000    
    166 O2    c    0.411501 *  0.446124 *  0.489691 *   0.87073    1.000000    
    167 O2    c    0.564995 *  0.964299 *  0.825307 *   0.87073    1.000000    
    168 O2    c    0.032579 *  0.591854 *  0.158430 *   0.87073    1.000000    
    169 O2    c    0.562518 *  0.593795 *  0.344181 *   0.87073    1.000000    
    170 O2    c    0.030485 *  0.440689 *  0.011018 *   0.87073    1.000000    
    171 O2    c    0.411508 *  0.963376 *  0.678668 *   0.87073    1.000000    
    172 O2    c    0.450054 *  0.410023 *  0.847749 *   0.87073    1.000000    
    173 O2    c    0.971659 *  0.550060 *  0.510391 *   0.87073    1.000000    
    174 O2    c    0.587609 *  0.031473 *  0.177193 *   0.87073    1.000000    
    175 O2    c    0.582252 *  0.168192 *  0.251179 *   0.87073    1.000000    
    176 O2    c    0.835837 *  0.415105 *  0.584642 *   0.87073    1.000000    
    177 O3    c    0.601926 *  0.406436 *  0.915849 *   1.33043    1.000000    
    178 O2    c    0.421364 *  0.827096 *  0.752139 *   0.87073    1.000000    
    179 O2    c    0.168939 *  0.584811 *  0.084588 *   0.87073    1.000000    
    180 O2    c    0.417392 *  0.588413 *  0.416301 *   0.87073    1.000000    
    181 F     c    0.452144 *  0.905811 *  0.250998 *   0.56000    1.000000    
    182 F     c    0.092321 *  0.506605 *  0.580322 *   0.56000    1.000000    
    183 F     c    0.477206 *  0.520707 *  0.929662 *   0.56000    1.000000    
    184 F     c    0.549760 *  0.087451 *  0.751279 *   0.56000    1.000000    
    185 F     c    0.912892 *  0.454782 *  0.085109 *   0.56000    1.000000    
    186 F     c    0.549961 *  0.454961 *  0.417009 *   0.56000    1.000000    
    187 O2    s    0.929191 *  0.002030 *  0.003150 *  -2.87073    1.000000    
    188 O2    s    0.000112 *  0.929044 *  0.333944 *  -2.87073    1.000000    
    189 O2    s    0.081031 *  0.073968 *  0.671287 *  -2.87073    1.000000    
    190 O3    s    0.073636 *  0.004074 *  0.506743 *  -3.33043    1.000000    
    191 O2    s    0.005987 *  0.069003 *  0.838068 *  -2.87073    1.000000    
    192 O2    s    0.925890 *  0.928215 *  0.170023 *  -2.87073    1.000000    
    193 O2    s    0.354748 *  0.590779 *  0.332927 *  -2.87073    1.000000    
    194 O2    s    0.413437 *  0.760765 *  0.668484 *  -2.87073    1.000000    
    195 O2    s    0.234409 *  0.646022 *  0.001598 *  -2.87073    1.000000    
    196 O2    s    0.655173 *  0.411509 *  0.831123 *  -2.87073    1.000000    
    197 O2    s    0.588720 *  0.237636 *  0.168104 *  -2.87073    1.000000    
    198 O2    s    0.753518 *  0.348284 *  0.501441 *  -2.87073    1.000000    
    199 O3    s    0.590459 *  0.350294 *  0.003357 *  -3.33043    1.000000    
    200 O2    s    0.765562 *  0.408020 *  0.667589 *  -2.87073    1.000000    
    201 O2    s    0.646545 *  0.235089 *  0.334534 *  -2.87073    1.000000    
    202 O2    s    0.420988 *  0.657089 *  0.500031 *  -2.87073    1.000000    
    203 O2    s    0.237329 *  0.590147 *  0.167488 *  -2.87073    1.000000    
    204 O2    s    0.360017 *  0.760950 *  0.835836 *  -2.87073    1.000000    
    205 O2    s    0.118244 *  0.214667 *  0.972475 *  -2.87073    1.000000    
    206 O2    s    0.783612 *  0.906677 *  0.303622 *  -2.87073    1.000000    
    207 O2    s    0.096152 *  0.876352 *  0.636427 *  -2.87073    1.000000    
    208 O3    s    0.868319 *  0.778473 *  0.472824 *  -3.33043    1.000000    
    209 O2    s    0.221032 *  0.087833 *  0.806034 *  -2.87073    1.000000    
    210 O2    s    0.908287 *  0.125454 *  0.139536 *  -2.87073    1.000000    
    211 O2    s    0.218976 *  0.128222 *  0.362048 *  -2.87073    1.000000    
    212 O2    s    0.901853 *  0.782180 *  0.031915 *  -2.87073    1.000000    
    213 O2    s    0.880135 *  0.087362 *  0.699204 *  -2.87073    1.000000    
    214 O2    s    0.787056 *  0.873325 *  0.867594 *  -2.87073    1.000000    
    215 O3    s    0.091084 *  0.215799 *  0.533978 *  -3.33043    1.000000    
    216 O2    s    0.123485 *  0.908136 *  0.197949 *  -2.87073    1.000000    
    217 O2    s    0.931630 *  0.858424 *  0.251790 *  -2.87073    1.000000    
    218 O2    s    0.147502 *  0.078381 *  0.587755 *  -2.87073    1.000000    
    219 O2    s    0.927619 *  0.067493 *  0.919582 *  -2.87073    1.000000    
    220 O2    s    0.069017 *  0.131186 *  0.754886 *  -2.87073    1.000000    
    221 O2    s    0.867881 *  0.934489 *  0.086830 *  -2.87073    1.000000    
    222 O3    s    0.074902 *  0.944351 *  0.415596 *  -3.33043    1.000000    
    223 O2    s    0.907334 *  0.203500 *  0.984836 *  -2.87073    1.000000    
    224 O2    s    0.797146 *  0.706173 *  0.317375 *  -2.87073    1.000000    
    225 O2    s    0.298499 *  0.086576 *  0.651654 *  -2.87073    1.000000    
    226 O3    s    0.094646 *  0.785491 *  0.481922 *  -3.33043    1.000000    
    227 O2    s    0.211359 *  0.288834 *  0.819222 *  -2.87073    1.000000    
    228 O2    s    0.706439 *  0.912935 *  0.150146 *  -2.87073    1.000000    
    229 O2    s    0.205533 *  0.912984 *  0.351426 *  -2.87073    1.000000    
    230 O2    s    0.708134 *  0.809916 *  0.022255 *  -2.87073    1.000000    
    231 O2    s    0.089326 *  0.292607 *  0.692573 *  -2.87073    1.000000    
    232 O2    s    0.800345 *  0.086933 *  0.851723 *  -2.87073    1.000000    
    233 O2    s    0.292922 *  0.211426 *  0.518394 *  -2.87073    1.000000    
    234 O2    s    0.911553 *  0.706472 *  0.185372 *  -2.87073    1.000000    
    235 O2    s    0.330121 *  0.659494 *  0.250193 *  -2.87073    1.000000    
    236 O2    s    0.344925 *  0.666408 *  0.585603 *  -2.87073    1.000000    
    237 O2    s    0.334362 *  0.665261 *  0.919381 *  -2.87073    1.000000    
    238 O2    s    0.674305 *  0.336724 *  0.749934 *  -2.87073    1.000000    
    239 O2    s    0.659912 *  0.329785 *  0.085554 *  -2.87073    1.000000    
    240 O2    s    0.667951 *  0.326805 *  0.417631 *  -2.87073    1.000000    
    241 O3    s    0.364326 *  0.323064 *  0.973862 *  -3.33043    1.000000    
    242 O2    s    0.659734 *  0.038507 *  0.302379 *  -2.87073    1.000000    
    243 O2    s    0.964309 *  0.619218 *  0.635125 *  -2.87073    1.000000    
    244 O2    s    0.621993 *  0.662375 *  0.467685 *  -2.87073    1.000000    
    245 O2    s    0.346423 *  0.958295 *  0.803762 *  -2.87073    1.000000    
    246 O2    s    0.040378 *  0.379794 *  0.137134 *  -2.87073    1.000000    
    247 O2    s    0.342984 *  0.382668 *  0.364880 *  -2.87073    1.000000    
    248 O2    s    0.037179 *  0.660382 *  0.032980 *  -2.87073    1.000000    
    249 O2    s    0.624782 *  0.956112 *  0.699751 *  -2.87073    1.000000    
    250 O2    s    0.669078 *  0.618799 *  0.869856 *  -2.87073    1.000000    
    251 O3    s    0.944095 *  0.330565 *  0.530974 *  -3.33043    1.000000    
    252 O2    s    0.378156 *  0.041009 *  0.199293 *  -2.87073    1.000000    
    253 O2    s    0.778419 *  0.308478 *  0.016512 *  -2.87073    1.000000    
    254 O2    s    0.689127 *  0.467450 *  0.348259 *  -2.87073    1.000000    
    255 O2    s    0.535165 *  0.216053 *  0.681740 *  -2.87073    1.000000    
    256 O2    s    0.222299 *  0.684282 *  0.516680 *  -2.87073    1.000000    
    257 O2    s    0.319339 *  0.527885 *  0.851945 *  -2.87073    1.000000    
    258 O2    s    0.468462 *  0.780084 *  0.181026 *  -2.87073    1.000000    
    259 O2    s    0.311435 *  0.780195 *  0.319830 *  -2.87073    1.000000    
    260 O2    s    0.468462 *  0.689031 *  0.989175 *  -2.87073    1.000000    
    261 O2    s    0.223395 *  0.530372 *  0.655560 *  -2.87073    1.000000    
    262 O2    s    0.692337 *  0.217063 *  0.819938 *  -2.87073    1.000000    
    263 O2    s    0.525965 *  0.309575 *  0.486055 *  -2.87073    1.000000    
    264 O2    s    0.780730 *  0.468567 *  0.154408 *  -2.87073    1.000000    
    265 O2    s    0.792364 *  0.531191 *  0.031406 *  -2.87073    1.000000    
    266 O2    s    0.467503 *  0.259635 *  0.364906 *  -2.87073    1.000000    
    267 O2    s    0.743524 *  0.202886 *  0.697693 *  -2.87073    1.000000    
    268 O3    s    0.230700 *  0.476806 *  0.529926 *  -3.33043    1.000000    
    269 O2    s    0.534845 *  0.729350 *  0.870371 *  -2.87073    1.000000    
    270 O2    s    0.260338 *  0.793884 *  0.197911 *  -2.87073    1.000000    
    271 O2    s    0.533119 *  0.791998 *  0.302895 *  -2.87073    1.000000    
    272 O2    s    0.267407 *  0.467905 *  0.972079 *  -2.87073    1.000000    
    273 O2    s    0.206520 *  0.732169 *  0.633765 *  -2.87073    1.000000    
    274 O2    s    0.472345 *  0.206105 *  0.803684 *  -2.87073    1.000000    
    275 O2    s    0.738099 *  0.530105 *  0.470563 *  -2.87073    1.000000    
    276 O2    s    0.792949 *  0.260344 *  0.137890 *  -2.87073    1.000000    
    277 O2    s    0.250775 *  0.328948 *  0.902319 *  -2.87073    1.000000    
    278 O2    s    0.667746 *  0.910226 *  0.232832 *  -2.87073    1.000000    
    279 O2    s    0.084941 *  0.748262 *  0.565547 *  -2.87073    1.000000    
    280 O2    s    0.762643 *  0.668541 *  0.400101 *  -2.87073    1.000000    
    281 O2    s    0.336215 *  0.087499 *  0.734543 *  -2.87073    1.000000    
    282 O2    s    0.912325 *  0.242232 *  0.067989 *  -2.87073    1.000000    
    283 O2    s    0.328827 *  0.243945 *  0.434302 *  -2.87073    1.000000    
    284 O2    s    0.907712 *  0.666747 *  0.102201 *  -2.87073    1.000000    
    285 O2    s    0.761658 *  0.085823 *  0.768743 *  -2.87073    1.000000    
    286 O2    s    0.671978 *  0.752285 *  0.939262 *  -2.87073    1.000000    
    287 O3    s    0.094036 *  0.320991 *  0.611808 *  -3.33043    1.000000    
    288 O2    s    0.242562 *  0.912333 *  0.268495 *  -2.87073    1.000000    
    289 O3    s    0.597790 *  0.575974 *  0.998536 *  -3.33043    1.000000    
    290 O2    s    0.441117 *  0.026343 *  0.321431 *  -2.87073    1.000000    
    291 O2    s    0.977401 *  0.415671 *  0.655677 *  -2.87073    1.000000    
    292 O2    s    0.415909 *  0.445648 *  0.486419 *  -2.87073    1.000000    
    293 O2    s    0.564793 *  0.969271 *  0.821954 *  -2.87073    1.000000    
    294 O2    s    0.027458 *  0.586799 *  0.155068 *  -2.87073    1.000000    
    295 O2    s    0.562403 *  0.588670 *  0.347401 *  -2.87073    1.000000    
    296 O2    s    0.025550 *  0.440757 *  0.014480 *  -2.87073    1.000000    
    297 O2    s    0.416787 *  0.968603 *  0.681969 *  -2.87073    1.000000    
    298 O2    s    0.448673 *  0.413089 *  0.850566 *  -2.87073    1.000000    
    299 O2    s    0.975667 *  0.551184 *  0.513288 *  -2.87073    1.000000    
    300 O2    s    0.583156 *  0.026582 *  0.180520 *  -2.87073    1.000000    
    301 O2    s    0.576901 *  0.157228 *  0.251169 *  -2.87073    1.000000    
    302 O2    s    0.845227 *  0.419716 *  0.584927 *  -2.87073    1.000000    
    303 O3    s    0.596686 *  0.413854 *  0.914082 *  -3.33043    1.000000    
    304 O2    s    0.426856 *  0.838418 *  0.752154 *  -2.87073    1.000000    
    305 O2    s    0.157550 *  0.579214 *  0.084581 *  -2.87073    1.000000    
    306 O2    s    0.423196 *  0.582955 *  0.416333 *  -2.87073    1.000000    
    307 F     s    0.451860 *  0.905276 *  0.251050 *  -1.56000    1.000000    
    308 F     s    0.092358 *  0.497591 *  0.578866 *  -1.56000    1.000000    
    309 F     s    0.481064 *  0.514742 *  0.932096 *  -1.56000    1.000000    
    310 F     s    0.549767 *  0.087482 *  0.751272 *  -1.56000    1.000000    
    311 F     s    0.913437 *  0.454834 *  0.085123 *  -1.56000    1.000000    
    312 F     s    0.550568 *  0.454855 *  0.417021 *  -1.56000    1.000000    
--------------------------------------------------------------------------------



********************************************************************************
*  General input information                                                   *
********************************************************************************

  Species output for all configurations : 

--------------------------------------------------------------------------------
  Species    Type    Atomic    Atomic    Charge       Radii (Angs)     Library
                     Number     Mass       (e)     Cova   Ionic  VDW   Symbol
--------------------------------------------------------------------------------
    Si       Core       14      28.09   4.000000   1.200  0.000  2.100          
    O1       Core        8      16.00   1.733957   0.730  0.000  1.360          
    O1       Shell       8       0.00  -3.733957   0.730  0.000  1.360          
    O2       Core        8      16.00   0.870733   0.730  0.000  1.360          
    O2       Shell       8       0.00  -2.870733   0.730  0.000  1.360          
    O3       Core        8      16.00   1.330431   0.730  0.000  1.360          
    O3       Shell       8       0.00  -3.330431   0.730  0.000  1.360          
    F        Core        9      19.00   0.560000   0.710  0.000  1.300          
    F        Shell       9       0.00  -1.560000   0.710  0.000  1.300          
    Ge       Core       32      72.61   4.000000   1.170  0.000  1.750          
--------------------------------------------------------------------------------


  Lattice summation method               =    Ewald          (3-D)
                                         =    Parry          (2-D)
                                         =    Saunders et al (1-D)
  Accuracy factor for lattice sums       =   12.000


  Time limit = Infinity

  Maximum range for interatomic potentials =        16.000000 Angstroms

  Taper potentials to zero over   1.0000 Angstroms using polynomial

  General interatomic potentials :

--------------------------------------------------------------------------------
Atom  Types   Potential         A         B         C         D     Cutoffs(Ang)
  1     2                                                            Min    Max 
--------------------------------------------------------------------------------
Si   c O1   s Buckingham    0.132E+04 0.318      10.1      0.00     0.000 16.000
Si   c O2   s Buckingham    0.132E+04 0.318      10.1      0.00     0.000 16.000
Si   c O3   s Buckingham    0.132E+04 0.318      10.1      0.00     0.000 16.000
Ge   c O1   s Buckingham    0.150E+04 0.326      16.8      0.00     0.000 16.000
Ge   c O2   s Buckingham    0.150E+04 0.326      16.8      0.00     0.000 16.000
Ge   c O3   s Buckingham    0.150E+04 0.326      16.8      0.00     0.000 16.000
O1   s O1   s Buckingham    0.228E+05 0.149      10.9      0.00     0.000 16.000
O1   s O2   s Buckingham    0.228E+05 0.149      10.9      0.00     0.000 16.000
O1   s O3   s Buckingham    0.228E+05 0.149      10.9      0.00     0.000 16.000
O2   s O2   s Buckingham    0.228E+05 0.149      10.9      0.00     0.000 16.000
O2   s O3   s Buckingham    0.228E+05 0.149      10.9      0.00     0.000 16.000
O3   s O3   s Buckingham    0.228E+05 0.149      10.9      0.00     0.000 16.000
Si   c F    s Buckingham     977.     0.282      0.00      0.00     0.000 16.000
Ge   c F    s Buckingham     681.     0.320      0.00      0.00     0.000 16.000
F    s F    s Buckingham     540.     0.262      0.00      0.00     0.000 16.000
O1   s F    s Buckingham    0.168E+04 0.268      0.00      0.00     0.000 16.000
O2   s F    s Buckingham    0.168E+04 0.268      0.00      0.00     0.000 16.000
O3   s F    s Buckingham    0.168E+04 0.268      0.00      0.00     0.000 16.000
O2   c O2   s Spring (c-s)   76.0      0.00      0.00      0.00     0.000  0.800
O3   c O3   s Spring (c-s)   128.      0.00      0.00      0.00     0.000  0.800
O1   c O1   s Spring (c-s)   180.      0.00      0.00      0.00     0.000  0.800
F    c F    s Spring (c-s)   33.5      0.00      0.00      0.00     0.000  0.800
--------------------------------------------------------------------------------

  General Three-body potentials :

  Harmonic form:

--------------------------------------------------------------------------------
Atom    Atom    Atom           Force Constants            Theta     Cutoffs  
  1       2       3     (eVrad**-2/eVrad**-3/eVrad**-4)   (deg)  1-2  1-3  2-3
--------------------------------------------------------------------------------
Si    c O1    s O1    s  1.261        0.0000    0.0000   109.470 0.00 0.00 0.00
                                                                 1.90 1.90 3.50
Si    c O1    s O2    s  1.261        0.0000    0.0000   109.470 0.00 0.00 0.00
                                                                 1.90 1.90 3.50
Si    c O2    s O2    s  1.261        0.0000    0.0000   109.470 0.00 0.00 0.00
                                                                 1.90 1.90 3.50
--------------------------------------------------------------------------------

********************************************************************************
*  Output for configuration   1                                                *
********************************************************************************


  Components of energy : 

--------------------------------------------------------------------------------
  Interatomic potentials     =        2063.40982200 eV
  Three-body potentials      =           0.46823664 eV
  Monopole - monopole (real) =       -6614.79452711 eV
  Monopole - monopole (recip)=       -3169.11080056 eV
  Monopole - monopole (total)=       -9783.90532767 eV
  Neutralising energy        =          -6.45547814 eV
--------------------------------------------------------------------------------
  Total lattice energy       =       -7726.48274716 eV
--------------------------------------------------------------------------------
  Total lattice energy       =         -745487.4750 kJ/(mole unit cells)
--------------------------------------------------------------------------------


  Number of variables =      939

  Maximum number of calculations  =          1000
  Maximum Hessian update interval =            10
  Maximum step size               =   1.000000000
  Maximum parameter tolerance     =   0.000010000
  Maximum function  tolerance     =   0.000010000
  Maximum gradient  tolerance     =   0.001000000
  Maximum gradient  component     =   0.010000000

  Symmetry not applied to optimisation

  Cell parameters to be optimised using strains

  Newton-Raphson optimiser to be used

  BFGS hessian update to be used

  Dumpfile to be written after every cycle

  Start of bulk optimisation :

  Cycle:      0 Energy:     -7726.482747  Gnorm:      0.000807  CPU:    1.894
  ** Hessian calculated **
  Cycle:      1 Energy:     -7726.521157  Gnorm:      0.002813  CPU:    4.981
  Cycle:      2 Energy:     -7726.521473  Gnorm:      0.000342  CPU:    7.489
  Cycle:      3 Energy:     -7726.521494  Gnorm:      0.000141  CPU:    9.578


  **** Optimisation achieved ****


  Final energy =   -7726.52149445 eV
  Final Gnorm  =       0.00001597

  Components of energy : 

--------------------------------------------------------------------------------
  Interatomic potentials     =        2063.52887914 eV
  Three-body potentials      =           0.46785362 eV
  Monopole - monopole (real) =       -6615.29722305 eV
  Monopole - monopole (recip)=       -3168.76622922 eV
  Monopole - monopole (total)=       -9784.06345226 eV
  Neutralising energy        =          -6.45477494 eV
--------------------------------------------------------------------------------
  Total lattice energy       =       -7726.52149445 eV
--------------------------------------------------------------------------------
  Total lattice energy       =         -745491.2135 kJ/(mole unit cells)
--------------------------------------------------------------------------------

  Final fractional coordinates of atoms :

--------------------------------------------------------------------------------
   No.  Atomic        x           y          z          Radius
        Label       (Frac)      (Frac)     (Frac)       (Angs) 
--------------------------------------------------------------------------------
     1  Si    c     0.699600    0.375700    0.033890    0.000000
     2  Si    c     0.623867    0.321761    0.366762    0.000000
     3  Si    c     0.678566    0.278898    0.699609    0.000000
     4  Si    c     0.304682    0.609507    0.532410    0.000000
     5  Si    c     0.385682    0.662129    0.868318    0.000000
     6  Si    c     0.331049    0.705558    0.198801    0.000000
     7  Si    c     0.385524    0.704403    0.299118    0.000000
     8  Si    c     0.326547    0.613872    0.970265    0.000000
     9  Si    c     0.299031    0.659092    0.634694    0.000000
    10  Si    c     0.625453    0.281084    0.800050    0.000000
    11  Si    c     0.669870    0.372113    0.467251    0.000000
    12  Si    c     0.709783    0.326880    0.135380    0.000000
    13  Ge    c     0.529486    0.421642    0.966823    0.000000
    14  Si    c     0.587393    0.112638    0.301519    0.000000
    15  Si    c     0.886084    0.453203    0.635074    0.000000
    16  Si    c     0.473842    0.583126    0.465817    0.000000
    17  Si    c     0.424374    0.870676    0.801519    0.000000
    18  Si    c     0.120393    0.533100    0.134106    0.000000
    19  Si    c     0.424311    0.533239    0.364577    0.000000
    20  Si    c     0.113349    0.579609    0.033021    0.000000
    21  Si    c     0.472974    0.868949    0.700326    0.000000
    22  Si    c     0.595470    0.451264    0.868073    0.000000
    23  Si    c     0.875350    0.395093    0.531739    0.000000
    24  Si    c     0.536857    0.116886    0.200138    0.000000
    25  Si    c     0.309279    0.379192    0.854714    0.000000
    26  Si    c     0.608377    0.906549    0.185222    0.000000
    27  Si    c     0.092559    0.678772    0.516303    0.000000
    28  Si    c     0.704602    0.601737    0.352358    0.000000
    29  Si    c     0.400628    0.078447    0.686602    0.000000
    30  Si    c     0.904171    0.300245    0.019982    0.000000
    31  Si    c     0.393667    0.299170    0.481524    0.000000
    32  Si    c     0.912099    0.605026    0.148822    0.000000
    33  Si    c     0.702915    0.078765    0.815141    0.000000
    34  Si    c     0.608657    0.695715    0.989261    0.000000
    35  Si    c     0.096430    0.377903    0.653322    0.000000
    36  Si    c     0.307758    0.905427    0.315058    0.000000
    37  Si    c     0.251362    0.324156    0.956746    0.000000
    38  Si    c     0.665780    0.911239    0.285583    0.000000
    39  Si    c     0.086532    0.734712    0.617856    0.000000
    40  Si    c     0.749663    0.655232    0.452983    0.000000
    41  Si    c     0.344773    0.071972    0.787124    0.000000
    42  Si    c     0.918965    0.254811    0.120175    0.000000
    43  Si    c     0.343927    0.252596    0.380248    0.000000
    44  Si    c     0.912535    0.657017    0.048148    0.000000
    45  Si    c     0.751154    0.068832    0.714640    0.000000
    46  Si    c     0.669540    0.732916    0.886388    0.000000
    47  Ge    c     0.087837    0.345706    0.553590    0.000000
    48  Si    c     0.259260    0.915923    0.214603    0.000000
    49  Si    c     0.966769    0.116666    0.969636    0.000000
    50  Si    c     0.884198    0.849044    0.301436    0.000000
    51  Si    c     0.155856    0.019528    0.635686    0.000000
    52  Ge    c     0.032977    0.873747    0.468602    0.000000
    53  Si    c     0.125456    0.131441    0.804290    0.000000
    54  Si    c     0.857539    0.975068    0.136407    0.000000
    55  Si    c     0.128161    0.974328    0.365608    0.000000
    56  Si    c     0.853651    0.879662    0.036226    0.000000
    57  Si    c     0.031252    0.133332    0.703812    0.000000
    58  Si    c     0.882601    0.014496    0.868950    0.000000
    59  Si    c     0.151038    0.122675    0.536321    0.000000
    60  Si    c     0.979637    0.852513    0.200786    0.000000
    61  O2    c     0.931440    0.998794    0.002979    0.000000
    62  O2    c     0.003644    0.929900    0.334447    0.000000
    63  O2    c     0.079358    0.057882    0.671451    0.000000
    64  O3    c     0.077032    0.991761    0.507680    0.000000
    65  O2    c     0.007991    0.053896    0.838582    0.000000
    66  O2    c     0.935830    0.934720    0.170259    0.000000
    67  O2    c     0.347893    0.580740    0.331543    0.000000
    68  O2    c     0.420189    0.743628    0.667538    0.000000
    69  O2    c     0.238480    0.653436    0.999977    0.000000
    70  O2    c     0.666650    0.408170    0.830640    0.000000
    71  O2    c     0.587849    0.243851    0.168432    0.000000
    72  O2    c     0.746889    0.327956    0.501404    0.000000
    73  O3    c     0.579699    0.336285    0.003015    0.000000
    74  O2    c     0.761421    0.403543    0.667509    0.000000
    75  O2    c     0.663218    0.237073    0.334357    0.000000
    76  O2    c     0.428571    0.662035    0.499187    0.000000
    77  O2    c     0.247112    0.583332    0.165822    0.000000
    78  O2    c     0.349815    0.745513    0.834325    0.000000
    79  O2    c     0.118525    0.207136    0.974870    0.000000
    80  O2    c     0.791896    0.911465    0.305695    0.000000
    81  O2    c     0.090064    0.862746    0.637636    0.000000
    82  O3    c     0.869603    0.778443    0.474774    0.000000
    83  O2    c     0.217889    0.068788    0.807926    0.000000
    84  O2    c     0.920228    0.129374    0.141006    0.000000
    85  O2    c     0.219595    0.128373    0.358653    0.000000
    86  O2    c     0.909975    0.783060    0.028302    0.000000
    87  O2    c     0.877636    0.067428    0.695798    0.000000
    88  O2    c     0.792252    0.859580    0.865296    0.000000
    89  O3    c     0.082104    0.203356    0.531312    0.000000
    90  O2    c     0.133198    0.916828    0.194904    0.000000
    91  O2    c     0.939969    0.860756    0.251680    0.000000
    92  O2    c     0.150275    0.071455    0.587118    0.000000
    93  O2    c     0.927882    0.060068    0.919462    0.000000
    94  O2    c     0.066014    0.115773    0.754757    0.000000
    95  O2    c     0.874769    0.932718    0.086788    0.000000
    96  O3    c     0.080246    0.942531    0.416401    0.000000
    97  O2    c     0.897483    0.199337    0.981201    0.000000
    98  O2    c     0.803292    0.697782    0.314247    0.000000
    99  O2    c     0.305512    0.080983    0.648425    0.000000
   100  O3    c     0.098283    0.773967    0.477507    0.000000
   101  O2    c     0.211289    0.283429    0.816260    0.000000
   102  O2    c     0.705766    0.906097    0.147062    0.000000
   103  O2    c     0.208994    0.902613    0.353407    0.000000
   104  O2    c     0.701804    0.807834    0.024697    0.000000
   105  O2    c     0.095589    0.287075    0.695145    0.000000
   106  O2    c     0.802389    0.083083    0.853067    0.000000
   107  O2    c     0.300640    0.205048    0.520604    0.000000
   108  O2    c     0.910885    0.702144    0.187135    0.000000
   109  O2    c     0.329696    0.647069    0.248904    0.000000
   110  O2    c     0.353415    0.657220    0.584603    0.000000
   111  O2    c     0.330405    0.661879    0.918268    0.000000
   112  O2    c     0.680203    0.335841    0.749723    0.000000
   113  O2    c     0.652472    0.326472    0.085734    0.000000
   114  O2    c     0.677379    0.318189    0.417228    0.000000
   115  O3    c     0.363324    0.305830    0.976487    0.000000
   116  O2    c     0.675069    0.043585    0.304309    0.000000
   117  O2    c     0.958109    0.610204    0.636853    0.000000
   118  O2    c     0.628210    0.669234    0.469168    0.000000
   119  O2    c     0.336791    0.939438    0.805156    0.000000
   120  O2    c     0.051794    0.376627    0.138144    0.000000
   121  O2    c     0.337559    0.376976    0.361529    0.000000
   122  O2    c     0.045934    0.668909    0.029463    0.000000
   123  O2    c     0.628411    0.936366    0.696432    0.000000
   124  O2    c     0.678737    0.610086    0.867846    0.000000
   125  O3    c     0.937661    0.305092    0.528305    0.000000
   126  O2    c     0.381235    0.048744    0.196734    0.000000
   127  O2    c     0.771302    0.300315    0.013512    0.000000
   128  O2    c     0.700489    0.465210    0.344458    0.000000
   129  O2    c     0.535093    0.210278    0.678212    0.000000
   130  O2    c     0.226919    0.679311    0.513722    0.000000
   131  O2    c     0.314413    0.516655    0.848371    0.000000
   132  O2    c     0.474459    0.773688    0.177039    0.000000
   133  O2    c     0.309028    0.771115    0.321900    0.000000
   134  O2    c     0.470519    0.691664    0.990752    0.000000
   135  O2    c     0.228252    0.516866    0.657704    0.000000
   136  O2    c     0.699638    0.211652    0.822466    0.000000
   137  O2    c     0.526593    0.296815    0.488325    0.000000
   138  O2    c     0.780489    0.470708    0.157478    0.000000
   139  O2    c     0.788475    0.532285    0.028414    0.000000
   140  O2    c     0.468745    0.249046    0.361922    0.000000
   141  O2    c     0.751430    0.195098    0.694538    0.000000
   142  O3    c     0.231921    0.456963    0.526113    0.000000
   143  O2    c     0.539443    0.725412    0.867829    0.000000
   144  O2    c     0.258454    0.789612    0.194548    0.000000
   145  O2    c     0.540776    0.784656    0.304587    0.000000
   146  O2    c     0.262221    0.459247    0.973771    0.000000
   147  O2    c     0.209746    0.725848    0.634669    0.000000
   148  O2    c     0.470075    0.199226    0.805793    0.000000
   149  O2    c     0.748032    0.528178    0.473191    0.000000
   150  O2    c     0.792870    0.253416    0.139823    0.000000
   151  O2    c     0.242021    0.311839    0.901675    0.000000
   152  O2    c     0.682770    0.909698    0.231403    0.000000
   153  O2    c     0.081484    0.742719    0.563654    0.000000
   154  O2    c     0.776405    0.674334    0.398848    0.000000
   155  O2    c     0.327242    0.075174    0.733039    0.000000
   156  O2    c     0.914704    0.232027    0.066064    0.000000
   157  O2    c     0.321954    0.231903    0.434385    0.000000
   158  O2    c     0.912598    0.676917    0.102304    0.000000
   159  O2    c     0.770967    0.072566    0.768755    0.000000
   160  O2    c     0.681148    0.750045    0.940393    0.000000
   161  O3    c     0.093098    0.296455    0.610466    0.000000
   162  O2    c     0.239336    0.912688    0.268784    0.000000
   163  O3    c     0.599128    0.563690    0.002494    0.000000
   164  O2    c     0.446758    0.029380    0.324544    0.000000
   165  O2    c     0.973099    0.399396    0.658106    0.000000
   166  O2    c     0.414289    0.441944    0.488986    0.000000
   167  O2    c     0.565340    0.951863    0.824446    0.000000
   168  O2    c     0.039064    0.593497    0.157376    0.000000
   169  O2    c     0.567135    0.591741    0.343338    0.000000
   170  O2    c     0.030665    0.438161    0.009729    0.000000
   171  O2    c     0.412143    0.950780    0.677851    0.000000
   172  O2    c     0.450208    0.397865    0.847837    0.000000
   173  O2    c     0.970621    0.537012    0.509779    0.000000
   174  O2    c     0.594019    0.032524    0.176908    0.000000
   175  O2    c     0.588011    0.167874    0.251135    0.000000
   176  O2    c     0.834961    0.402854    0.584385    0.000000
   177  O3    c     0.600827    0.396575    0.916186    0.000000
   178  O2    c     0.421960    0.814425    0.751098    0.000000
   179  O2    c     0.172522    0.583675    0.083021    0.000000
   180  O2    c     0.420918    0.585224    0.415273    0.000000
   181  F     c     0.458593    0.906093    0.250406    0.000000
   182  F     c     0.090370    0.493291    0.579666    0.000000
   183  F     c     0.476880    0.512590    0.929063    0.000000
   184  F     c     0.549778    0.074081    0.750663    0.000000
   185  F     c     0.917452    0.456389    0.084434    0.000000
   186  F     c     0.553686    0.453399    0.416333    0.000000
   187  O2    s     0.926582    0.998719    0.002938    0.000000
   188  O2    s     0.004084    0.925780    0.334200    0.000000
   189  O2    s     0.082388    0.062039    0.671134    0.000000
   190  O3    s     0.080493    0.994170    0.506969    0.000000
   191  O2    s     0.007260    0.058129    0.838111    0.000000
   192  O2    s     0.931951    0.929993    0.169885    0.000000
   193  O2    s     0.359703    0.588517    0.331634    0.000000
   194  O2    s     0.412952    0.747716    0.667473    0.000000
   195  O2    s     0.235489    0.641950    0.000064    0.000000
   196  O2    s     0.655138    0.399212    0.831200    0.000000
   197  O2    s     0.595001    0.239156    0.168341    0.000000
   198  O2    s     0.752675    0.339725    0.501112    0.000000
   199  O3    s     0.589354    0.346588    0.003872    0.000000
   200  O2    s     0.765797    0.395879    0.667471    0.000000
   201  O2    s     0.651323    0.232979    0.334328    0.000000
   202  O2    s     0.420549    0.648884    0.499242    0.000000
   203  O2    s     0.242853    0.590829    0.166000    0.000000
   204  O2    s     0.361220    0.749389    0.834606    0.000000
   205  O2    s     0.116138    0.209929    0.972292    0.000000
   206  O2    s     0.788641    0.904807    0.303186    0.000000
   207  O2    s     0.096337    0.864975    0.635354    0.000000
   208  O3    s     0.870994    0.773881    0.472075    0.000000
   209  O2    s     0.221222    0.075732    0.805424    0.000000
   210  O2    s     0.913345    0.125750    0.138380    0.000000
   211  O2    s     0.222862    0.125081    0.361580    0.000000
   212  O2    s     0.904225    0.780436    0.031149    0.000000
   213  O2    s     0.880462    0.074380    0.698546    0.000000
   214  O2    s     0.789124    0.862872    0.867839    0.000000
   215  O3    s     0.090364    0.203794    0.533367    0.000000
   216  O2    s     0.129963    0.909942    0.197531    0.000000
   217  O2    s     0.938098    0.858497    0.251589    0.000000
   218  O2    s     0.151034    0.070617    0.587617    0.000000
   219  O2    s     0.926998    0.061119    0.919228    0.000000
   220  O2    s     0.068862    0.119466    0.754694    0.000000
   221  O2    s     0.870407    0.931430    0.086598    0.000000
   222  O3    s     0.081193    0.939858    0.415564    0.000000
   223  O2    s     0.905643    0.200426    0.983795    0.000000
   224  O2    s     0.801791    0.704033    0.316787    0.000000
   225  O2    s     0.299575    0.074104    0.651129    0.000000
   226  O3    s     0.092588    0.772077    0.480747    0.000000
   227  O2    s     0.212312    0.277300    0.818926    0.000000
   228  O2    s     0.711871    0.913430    0.149827    0.000000
   229  O2    s     0.210534    0.910357    0.350816    0.000000
   230  O2    s     0.708152    0.803999    0.022310    0.000000
   231  O2    s     0.088983    0.279994    0.691999    0.000000
   232  O2    s     0.800616    0.075225    0.850791    0.000000
   233  O2    s     0.295476    0.206736    0.518045    0.000000
   234  O2    s     0.918429    0.708377    0.184666    0.000000
   235  O2    s     0.335536    0.658869    0.248942    0.000000
   236  O2    s     0.343034    0.652771    0.584781    0.000000
   237  O2    s     0.335831    0.657094    0.918235    0.000000
   238  O2    s     0.674357    0.324207    0.749707    0.000000
   239  O2    s     0.663229    0.331416    0.085846    0.000000
   240  O2    s     0.671186    0.324071    0.417181    0.000000
   241  O3    s     0.362345    0.315526    0.973684    0.000000
   242  O2    s     0.665059    0.036840    0.302051    0.000000
   243  O2    s     0.964129    0.607190    0.634703    0.000000
   244  O2    s     0.624574    0.658551    0.467072    0.000000
   245  O2    s     0.346732    0.946084    0.802887    0.000000
   246  O2    s     0.044999    0.380014    0.135844    0.000000
   247  O2    s     0.347225    0.379989    0.363838    0.000000
   248  O2    s     0.039336    0.658543    0.031731    0.000000
   249  O2    s     0.625147    0.943113    0.698717    0.000000
   250  O2    s     0.669727    0.607757    0.869841    0.000000
   251  O3    s     0.941697    0.317354    0.530464    0.000000
   252  O2    s     0.384419    0.041857    0.198955    0.000000
   253  O2    s     0.778833    0.307834    0.016298    0.000000
   254  O2    s     0.693047    0.464890    0.347618    0.000000
   255  O2    s     0.535861    0.203514    0.681357    0.000000
   256  O2    s     0.220441    0.671981    0.515988    0.000000
   257  O2    s     0.321359    0.517558    0.851138    0.000000
   258  O2    s     0.473851    0.780670    0.180155    0.000000
   259  O2    s     0.316731    0.778403    0.318814    0.000000
   260  O2    s     0.469302    0.683931    0.988424    0.000000
   261  O2    s     0.222290    0.517596    0.654851    0.000000
   262  O2    s     0.692299    0.204690    0.819339    0.000000
   263  O2    s     0.527693    0.304977    0.485350    0.000000
   264  O2    s     0.787124    0.470089    0.154263    0.000000
   265  O2    s     0.793530    0.530437    0.031112    0.000000
   266  O2    s     0.471452    0.257156    0.364402    0.000000
   267  O2    s     0.743762    0.190151    0.697180    0.000000
   268  O3    s     0.228758    0.464616    0.528759    0.000000
   269  O2    s     0.536752    0.719308    0.869860    0.000000
   270  O2    s     0.266246    0.794638    0.197146    0.000000
   271  O2    s     0.538193    0.790143    0.301984    0.000000
   272  O2    s     0.268251    0.462195    0.971655    0.000000
   273  O2    s     0.205749    0.719703    0.632860    0.000000
   274  O2    s     0.472513    0.193809    0.803218    0.000000
   275  O2    s     0.740047    0.525478    0.470452    0.000000
   276  O2    s     0.797963    0.261331    0.137255    0.000000
   277  O2    s     0.250288    0.320388    0.902083    0.000000
   278  O2    s     0.673186    0.909536    0.232329    0.000000
   279  O2    s     0.083085    0.735456    0.564741    0.000000
   280  O2    s     0.766346    0.664917    0.399610    0.000000
   281  O2    s     0.336785    0.075179    0.733959    0.000000
   282  O2    s     0.914092    0.241491    0.066967    0.000000
   283  O2    s     0.331606    0.240954    0.433604    0.000000
   284  O2    s     0.912552    0.667252    0.101490    0.000000
   285  O2    s     0.761601    0.072818    0.767891    0.000000
   286  O2    s     0.672880    0.742876    0.939208    0.000000
   287  O3    s     0.093103    0.308320    0.611089    0.000000
   288  O2    s     0.248651    0.912276    0.267924    0.000000
   289  O3    s     0.595385    0.568834    0.998719    0.000000
   290  O2    s     0.446399    0.024496    0.321125    0.000000
   291  O2    s     0.976791    0.402981    0.655179    0.000000
   292  O2    s     0.418569    0.441296    0.485704    0.000000
   293  O2    s     0.565205    0.956956    0.821060    0.000000
   294  O2    s     0.033761    0.588275    0.154025    0.000000
   295  O2    s     0.566947    0.586526    0.346544    0.000000
   296  O2    s     0.025838    0.438332    0.013211    0.000000
   297  O2    s     0.417426    0.955979    0.681165    0.000000
   298  O2    s     0.448894    0.401165    0.850592    0.000000
   299  O2    s     0.974554    0.538284    0.512688    0.000000
   300  O2    s     0.589424    0.027548    0.180237    0.000000
   301  O2    s     0.582622    0.156835    0.251075    0.000000
   302  O2    s     0.844386    0.407476    0.584658    0.000000
   303  O3    s     0.595715    0.404027    0.914269    0.000000
   304  O2    s     0.427461    0.825840    0.751093    0.000000
   305  O2    s     0.161087    0.578072    0.083085    0.000000
   306  O2    s     0.426720    0.579677    0.415293    0.000000
   307  F     s     0.458405    0.905656    0.250459    0.000000
   308  F     s     0.090357    0.484023    0.578157    0.000000
   309  F     s     0.480795    0.506277    0.931664    0.000000
   310  F     s     0.549740    0.074018    0.750667    0.000000
   311  F     s     0.918130    0.456648    0.084458    0.000000
   312  F     s     0.554316    0.453477    0.416346    0.000000
--------------------------------------------------------------------------------

  Final Cartesian lattice vectors (Angstroms) :

       11.987704    0.005185    0.004671
       -5.896658   10.348965   -0.009778
       -0.036960    0.000347   29.540806


  Final cell parameters and derivatives :

--------------------------------------------------------------------------------
       a           11.987706 Angstrom     dE/de1(xx)    -0.000538 eV/strain
       b           11.910993 Angstrom     dE/de2(yy)    -0.000879 eV/strain
       c           29.540829 Angstrom     dE/de3(zz)    -0.000712 eV/strain
       alpha       90.010961 Degrees      dE/de4(yz)     0.000361 eV/strain
       beta        90.049357 Degrees      dE/de5(xz)    -0.000544 eV/strain
       gamma      119.648952 Degrees      dE/de6(xy)     0.000349 eV/strain
--------------------------------------------------------------------------------

  Primitive cell volume =          3665.747283 Angs**3

  Density of cell =      1.745372 g/cm**3

  Non-primitive cell volume =          3665.747283 Angs**3


  Final internal derivatives :

--------------------------------------------------------------------------------
   No.  Atomic          a             b             c           Radius
        Label          (eV)          (eV)          (eV)        (eV/Angs)
--------------------------------------------------------------------------------
      1 Si    c       0.000000      0.000000      0.000000      0.000000
      2 Si    c      -0.000044      0.000062      0.000278      0.000000
      3 Si    c      -0.000033      0.000007      0.000056      0.000000
      4 Si    c      -0.000010     -0.000484      0.000350      0.000000
      5 Si    c       0.000096     -0.000037     -0.000180      0.000000
      6 Si    c       0.000012     -0.000053      0.000096      0.000000
      7 Si    c       0.000027     -0.000025      0.000001      0.000000
      8 Si    c      -0.000009     -0.000195      0.000746      0.000000
      9 Si    c      -0.000041      0.000009     -0.000126      0.000000
     10 Si    c       0.000022      0.000050      0.000104      0.000000
     11 Si    c       0.000078      0.000163     -0.000261      0.000000
     12 Si    c       0.000236     -0.000115      0.000078      0.000000
     13 Ge    c      -0.001411      0.001218     -0.001988      0.000000
     14 Si    c       0.000030     -0.000059     -0.000239      0.000000
     15 Si    c      -0.000001      0.000060     -0.000090      0.000000
     16 Si    c       0.000547     -0.000006     -0.000971      0.000000
     17 Si    c      -0.000021      0.000039      0.000048      0.000000
     18 Si    c       0.000110     -0.000208     -0.000186      0.000000
     19 Si    c      -0.000060      0.000057     -0.000102      0.000000
     20 Si    c      -0.000275     -0.000098     -0.000506      0.000000
     21 Si    c      -0.000030      0.000010     -0.000004      0.000000
     22 Si    c       0.000548     -0.000288     -0.002848      0.000000
     23 Si    c       0.000217     -0.000274      0.000175      0.000000
     24 Si    c      -0.000002     -0.000008      0.000003      0.000000
     25 Si    c       0.000040     -0.000014     -0.000001      0.000000
     26 Si    c       0.000013     -0.000001      0.000248      0.000000
     27 Si    c      -0.000127      0.000109     -0.000338      0.000000
     28 Si    c       0.000040      0.000067      0.000031      0.000000
     29 Si    c      -0.000006      0.000034      0.000081      0.000000
     30 Si    c       0.000167      0.000237     -0.000087      0.000000
     31 Si    c      -0.000157     -0.000032      0.000071      0.000000
     32 Si    c       0.000009      0.000073      0.000303      0.000000
     33 Si    c       0.000059     -0.000034      0.000191      0.000000
     34 Si    c      -0.000089      0.000084      0.001037      0.000000
     35 Si    c       0.000087     -0.000054      0.000205      0.000000
     36 Si    c      -0.000054      0.000023      0.000022      0.000000
     37 Si    c      -0.000061      0.000266     -0.000075      0.000000
     38 Si    c      -0.000021      0.000003      0.000029      0.000000
     39 Si    c      -0.000024      0.000060     -0.000298      0.000000
     40 Si    c      -0.000008      0.000034     -0.000373      0.000000
     41 Si    c       0.000012     -0.000051      0.000016      0.000000
     42 Si    c       0.000034      0.000109     -0.000060      0.000000
     43 Si    c       0.000137     -0.000056      0.000046      0.000000
     44 Si    c       0.000203     -0.000733     -0.000722      0.000000
     45 Si    c      -0.000035      0.000051     -0.000013      0.000000
     46 Si    c      -0.000199     -0.000003     -0.000426      0.000000
     47 Ge    c      -0.000185      0.000323     -0.000128      0.000000
     48 Si    c      -0.000039      0.000043      0.000002      0.000000
     49 Si    c      -0.000066      0.000171      0.000372      0.000000
     50 Si    c       0.000275      0.000028      0.000136      0.000000
     51 Si    c      -0.000296      0.000329     -0.002016      0.000000
     52 Ge    c       0.000380      0.000585     -0.001484      0.000000
     53 Si    c      -0.000064      0.000048     -0.000167      0.000000
     54 Si    c      -0.000027      0.000089      0.000689      0.000000
     55 Si    c      -0.000460      0.000319     -0.000101      0.000000
     56 Si    c       0.000204     -0.000262     -0.001971      0.000000
     57 Si    c       0.000079      0.000063      0.000025      0.000000
     58 Si    c       0.000336     -0.000464      0.000174      0.000000
     59 Si    c       0.000456     -0.000928      0.000895      0.000000
     60 Si    c      -0.000024      0.000025     -0.000272      0.000000
     61 O2    c      -0.000990     -0.000063      0.001790      0.000000
     62 O2    c      -0.000162     -0.000150     -0.000423      0.000000
     63 O2    c       0.000195     -0.000063     -0.000255      0.000000
     64 O3    c      -0.002111      0.000891     -0.003864      0.000000
     65 O2    c       0.000120      0.000005     -0.000131      0.000000
     66 O2    c      -0.000025      0.000072      0.000156      0.000000
     67 O2    c      -0.000033     -0.000008     -0.000061      0.000000
     68 O2    c       0.000011      0.000041      0.000063      0.000000
     69 O2    c      -0.000072     -0.000046     -0.000156      0.000000
     70 O2    c       0.000056     -0.000076     -0.000180      0.000000
     71 O2    c      -0.000004      0.000031      0.000040      0.000000
     72 O2    c      -0.000197      0.000022      0.000016      0.000000
     73 O3    c       0.001224      0.000168      0.003578      0.000000
     74 O2    c       0.000026      0.000027     -0.000119      0.000000
     75 O2    c       0.000064     -0.000086     -0.000123      0.000000
     76 O2    c      -0.000426      0.000476      0.000709      0.000000
     77 O2    c       0.000038     -0.000064     -0.000129      0.000000
     78 O2    c       0.000150     -0.000222      0.000377      0.000000
     79 O2    c      -0.000257      0.000147     -0.000121      0.000000
     80 O2    c      -0.000012     -0.000000      0.000026      0.000000
     81 O2    c      -0.000018      0.000299     -0.000142      0.000000
     82 O3    c       0.000441      0.000242     -0.000813      0.000000
     83 O2    c       0.000001      0.000005     -0.000023      0.000000
     84 O2    c      -0.000051      0.000178     -0.000183      0.000000
     85 O2    c      -0.000067     -0.000091     -0.000141      0.000000
     86 O2    c      -0.000664      0.000867      0.000370      0.000000
     87 O2    c       0.000006      0.000028      0.000037      0.000000
     88 O2    c       0.000024     -0.000076      0.000129      0.000000
     89 O3    c       0.000360     -0.000319     -0.000200      0.000000
     90 O2    c      -0.000012     -0.000005      0.000057      0.000000
     91 O2    c      -0.000197      0.000036      0.001266      0.000000
     92 O2    c       0.000353     -0.000285      0.002217      0.000000
     93 O2    c      -0.000476      0.000742     -0.000194      0.000000
     94 O2    c      -0.000003      0.000021     -0.000064      0.000000
     95 O2    c      -0.000081     -0.000289     -0.000041      0.000000
     96 O3    c      -0.000124     -0.001185      0.007754      0.000000
     97 O2    c       0.000072     -0.000131     -0.000325      0.000000
     98 O2    c      -0.000012      0.000060     -0.000017      0.000000
     99 O2    c      -0.000044      0.000020      0.000076      0.000000
    100 O3    c      -0.000117     -0.000340      0.001505      0.000000
    101 O2    c      -0.000051     -0.000033     -0.000148      0.000000
    102 O2    c       0.000034     -0.000001     -0.000038      0.000000
    103 O2    c       0.000075     -0.000018     -0.000255      0.000000
    104 O2    c       0.000820     -0.000091      0.000881      0.000000
    105 O2    c      -0.000002     -0.000049     -0.000091      0.000000
    106 O2    c       0.000231     -0.000263     -0.000057      0.000000
    107 O2    c       0.000687      0.000432     -0.000811      0.000000
    108 O2    c      -0.000025     -0.000014      0.000028      0.000000
    109 O2    c      -0.000033      0.000011     -0.000227      0.000000
    110 O2    c       0.000009     -0.000015      0.000083      0.000000
    111 O2    c      -0.000012     -0.000047     -0.000241      0.000000
    112 O2    c      -0.000004      0.000028     -0.000065      0.000000
    113 O2    c      -0.000049     -0.000004      0.001729      0.000000
    114 O2    c      -0.000032      0.000101      0.000193      0.000000
    115 O3    c      -0.000311     -0.000033      0.000156      0.000000
    116 O2    c      -0.000018      0.000014      0.000010      0.000000
    117 O2    c       0.000000     -0.000034      0.000013      0.000000
    118 O2    c      -0.000049     -0.000027     -0.000096      0.000000
    119 O2    c       0.000043     -0.000021     -0.000032      0.000000
    120 O2    c      -0.000011      0.000053     -0.000086      0.000000
    121 O2    c      -0.000079      0.000102     -0.000190      0.000000
    122 O2    c      -0.000052     -0.000077     -0.000029      0.000000
    123 O2    c      -0.000004      0.000022      0.000022      0.000000
    124 O2    c      -0.000031      0.000071     -0.000161      0.000000
    125 O3    c       0.000169     -0.000101     -0.000175      0.000000
    126 O2    c      -0.000002     -0.000011      0.000036      0.000000
    127 O2    c      -0.000069      0.000043      0.000378      0.000000
    128 O2    c       0.000006     -0.000008      0.000003      0.000000
    129 O2    c      -0.000010      0.000014      0.000001      0.000000
    130 O2    c      -0.000047      0.000050      0.000082      0.000000
    131 O2    c       0.000043     -0.000005     -0.000078      0.000000
    132 O2    c       0.000020      0.000002     -0.000034      0.000000
    133 O2    c      -0.000000     -0.000020     -0.000068      0.000000
    134 O2    c       0.000070     -0.000046     -0.000200      0.000000
    135 O2    c       0.000013      0.000014     -0.000003      0.000000
    136 O2    c       0.000005      0.000005      0.000029      0.000000
    137 O2    c       0.000108     -0.000048     -0.000009      0.000000
    138 O2    c      -0.000088     -0.000152      0.000192      0.000000
    139 O2    c       0.000333      0.000417      0.000562      0.000000
    140 O2    c      -0.000076      0.000029      0.000085      0.000000
    141 O2    c       0.000017     -0.000017      0.000022      0.000000
    142 O3    c       0.000218     -0.000005     -0.000453      0.000000
    143 O2    c       0.000023     -0.000048      0.000114      0.000000
    144 O2    c      -0.000050      0.000016     -0.000035      0.000000
    145 O2    c      -0.000014     -0.000019     -0.000034      0.000000
    146 O2    c       0.000186     -0.000031     -0.000247      0.000000
    147 O2    c       0.000043     -0.000022     -0.000004      0.000000
    148 O2    c      -0.000048     -0.000002      0.000019      0.000000
    149 O2    c       0.000030     -0.000032     -0.000061      0.000000
    150 O2    c       0.000047     -0.000027     -0.000056      0.000000
    151 O2    c      -0.000099      0.000094     -0.000065      0.000000
    152 O2    c      -0.000038      0.000009     -0.000273      0.000000
    153 O2    c      -0.000038      0.000159      0.000280      0.000000
    154 O2    c      -0.000000      0.000006      0.000334      0.000000
    155 O2    c      -0.000018      0.000015     -0.000019      0.000000
    156 O2    c      -0.000066     -0.000032      0.000110      0.000000
    157 O2    c      -0.000072      0.000054      0.000037      0.000000
    158 O2    c      -0.000053      0.000101     -0.000260      0.000000
    159 O2    c      -0.000018      0.000029      0.000013      0.000000
    160 O2    c       0.000303     -0.000270     -0.000782      0.000000
    161 O3    c       0.000138     -0.000062      0.000284      0.000000
    162 O2    c      -0.000032      0.000028     -0.000021      0.000000
    163 O3    c      -0.000786      0.000651     -0.000552      0.000000
    164 O2    c       0.000002     -0.000003     -0.000008      0.000000
    165 O2    c       0.000014      0.000008      0.000010      0.000000
    166 O2    c      -0.000037      0.000035     -0.000010      0.000000
    167 O2    c      -0.000094      0.000014     -0.000119      0.000000
    168 O2    c      -0.000070      0.000125      0.000275      0.000000
    169 O2    c       0.000012      0.000015     -0.000056      0.000000
    170 O2    c      -0.000148      0.000010      0.000203      0.000000
    171 O2    c       0.000023     -0.000018      0.000051      0.000000
    172 O2    c      -0.000156      0.000059     -0.000190      0.000000
    173 O2    c      -0.000017     -0.000045      0.000138      0.000000
    174 O2    c       0.000009     -0.000013     -0.000010      0.000000
    175 O2    c       0.000014     -0.000015      0.000183      0.000000
    176 O2    c       0.000007      0.000017      0.000049      0.000000
    177 O3    c       0.001241     -0.001382      0.000468      0.000000
    178 O2    c      -0.000016      0.000036      0.000075      0.000000
    179 O2    c       0.000133     -0.000080      0.000306      0.000000
    180 O2    c      -0.000003     -0.000004      0.000203      0.000000
    181 F     c      -0.000009     -0.000030      0.000026      0.000000
    182 F     c       0.000040     -0.000008     -0.000205      0.000000
    183 F     c       0.000149     -0.000171      0.001792      0.000000
    184 F     c      -0.000008      0.000078      0.000005      0.000000
    185 F     c      -0.000079     -0.000084     -0.000450      0.000000
    186 F     c      -0.000007     -0.000150     -0.000132      0.000000
    187 O2    s      -0.000205     -0.000045     -0.000099      0.000000
    188 O2    s       0.000094     -0.000059     -0.000015      0.000000
    189 O2    s      -0.000055     -0.000096     -0.000602      0.000000
    190 O3    s       0.000876     -0.000857      0.001805      0.000000
    191 O2    s      -0.000033     -0.000081      0.000334      0.000000
    192 O2    s       0.000074      0.000127     -0.000205      0.000000
    193 O2    s       0.000019     -0.000026      0.000049      0.000000
    194 O2    s       0.000017      0.000012     -0.000007      0.000000
    195 O2    s       0.000059      0.000124     -0.000161      0.000000
    196 O2    s      -0.000115      0.000093      0.000163      0.000000
    197 O2    s      -0.000016     -0.000018      0.000010      0.000000
    198 O2    s       0.000055      0.000049     -0.000020      0.000000
    199 O3    s      -0.000571     -0.000807     -0.002033      0.000000
    200 O2    s      -0.000001      0.000026      0.000027      0.000000
    201 O2    s      -0.000023     -0.000016     -0.000040      0.000000
    202 O2    s       0.000219     -0.000278     -0.000438      0.000000
    203 O2    s      -0.000024      0.000046      0.000054      0.000000
    204 O2    s      -0.000102      0.000165     -0.000310      0.000000
    205 O2    s      -0.000018     -0.000087      0.000637      0.000000
    206 O2    s       0.000118     -0.000102     -0.000064      0.000000
    207 O2    s      -0.000107      0.000273      0.000220      0.000000
    208 O3    s       0.000178     -0.000096      0.000970      0.000000
    209 O2    s      -0.000043      0.000056      0.000052      0.000000
    210 O2    s       0.000167     -0.000164     -0.000102      0.000000
    211 O2    s      -0.000039      0.000089      0.000130      0.000000
    212 O2    s      -0.000063      0.000252     -0.000775      0.000000
    213 O2    s       0.000040     -0.000044     -0.000061      0.000000
    214 O2    s       0.000090      0.000125      0.000384      0.000000
    215 O3    s      -0.000560      0.000178      0.001205      0.000000
    216 O2    s       0.000012      0.000017     -0.000151      0.000000
    217 O2    s       0.000017     -0.000053      0.000056      0.000000
    218 O2    s      -0.000290     -0.000116     -0.000616      0.000000
    219 O2    s       0.000082     -0.000300     -0.000020      0.000000
    220 O2    s      -0.000042      0.000027     -0.000073      0.000000
    221 O2    s       0.000253     -0.000088     -0.000961      0.000000
    222 O3    s       0.000319      0.000114     -0.003035      0.000000
    223 O2    s       0.000007     -0.000149     -0.000124      0.000000
    224 O2    s       0.000103      0.000052     -0.000210      0.000000
    225 O2    s      -0.000161     -0.000067     -0.000526      0.000000
    226 O3    s      -0.000294      0.000987     -0.001288      0.000000
    227 O2    s       0.000082     -0.000074     -0.000051      0.000000
    228 O2    s      -0.000085     -0.000009      0.000005      0.000000
    229 O2    s      -0.000005     -0.000135      0.000078      0.000000
    230 O2    s       0.000341     -0.000034     -0.000499      0.000000
    231 O2    s      -0.000016     -0.000011      0.000114      0.000000
    232 O2    s      -0.000115      0.000003     -0.000380      0.000000
    233 O2    s       0.000118     -0.000346      0.000117      0.000000
    234 O2    s       0.000051     -0.000047      0.000089      0.000000
    235 O2    s       0.000014     -0.000018      0.000081      0.000000
    236 O2    s       0.000040      0.000019      0.000059      0.000000
    237 O2    s      -0.000167      0.000230     -0.000233      0.000000
    238 O2    s      -0.000013     -0.000006      0.000144      0.000000
    239 O2    s       0.000152      0.000005     -0.000760      0.000000
    240 O2    s       0.000097     -0.000097     -0.000143      0.000000
    241 O3    s       0.000408     -0.000233     -0.000049      0.000000
    242 O2    s       0.000013     -0.000001      0.000092      0.000000
    243 O2    s      -0.000029      0.000011      0.000050      0.000000
    244 O2    s      -0.000116      0.000303      0.000550      0.000000
    245 O2    s      -0.000089      0.000066      0.000022      0.000000
    246 O2    s       0.000070     -0.000091      0.000363      0.000000
    247 O2    s       0.000078     -0.000040      0.000115      0.000000
    248 O2    s       0.000010      0.000387     -0.000122      0.000000
    249 O2    s       0.000023      0.000014     -0.000036      0.000000
    250 O2    s       0.000084     -0.000300      0.000628      0.000000
    251 O3    s      -0.000073      0.000000      0.000330      0.000000
    252 O2    s      -0.000005     -0.000016     -0.000081      0.000000
    253 O2    s       0.000080     -0.000109     -0.000230      0.000000
    254 O2    s      -0.000013     -0.000003     -0.000096      0.000000
    255 O2    s      -0.000008      0.000001     -0.000010      0.000000
    256 O2    s      -0.000039      0.000039     -0.000292      0.000000
    257 O2    s      -0.000014     -0.000002     -0.000398      0.000000
    258 O2    s      -0.000023      0.000019     -0.000005      0.000000
    259 O2    s      -0.000032      0.000036      0.000133      0.000000
    260 O2    s       0.000102      0.000172      0.000079      0.000000
    261 O2    s      -0.000022      0.000025      0.000049      0.000000
    262 O2    s      -0.000065      0.000062     -0.000116      0.000000
    263 O2    s      -0.000181      0.000175     -0.000228      0.000000
    264 O2    s       0.000045     -0.000009     -0.000095      0.000000
    265 O2    s      -0.000256      0.000199      0.000486      0.000000
    266 O2    s      -0.000011     -0.000016     -0.000123      0.000000
    267 O2    s       0.000008      0.000003     -0.000026      0.000000
    268 O3    s      -0.000234      0.000093      0.000373      0.000000
    269 O2    s       0.000078      0.000118     -0.000414      0.000000
    270 O2    s       0.000030     -0.000006      0.000006      0.000000
    271 O2    s      -0.000013     -0.000004      0.000064      0.000000
    272 O2    s      -0.000349      0.000028      0.000453      0.000000
    273 O2    s      -0.000003      0.000015      0.000068      0.000000
    274 O2    s       0.000049      0.000027     -0.000091      0.000000
    275 O2    s      -0.000051     -0.000023      0.000336      0.000000
    276 O2    s      -0.000194      0.000063      0.000200      0.000000
    277 O2    s       0.000056     -0.000073      0.000029      0.000000
    278 O2    s       0.000030     -0.000019      0.000049      0.000000
    279 O2    s       0.000111     -0.000317     -0.000230      0.000000
    280 O2    s       0.000024     -0.000081     -0.000553      0.000000
    281 O2    s       0.000024      0.000009      0.000049      0.000000
    282 O2    s       0.000131     -0.000161     -0.000118      0.000000
    283 O2    s       0.000156     -0.000050      0.000047      0.000000
    284 O2    s       0.000037     -0.000029     -0.000064      0.000000
    285 O2    s       0.000018     -0.000024     -0.000057      0.000000
    286 O2    s      -0.000023      0.000091      0.000698      0.000000
    287 O3    s      -0.000241      0.000106     -0.000464      0.000000
    288 O2    s       0.000018     -0.000031      0.000137      0.000000
    289 O3    s       0.000897     -0.000602      0.001381      0.000000
    290 O2    s      -0.000021     -0.000007      0.000095      0.000000
    291 O2    s      -0.000026     -0.000002     -0.000031      0.000000
    292 O2    s      -0.000020      0.000066      0.000062      0.000000
    293 O2    s       0.000101     -0.000030      0.000170      0.000000
    294 O2    s       0.000037     -0.000069     -0.000196      0.000000
    295 O2    s      -0.000048     -0.000039      0.000094      0.000000
    296 O2    s       0.000244     -0.000221     -0.000857      0.000000
    297 O2    s      -0.000020      0.000042     -0.000031      0.000000
    298 O2    s       0.000245     -0.000177      0.000911      0.000000
    299 O2    s      -0.000019      0.000084     -0.000290      0.000000
    300 O2    s      -0.000015     -0.000008     -0.000048      0.000000
    301 O2    s      -0.000030      0.000009      0.000035      0.000000
    302 O2    s       0.000014     -0.000000      0.000049      0.000000
    303 O3    s      -0.001546      0.001640      0.000868      0.000000
    304 O2    s       0.000002     -0.000004     -0.000162      0.000000
    305 O2    s       0.000029      0.000117     -0.000072      0.000000
    306 O2    s      -0.000033      0.000021     -0.000256      0.000000
    307 F     s       0.000002      0.000037     -0.000042      0.000000
    308 F     s       0.000002     -0.000153      0.000197      0.000000
    309 F     s       0.001307     -0.001643      0.000607      0.000000
    310 F     s      -0.000021     -0.000102     -0.000020      0.000000
    311 F     s       0.000033      0.000202      0.000905      0.000000
    312 F     s      -0.000001      0.000240      0.000226      0.000000
--------------------------------------------------------------------------------
  Maximum abs         0.002111      0.001643      0.007754      0.000000
--------------------------------------------------------------------------------


  Time to end of optimisation =      12.5260 seconds


  Peak dynamic memory used =      19.13 MB 


  Timing analysis for GULP :

--------------------------------------------------------------------------------
  Task / Subroutine                                          Time (Seconds)
--------------------------------------------------------------------------------
  Calculation of reciprocal space energy and derivatives          0.5169
  Calculation of real space energy and derivatives               10.4574
  Calculation of three-body energy and derivatives                1.2686
  Calculation of matrix inversion                                 0.2337
--------------------------------------------------------------------------------
  Total CPU time                                                 12.5261
--------------------------------------------------------------------------------


  Dump file written as out.res                                                 
  CIF file written as out.cif                                                 


  Job Finished at 19:25.24 27th November   2016                               

