********************************************************************************
*                       GENERAL UTILITY LATTICE PROGRAM                        *
*                                 Julian Gale                                  *
*                      Nanochemistry Research Institute                        *
*                           Department of Chemistry                            *
*                    Curtin University, Western Australia                      *
********************************************************************************
* Version = 4.2.0 * Last modified =  20th January 2014                         *
********************************************************************************
*  optimise     - perform optimisation run                                     *
*  conp         - constant pressure calculation                                *
*  qok          - running with non charge neutral cell is OK                   *
********************************************************************************

  Job Started  at 23:30.42 26th November   2016                               

  Number of CPUs =     1


  Total number of configurations input =   1

********************************************************************************
*  Input for Configuration =   1                                               *
********************************************************************************

  Formula = Si57Ge3O120F6                                               

  Number of irreducible atoms/shells =     312


  Total number atoms/shells =     312

  Dimensionality = 3               :  Bulk   


  Charge on solid   =  -6.000000 =>neutralising background added


  Cartesian lattice vectors (Angstroms) :

       11.925654    0.000000    0.000000
       -6.083201   10.383647    0.000000
       -0.374320   -0.317383   29.490653

  Cell parameters (Angstroms/Degrees):

  a =      11.9257    alpha =  90.1644
  b =      12.0343    beta  =  90.7272
  c =      29.4947    gamma = 120.3637

  Initial cell volume =        3651.880152 Angs**3

  Temperature of configuration =  0.000     K 

  Pressure of configuration =         0.000 GPa 

  Fractional coordinates of asymmetric unit :

--------------------------------------------------------------------------------
   No.  Atomic       x           y          z         Charge      Occupancy
        Label      (Frac)      (Frac)     (Frac)        (e)         (Frac)  
--------------------------------------------------------------------------------
      1 Si    c    0.699600    0.375700    0.033890     4.00000    1.000000    
      2 Si    c    0.621682 *  0.327689 *  0.365346 *   4.00000    1.000000    
      3 Si    c    0.679754 *  0.297090 *  0.700262 *   4.00000    1.000000    
      4 Si    c    0.296375 *  0.621106 *  0.536251 *   4.00000    1.000000    
      5 Si    c    0.373085 *  0.681587 *  0.865287 *   4.00000    1.000000    
      6 Si    c    0.324145 *  0.700773 *  0.201092 *   4.00000    1.000000    
      7 Si    c    0.375955 *  0.703112 *  0.303698 *   4.00000    1.000000    
      8 Si    c    0.318542 *  0.617719 *  0.967231 *   4.00000    1.000000    
      9 Si    c    0.295830 *  0.674994 *  0.636570 *   4.00000    1.000000    
     10 Si    c    0.632127 *  0.301760 *  0.800919 *   4.00000    1.000000    
     11 Si    c    0.675407 *  0.378292 *  0.467974 *   4.00000    1.000000    
     12 Si    c    0.703233 *  0.322871 *  0.133912 *   4.00000    1.000000    
     13 Si    c    0.528708 *  0.411449 *  0.966321 *   4.00000    1.000000    
     14 Si    c    0.596551 *  0.124280 *  0.301874 *   4.00000    1.000000    
     15 Si    c    0.886741 *  0.468443 *  0.634893 *   4.00000    1.000000    
     16 Si    c    0.465130 *  0.581475 *  0.471226 *   4.00000    1.000000    
     17 Si    c    0.418509 *  0.896306 *  0.802584 *   4.00000    1.000000    
     18 Si    c    0.111445 *  0.529064 *  0.134924 *   4.00000    1.000000    
     19 Si    c    0.401786 *  0.528213 *  0.368044 *   4.00000    1.000000    
     20 Si    c    0.111787 *  0.579575 *  0.033509 *   4.00000    1.000000    
     21 Si    c    0.467203 *  0.887540 *  0.701818 *   4.00000    1.000000    
     22 Si    c    0.589909 *  0.469161 *  0.863760 *   4.00000    1.000000    
     23 Si    c    0.889040 *  0.418691 *  0.533537 *   4.00000    1.000000    
     24 Si    c    0.534819 *  0.113976 *  0.198633 *   4.00000    1.000000    
     25 Ge    c    0.315039 *  0.412448 *  0.857736 *   4.00000    1.000000    
     26 Si    c    0.605681 *  0.901694 *  0.182673 *   4.00000    1.000000    
     27 Si    c    0.096601 *  0.699763 *  0.520308 *   4.00000    1.000000    
     28 Si    c    0.689827 *  0.606844 *  0.351599 *   4.00000    1.000000    
     29 Si    c    0.397586 *  0.096374 *  0.686745 *   4.00000    1.000000    
     30 Si    c    0.900841 *  0.298158 *  0.019104 *   4.00000    1.000000    
     31 Si    c    0.393847 *  0.297626 *  0.487073 *   4.00000    1.000000    
     32 Si    c    0.904091 *  0.602611 *  0.149164 *   4.00000    1.000000    
     33 Si    c    0.703759 *  0.098853 *  0.816309 *   4.00000    1.000000    
     34 Si    c    0.601922 *  0.695601 *  0.982240 *   4.00000    1.000000    
     35 Si    c    0.095756 *  0.395700 *  0.650305 *   4.00000    1.000000    
     36 Si    c    0.307978 *  0.914285 *  0.317704 *   4.00000    1.000000    
     37 Si    c    0.243149 *  0.330785 *  0.953066 *   4.00000    1.000000    
     38 Ge    c    0.646362 *  0.911549 *  0.282461 *   4.00000    1.000000    
     39 Si    c    0.087194 *  0.748316 *  0.621027 *   4.00000    1.000000    
     40 Si    c    0.747398 *  0.663695 *  0.453758 *   4.00000    1.000000    
     41 Si    c    0.344155 *  0.098159 *  0.787252 *   4.00000    1.000000    
     42 Si    c    0.911140 *  0.248827 *  0.119731 *   4.00000    1.000000    
     43 Ge    c    0.352299 *  0.266183 *  0.387170 *   4.00000    1.000000    
     44 Si    c    0.910766 *  0.657297 *  0.048499 *   4.00000    1.000000    
     45 Si    c    0.749431 *  0.087851 *  0.715920 *   4.00000    1.000000    
     46 Si    c    0.661087 *  0.749341 *  0.880779 *   4.00000    1.000000    
     47 Si    c    0.088689 *  0.339180 *  0.549319 *   4.00000    1.000000    
     48 Si    c    0.252329 *  0.914169 *  0.215503 *   4.00000    1.000000    
     49 Si    c    0.967642 *  0.117750 *  0.969607 *   4.00000    1.000000    
     50 Si    c    0.875059 *  0.855065 *  0.301582 *   4.00000    1.000000    
     51 Si    c    0.146585 *  0.026385 *  0.636330 *   4.00000    1.000000    
     52 Si    c    0.032293 *  0.880668 *  0.468627 *   4.00000    1.000000    
     53 Si    c    0.126772 *  0.161494 *  0.803637 *   4.00000    1.000000    
     54 Si    c    0.850608 *  0.970177 *  0.133816 *   4.00000    1.000000    
     55 Si    c    0.124625 *  0.979580 *  0.368098 *   4.00000    1.000000    
     56 Si    c    0.851550 *  0.875165 *  0.033835 *   4.00000    1.000000    
     57 Si    c    0.029541 *  0.150080 *  0.701869 *   4.00000    1.000000    
     58 Si    c    0.883125 *  0.030019 *  0.867235 *   4.00000    1.000000    
     59 Si    c    0.149283 *  0.121280 *  0.536181 *   4.00000    1.000000    
     60 Si    c    0.968485 *  0.848259 *  0.201136 *   4.00000    1.000000    
     61 O2    c    0.924747 *  0.994264 *  0.000674 *   0.87073    1.000000    
     62 O2    c    0.999512 *  0.924267 *  0.334937 *   0.87073    1.000000    
     63 O2    c    0.070091 *  0.068927 *  0.669685 *   0.87073    1.000000    
     64 O2    c    0.074509 *  0.002061 *  0.501575 *   0.87073    1.000000    
     65 O2    c    0.003930 *  0.070215 *  0.835207 *   0.87073    1.000000    
     66 O2    c    0.926351 *  0.927609 *  0.168379 *   0.87073    1.000000    
     67 O2    c    0.325311 *  0.581534 *  0.337475 *   0.87073    1.000000    
     68 O2    c    0.418751 *  0.760616 *  0.670095 *   0.87073    1.000000    
     69 O2    c    0.236781 *  0.655739 *  0.000999 *   0.87073    1.000000    
     70 O2    c    0.676291 *  0.426197 *  0.834083 *   0.87073    1.000000    
     71 O2    c    0.580362 *  0.237458 *  0.166166 *   0.87073    1.000000    
     72 O2    c    0.763462 *  0.342940 *  0.499911 *   0.87073    1.000000    
     73 O2    c    0.577129 *  0.337393 *  0.999910 *   0.87073    1.000000    
     74 O2    c    0.761345 *  0.418181 *  0.667043 *   0.87073    1.000000    
     75 O2    c    0.672274 *  0.255299 *  0.331903 *   0.87073    1.000000    
     76 O2    c    0.420319 *  0.659253 *  0.504147 *   0.87073    1.000000    
     77 O2    c    0.236949 *  0.578256 *  0.168301 *   0.87073    1.000000    
     78 O2    c    0.341095 *  0.776679 *  0.836799 *   0.87073    1.000000    
     79 O2    c    0.121624 *  0.211547 *  0.978601 *   0.87073    1.000000    
     80 O3    c    0.791204 *  0.920411 *  0.304675 *   1.33043    1.000000    
     81 O2    c    0.084776 *  0.872476 *  0.641387 *   0.87073    1.000000    
     82 O2    c    0.876141 *  0.787738 *  0.474072 *   0.87073    1.000000    
     83 O2    c    0.222357 *  0.101860 *  0.808436 *   0.87073    1.000000    
     84 O2    c    0.913936 *  0.124614 *  0.139550 *   0.87073    1.000000    
     85 O3    c    0.208724 *  0.128663 *  0.364517 *   1.33043    1.000000    
     86 O2    c    0.913230 *  0.783582 *  0.027884 *   0.87073    1.000000    
     87 O2    c    0.874065 *  0.086443 *  0.695379 *   0.87073    1.000000    
     88 O2    c    0.787800 *  0.875351 *  0.861920 *   0.87073    1.000000    
     89 O2    c    0.086610 *  0.212363 *  0.529299 *   0.87073    1.000000    
     90 O2    c    0.124243 *  0.910301 *  0.195063 *   0.87073    1.000000    
     91 O2    c    0.932471 *  0.859231 *  0.251742 *   0.87073    1.000000    
     92 O2    c    0.126780 *  0.063460 *  0.586085 *   0.87073    1.000000    
     93 O2    c    0.932763 *  0.066519 *  0.918669 *   0.87073    1.000000    
     94 O2    c    0.069224 *  0.139351 *  0.752496 *   0.87073    1.000000    
     95 O2    c    0.871365 *  0.931264 *  0.084076 *   0.87073    1.000000    
     96 O2    c    0.068968 *  0.927644 *  0.418014 *   0.87073    1.000000    
     97 O2    c    0.895568 *  0.197686 *  0.981065 *   0.87073    1.000000    
     98 O2    c    0.783993 *  0.702051 *  0.313399 *   0.87073    1.000000    
     99 O2    c    0.300210 *  0.096469 *  0.647712 *   0.87073    1.000000    
    100 O2    c    0.100121 *  0.797956 *  0.482014 *   0.87073    1.000000    
    101 O3    c    0.201000 *  0.307849 *  0.815481 *   1.33043    1.000000    
    102 O2    c    0.695777 *  0.902277 *  0.141048 *   0.87073    1.000000    
    103 O2    c    0.213421 *  0.915317 *  0.355686 *   0.87073    1.000000    
    104 O2    c    0.697561 *  0.789878 *  0.021964 *   0.87073    1.000000    
    105 O2    c    0.098608 *  0.300672 *  0.688515 *   0.87073    1.000000    
    106 O2    c    0.801331 *  0.099650 *  0.855308 *   0.87073    1.000000    
    107 O2    c    0.304342 *  0.208304 *  0.528663 *   0.87073    1.000000    
    108 O2    c    0.900227 *  0.697377 *  0.187432 *   0.87073    1.000000    
    109 O2    c    0.324767 *  0.649004 *  0.251755 *   0.87073    1.000000    
    110 O2    c    0.354968 *  0.678180 *  0.586658 *   0.87073    1.000000    
    111 O2    c    0.319641 *  0.673486 *  0.917184 *   0.87073    1.000000    
    112 O2    c    0.685327 *  0.356658 *  0.750515 *   0.87073    1.000000    
    113 O2    c    0.642248 *  0.319788 *  0.083703 *   0.87073    1.000000    
    114 O2    c    0.673481 *  0.325847 *  0.417059 *   0.87073    1.000000    
    115 O2    c    0.372057 *  0.325641 *  0.968887 *   0.87073    1.000000    
    116 O3    c    0.685656 *  0.061939 *  0.306493 *   1.33043    1.000000    
    117 O2    c    0.954063 *  0.624170 *  0.637987 *   0.87073    1.000000    
    118 O2    c    0.622805 *  0.667556 *  0.472614 *   0.87073    1.000000    
    119 O2    c    0.332110 *  0.965182 *  0.805183 *   0.87073    1.000000    
    120 O2    c    0.043860 *  0.373653 *  0.138186 *   0.87073    1.000000    
    121 O3    c    0.312044 *  0.376609 *  0.363337 *   1.33043    1.000000    
    122 O2    c    0.042703 *  0.666188 *  0.030273 *   0.87073    1.000000    
    123 O2    c    0.624114 *  0.955224 *  0.698144 *   0.87073    1.000000    
    124 O2    c    0.670673 *  0.626626 *  0.863727 *   0.87073    1.000000    
    125 O2    c    0.956608 *  0.330886 *  0.529976 *   0.87073    1.000000    
    126 O2    c    0.377285 *  0.042331 *  0.196653 *   0.87073    1.000000    
    127 O2    c    0.767460 *  0.300698 *  0.011738 *   0.87073    1.000000    
    128 O2    c    0.691646 *  0.473960 *  0.346434 *   0.87073    1.000000    
    129 O2    c    0.533907 *  0.227882 *  0.678531 *   0.87073    1.000000    
    130 O2    c    0.229594 *  0.696705 *  0.513280 *   0.87073    1.000000    
    131 O3    c    0.297313 *  0.544948 *  0.841113 *   1.33043    1.000000    
    132 O2    c    0.466356 *  0.768331 *  0.178147 *   0.87073    1.000000    
    133 O2    c    0.305347 *  0.779178 *  0.322191 *   0.87073    1.000000    
    134 O2    c    0.465828 *  0.691647 *  0.987704 *   0.87073    1.000000    
    135 O2    c    0.229418 *  0.531713 *  0.657972 *   0.87073    1.000000    
    136 O2    c    0.707263 *  0.233901 *  0.823324 *   0.87073    1.000000    
    137 O2    c    0.533205 *  0.303702 *  0.490886 *   0.87073    1.000000    
    138 O2    c    0.771101 *  0.466381 *  0.156147 *   0.87073    1.000000    
    139 O2    c    0.781258 *  0.531738 *  0.029233 *   0.87073    1.000000    
    140 O3    c    0.467620 *  0.242204 *  0.358376 *   1.33043    1.000000    
    141 O2    c    0.752139 *  0.214131 *  0.696105 *   0.87073    1.000000    
    142 O2    c    0.216084 *  0.465052 *  0.530548 *   0.87073    1.000000    
    143 O2    c    0.531111 *  0.744993 *  0.862963 *   0.87073    1.000000    
    144 O2    c    0.259012 *  0.790319 *  0.198912 *   0.87073    1.000000    
    145 O3    c    0.530178 *  0.772077 *  0.310587 *   1.33043    1.000000    
    146 O2    c    0.251567 *  0.463313 *  0.970678 *   0.87073    1.000000    
    147 O2    c    0.213043 *  0.747838 *  0.641249 *   0.87073    1.000000    
    148 O2    c    0.475701 *  0.221744 *  0.806237 *   0.87073    1.000000    
    149 O2    c    0.740230 *  0.533049 *  0.470095 *   0.87073    1.000000    
    150 O2    c    0.784764 *  0.248589 *  0.138840 *   0.87073    1.000000    
    151 O3    c    0.212258 *  0.304333 *  0.900657 *   1.33043    1.000000    
    152 O3    c    0.690433 *  0.905942 *  0.225392 *   1.33043    1.000000    
    153 O2    c    0.092005 *  0.769043 *  0.566798 *   0.87073    1.000000    
    154 O2    c    0.754446 *  0.676496 *  0.399628 *   0.87073    1.000000    
    155 O2    c    0.325551 *  0.097273 *  0.732769 *   0.87073    1.000000    
    156 O2    c    0.907268 *  0.229766 *  0.065448 *   0.87073    1.000000    
    157 O3    c    0.309006 *  0.217095 *  0.444149 *   1.33043    1.000000    
    158 O2    c    0.908929 *  0.676109 *  0.102661 *   0.87073    1.000000    
    159 O2    c    0.771769 *  0.091130 *  0.770223 *   0.87073    1.000000    
    160 O2    c    0.671502 *  0.760948 *  0.935471 *   0.87073    1.000000    
    161 O2    c    0.090579 *  0.322358 *  0.603551 *   0.87073    1.000000    
    162 O2    c    0.244536 *  0.919798 *  0.269538 *   0.87073    1.000000    
    163 O2    c    0.580878 *  0.553813 *  0.987428 *   0.87073    1.000000    
    164 O2    c    0.453738 *  0.033198 *  0.323905 *   0.87073    1.000000    
    165 O2    c    0.970875 *  0.411401 *  0.658099 *   0.87073    1.000000    
    166 O2    c    0.414240 *  0.440948 *  0.492979 *   0.87073    1.000000    
    167 O2    c    0.562385 *  0.975979 *  0.825728 *   0.87073    1.000000    
    168 O2    c    0.031145 *  0.590024 *  0.157897 *   0.87073    1.000000    
    169 O2    c    0.544467 *  0.581011 *  0.345636 *   0.87073    1.000000    
    170 O2    c    0.027482 *  0.437594 *  0.010457 *   0.87073    1.000000    
    171 O2    c    0.408005 *  0.969288 *  0.678445 *   0.87073    1.000000    
    172 O3    c    0.453188 *  0.409051 *  0.838194 *   1.33043    1.000000    
    173 O2    c    0.969257 *  0.560284 *  0.510873 *   0.87073    1.000000    
    174 O2    c    0.586394 *  0.025184 *  0.176401 *   0.87073    1.000000    
    175 O2    c    0.588560 *  0.165526 *  0.249417 *   0.87073    1.000000    
    176 O2    c    0.832833 *  0.415232 *  0.583786 *   0.87073    1.000000    
    177 O2    c    0.582077 *  0.416147 *  0.915712 *   0.87073    1.000000    
    178 O2    c    0.414520 *  0.836383 *  0.752599 *   0.87073    1.000000    
    179 O2    c    0.166653 *  0.581891 *  0.084495 *   0.87073    1.000000    
    180 O2    c    0.410847 *  0.579089 *  0.420398 *   0.87073    1.000000    
    181 F     c    0.493274 *  0.907359 *  0.255005 *   0.56000    1.000000    
    182 F     c    0.094891 *  0.547176 *  0.584027 *   0.56000    1.000000    
    183 F     c    0.424142 *  0.517740 *  0.906306 *   0.56000    1.000000    
    184 F     c    0.550425 *  0.095313 *  0.751475 *   0.56000    1.000000    
    185 F     c    0.904101 *  0.451404 *  0.084227 *   0.56000    1.000000    
    186 F     c    0.505542 *  0.415865 *  0.413797 *   0.56000    1.000000    
    187 O2    s    0.921138 *  0.994426 *  0.001000 *  -2.87073    1.000000    
    188 O2    s    0.999446 *  0.922628 *  0.334887 *  -2.87073    1.000000    
    189 O2    s    0.074199 *  0.073097 *  0.669483 *  -2.87073    1.000000    
    190 O2    s    0.078085 *  0.001763 *  0.501753 *  -2.87073    1.000000    
    191 O2    s    0.002815 *  0.075051 *  0.835611 *  -2.87073    1.000000    
    192 O2    s    0.922584 *  0.923614 *  0.168132 *  -2.87073    1.000000    
    193 O2    s    0.338314 *  0.588646 *  0.337111 *  -2.87073    1.000000    
    194 O2    s    0.410905 *  0.764780 *  0.669858 *  -2.87073    1.000000    
    195 O2    s    0.232489 *  0.643993 *  0.000811 *  -2.87073    1.000000    
    196 O2    s    0.663279 *  0.418179 *  0.833764 *  -2.87073    1.000000    
    197 O2    s    0.588350 *  0.233489 *  0.166178 *  -2.87073    1.000000    
    198 O2    s    0.766990 *  0.354486 *  0.499954 *  -2.87073    1.000000    
    199 O2    s    0.584739 *  0.349075 *  0.999925 *  -2.87073    1.000000    
    200 O2    s    0.765915 *  0.410880 *  0.667157 *  -2.87073    1.000000    
    201 O2    s    0.659333 *  0.249192 *  0.332213 *  -2.87073    1.000000    
    202 O2    s    0.412394 *  0.647239 *  0.503974 *  -2.87073    1.000000    
    203 O2    s    0.233135 *  0.586102 *  0.168313 *  -2.87073    1.000000    
    204 O2    s    0.352477 *  0.778896 *  0.836328 *  -2.87073    1.000000    
    205 O2    s    0.117603 *  0.213665 *  0.975144 *  -2.87073    1.000000    
    206 O3    s    0.790945 *  0.912417 *  0.302860 *  -3.33043    1.000000    
    207 O2    s    0.091490 *  0.875744 *  0.638778 *  -2.87073    1.000000    
    208 O2    s    0.878270 *  0.783921 *  0.471365 *  -2.87073    1.000000    
    209 O2    s    0.225862 *  0.107481 *  0.805692 *  -2.87073    1.000000    
    210 O2    s    0.907072 *  0.121438 *  0.136917 *  -2.87073    1.000000    
    211 O3    s    0.208774 *  0.120931 *  0.366434 *  -3.33043    1.000000    
    212 O2    s    0.906427 *  0.780322 *  0.030603 *  -2.87073    1.000000    
    213 O2    s    0.877423 *  0.093287 *  0.698159 *  -2.87073    1.000000    
    214 O2    s    0.784075 *  0.877849 *  0.864477 *  -2.87073    1.000000    
    215 O2    s    0.093330 *  0.215971 *  0.532065 *  -2.87073    1.000000    
    216 O2    s    0.122007 *  0.904378 *  0.197838 *  -2.87073    1.000000    
    217 O2    s    0.930706 *  0.857479 *  0.250972 *  -2.87073    1.000000    
    218 O2    s    0.131508 *  0.065774 *  0.586108 *  -2.87073    1.000000    
    219 O2    s    0.931171 *  0.068261 *  0.918767 *  -2.87073    1.000000    
    220 O2    s    0.070727 *  0.142919 *  0.752067 *  -2.87073    1.000000    
    221 O2    s    0.866781 *  0.929197 *  0.083889 *  -2.87073    1.000000    
    222 O2    s    0.070567 *  0.927646 *  0.418646 *  -2.87073    1.000000    
    223 O2    s    0.903590 *  0.199583 *  0.983752 *  -2.87073    1.000000    
    224 O2    s    0.782682 *  0.706668 *  0.316357 *  -2.87073    1.000000    
    225 O2    s    0.293792 *  0.088989 *  0.650464 *  -2.87073    1.000000    
    226 O2    s    0.092595 *  0.796561 *  0.484566 *  -2.87073    1.000000    
    227 O3    s    0.200254 *  0.298327 *  0.816960 *  -3.33043    1.000000    
    228 O2    s    0.703190 *  0.909338 *  0.144311 *  -2.87073    1.000000    
    229 O2    s    0.215168 *  0.921478 *  0.352764 *  -2.87073    1.000000    
    230 O2    s    0.703497 *  0.788800 *  0.019019 *  -2.87073    1.000000    
    231 O2    s    0.091107 *  0.294817 *  0.685950 *  -2.87073    1.000000    
    232 O2    s    0.800029 *  0.092159 *  0.852548 *  -2.87073    1.000000    
    233 O2    s    0.297076 *  0.208078 *  0.525388 *  -2.87073    1.000000    
    234 O2    s    0.907789 *  0.703343 *  0.184874 *  -2.87073    1.000000    
    235 O2    s    0.329735 *  0.659695 *  0.251480 *  -2.87073    1.000000    
    236 O2    s    0.342923 *  0.671978 *  0.586530 *  -2.87073    1.000000    
    237 O2    s    0.324613 *  0.668380 *  0.917466 *  -2.87073    1.000000    
    238 O2    s    0.679332 *  0.344975 *  0.750562 *  -2.87073    1.000000    
    239 O2    s    0.654361 *  0.325897 *  0.083626 *  -2.87073    1.000000    
    240 O2    s    0.668526 *  0.331458 *  0.417300 *  -2.87073    1.000000    
    241 O2    s    0.375554 *  0.335216 *  0.966992 *  -2.87073    1.000000    
    242 O3    s    0.673502 *  0.057469 *  0.304235 *  -3.33043    1.000000    
    243 O2    s    0.961037 *  0.621083 *  0.635876 *  -2.87073    1.000000    
    244 O2    s    0.619821 *  0.658314 *  0.470478 *  -2.87073    1.000000    
    245 O2    s    0.342506 *  0.971773 *  0.803018 *  -2.87073    1.000000    
    246 O2    s    0.036931 *  0.376682 *  0.135889 *  -2.87073    1.000000    
    247 O3    s    0.324302 *  0.384377 *  0.365597 *  -3.33043    1.000000    
    248 O2    s    0.035984 *  0.656279 *  0.032536 *  -2.87073    1.000000    
    249 O2    s    0.621173 *  0.962296 *  0.700422 *  -2.87073    1.000000    
    250 O2    s    0.661586 *  0.623869 *  0.865549 *  -2.87073    1.000000    
    251 O2    s    0.963386 *  0.340847 *  0.532368 *  -2.87073    1.000000    
    252 O2    s    0.380280 *  0.036152 *  0.198846 *  -2.87073    1.000000    
    253 O2    s    0.774593 *  0.308132 *  0.014833 *  -2.87073    1.000000    
    254 O2    s    0.684183 *  0.472900 *  0.348969 *  -2.87073    1.000000    
    255 O2    s    0.534624 *  0.221135 *  0.681694 *  -2.87073    1.000000    
    256 O2    s    0.222497 *  0.689223 *  0.516412 *  -2.87073    1.000000    
    257 O3    s    0.306511 *  0.549956 *  0.844850 *  -3.33043    1.000000    
    258 O2    s    0.465917 *  0.774998 *  0.181024 *  -2.87073    1.000000    
    259 O2    s    0.313025 *  0.785681 *  0.319761 *  -2.87073    1.000000    
    260 O2    s    0.465274 *  0.684433 *  0.984979 *  -2.87073    1.000000    
    261 O2    s    0.222207 *  0.532199 *  0.654912 *  -2.87073    1.000000    
    262 O2    s    0.699140 *  0.226645 *  0.820219 *  -2.87073    1.000000    
    263 O2    s    0.533686 *  0.310807 *  0.488085 *  -2.87073    1.000000    
    264 O2    s    0.778016 *  0.465766 *  0.153062 *  -2.87073    1.000000    
    265 O2    s    0.786858 *  0.529194 *  0.031768 *  -2.87073    1.000000    
    266 O3    s    0.474620 *  0.252659 *  0.361185 *  -3.33043    1.000000    
    267 O2    s    0.744135 *  0.209191 *  0.698654 *  -2.87073    1.000000    
    268 O2    s    0.210603 *  0.467635 *  0.533113 *  -2.87073    1.000000    
    269 O2    s    0.529722 *  0.739033 *  0.865144 *  -2.87073    1.000000    
    270 O2    s    0.265263 *  0.794431 *  0.200943 *  -2.87073    1.000000    
    271 O3    s    0.523410 *  0.775713 *  0.307824 *  -3.33043    1.000000    
    272 O2    s    0.257999 *  0.466343 *  0.968500 *  -2.87073    1.000000    
    273 O2    s    0.207827 *  0.740187 *  0.638583 *  -2.87073    1.000000    
    274 O2    s    0.478085 *  0.216741 *  0.803645 *  -2.87073    1.000000    
    275 O2    s    0.734047 *  0.530929 *  0.468095 *  -2.87073    1.000000    
    276 O2    s    0.789985 *  0.256413 *  0.136295 *  -2.87073    1.000000    
    277 O3    s    0.222362 *  0.314298 *  0.903377 *  -3.33043    1.000000    
    278 O3    s    0.678668 *  0.905890 *  0.224984 *  -3.33043    1.000000    
    279 O2    s    0.091978 *  0.759580 *  0.567658 *  -2.87073    1.000000    
    280 O2    s    0.746859 *  0.667786 *  0.400521 *  -2.87073    1.000000    
    281 O2    s    0.335074 *  0.097277 *  0.733650 *  -2.87073    1.000000    
    282 O2    s    0.906993 *  0.238963 *  0.066370 *  -2.87073    1.000000    
    283 O3    s    0.320693 *  0.228742 *  0.444468 *  -3.33043    1.000000    
    284 O2    s    0.908607 *  0.666412 *  0.101755 *  -2.87073    1.000000    
    285 O2    s    0.762275 *  0.091609 *  0.769336 *  -2.87073    1.000000    
    286 O2    s    0.662921 *  0.752691 *  0.934790 *  -2.87073    1.000000    
    287 O2    s    0.090921 *  0.331854 *  0.602709 *  -2.87073    1.000000    
    288 O2    s    0.252072 *  0.918660 *  0.268586 *  -2.87073    1.000000    
    289 O2    s    0.577590 *  0.554489 *  0.984620 *  -2.87073    1.000000    
    290 O2    s    0.452200 *  0.029146 *  0.321001 *  -2.87073    1.000000    
    291 O2    s    0.975692 *  0.415857 *  0.654823 *  -2.87073    1.000000    
    292 O2    s    0.417638 *  0.440894 *  0.490044 *  -2.87073    1.000000    
    293 O2    s    0.562651 *  0.981076 *  0.822284 *  -2.87073    1.000000    
    294 O2    s    0.025743 *  0.584918 *  0.154568 *  -2.87073    1.000000    
    295 O2    s    0.546022 *  0.578268 *  0.348541 *  -2.87073    1.000000    
    296 O2    s    0.022632 *  0.437555 *  0.013789 *  -2.87073    1.000000    
    297 O2    s    0.413223 *  0.974560 *  0.681784 *  -2.87073    1.000000    
    298 O3    s    0.457316 *  0.415743 *  0.842252 *  -3.33043    1.000000    
    299 O2    s    0.974654 *  0.560500 *  0.514232 *  -2.87073    1.000000    
    300 O2    s    0.582819 *  0.021633 *  0.179415 *  -2.87073    1.000000    
    301 O2    s    0.583613 *  0.155940 *  0.249128 *  -2.87073    1.000000    
    302 O2    s    0.844230 *  0.421088 *  0.583855 *  -2.87073    1.000000    
    303 O2    s    0.577179 *  0.420783 *  0.916018 *  -2.87073    1.000000    
    304 O2    s    0.420355 *  0.847805 *  0.752533 *  -2.87073    1.000000    
    305 O2    s    0.155302 *  0.576224 *  0.084391 *  -2.87073    1.000000    
    306 O2    s    0.415634 *  0.574268 *  0.420584 *  -2.87073    1.000000    
    307 F     s    0.501278 *  0.907193 *  0.256303 *  -1.56000    1.000000    
    308 F     s    0.095247 *  0.547350 *  0.583893 *  -1.56000    1.000000    
    309 F     s    0.417111 *  0.510981 *  0.903331 *  -1.56000    1.000000    
    310 F     s    0.550644 *  0.095376 *  0.751492 *  -1.56000    1.000000    
    311 F     s    0.903747 *  0.451296 *  0.084247 *  -1.56000    1.000000    
    312 F     s    0.497357 *  0.407498 *  0.412444 *  -1.56000    1.000000    
--------------------------------------------------------------------------------



********************************************************************************
*  General input information                                                   *
********************************************************************************

  Species output for all configurations : 

--------------------------------------------------------------------------------
  Species    Type    Atomic    Atomic    Charge       Radii (Angs)     Library
                     Number     Mass       (e)     Cova   Ionic  VDW   Symbol
--------------------------------------------------------------------------------
    Si       Core       14      28.09   4.000000   1.200  0.000  2.100          
    O1       Core        8      16.00   1.733957   0.730  0.000  1.360          
    O1       Shell       8       0.00  -3.733957   0.730  0.000  1.360          
    O2       Core        8      16.00   0.870733   0.730  0.000  1.360          
    O2       Shell       8       0.00  -2.870733   0.730  0.000  1.360          
    O3       Core        8      16.00   1.330431   0.730  0.000  1.360          
    O3       Shell       8       0.00  -3.330431   0.730  0.000  1.360          
    F        Core        9      19.00   0.560000   0.710  0.000  1.300          
    F        Shell       9       0.00  -1.560000   0.710  0.000  1.300          
    Ge       Core       32      72.61   4.000000   1.170  0.000  1.750          
--------------------------------------------------------------------------------


  Lattice summation method               =    Ewald          (3-D)
                                         =    Parry          (2-D)
                                         =    Saunders et al (1-D)
  Accuracy factor for lattice sums       =   12.000


  Time limit = Infinity

  Maximum range for interatomic potentials =        16.000000 Angstroms

  Taper potentials to zero over   1.0000 Angstroms using polynomial

  General interatomic potentials :

--------------------------------------------------------------------------------
Atom  Types   Potential         A         B         C         D     Cutoffs(Ang)
  1     2                                                            Min    Max 
--------------------------------------------------------------------------------
Si   c O1   s Buckingham    0.132E+04 0.318      10.1      0.00     0.000 16.000
Si   c O2   s Buckingham    0.132E+04 0.318      10.1      0.00     0.000 16.000
Si   c O3   s Buckingham    0.132E+04 0.318      10.1      0.00     0.000 16.000
Ge   c O1   s Buckingham    0.150E+04 0.326      16.8      0.00     0.000 16.000
Ge   c O2   s Buckingham    0.150E+04 0.326      16.8      0.00     0.000 16.000
Ge   c O3   s Buckingham    0.150E+04 0.326      16.8      0.00     0.000 16.000
O1   s O1   s Buckingham    0.228E+05 0.149      10.9      0.00     0.000 16.000
O1   s O2   s Buckingham    0.228E+05 0.149      10.9      0.00     0.000 16.000
O1   s O3   s Buckingham    0.228E+05 0.149      10.9      0.00     0.000 16.000
O2   s O2   s Buckingham    0.228E+05 0.149      10.9      0.00     0.000 16.000
O2   s O3   s Buckingham    0.228E+05 0.149      10.9      0.00     0.000 16.000
O3   s O3   s Buckingham    0.228E+05 0.149      10.9      0.00     0.000 16.000
Si   c F    s Buckingham     977.     0.282      0.00      0.00     0.000 16.000
Ge   c F    s Buckingham     681.     0.320      0.00      0.00     0.000 16.000
F    s F    s Buckingham     540.     0.262      0.00      0.00     0.000 16.000
O1   s F    s Buckingham    0.168E+04 0.268      0.00      0.00     0.000 16.000
O2   s F    s Buckingham    0.168E+04 0.268      0.00      0.00     0.000 16.000
O3   s F    s Buckingham    0.168E+04 0.268      0.00      0.00     0.000 16.000
O2   c O2   s Spring (c-s)   76.0      0.00      0.00      0.00     0.000  0.800
O3   c O3   s Spring (c-s)   128.      0.00      0.00      0.00     0.000  0.800
O1   c O1   s Spring (c-s)   180.      0.00      0.00      0.00     0.000  0.800
F    c F    s Spring (c-s)   33.5      0.00      0.00      0.00     0.000  0.800
--------------------------------------------------------------------------------

  General Three-body potentials :

  Harmonic form:

--------------------------------------------------------------------------------
Atom    Atom    Atom           Force Constants            Theta     Cutoffs  
  1       2       3     (eVrad**-2/eVrad**-3/eVrad**-4)   (deg)  1-2  1-3  2-3
--------------------------------------------------------------------------------
Si    c O1    s O1    s  1.261        0.0000    0.0000   109.470 0.00 0.00 0.00
                                                                 1.90 1.90 3.50
Si    c O1    s O2    s  1.261        0.0000    0.0000   109.470 0.00 0.00 0.00
                                                                 1.90 1.90 3.50
Si    c O2    s O2    s  1.261        0.0000    0.0000   109.470 0.00 0.00 0.00
                                                                 1.90 1.90 3.50
--------------------------------------------------------------------------------

********************************************************************************
*  Output for configuration   1                                                *
********************************************************************************


  Components of energy : 

--------------------------------------------------------------------------------
  Interatomic potentials     =        2065.69169905 eV
  Three-body potentials      =           0.50127499 eV
  Monopole - monopole (real) =       -6613.73318697 eV
  Monopole - monopole (recip)=       -3172.76676325 eV
  Monopole - monopole (total)=       -9786.49995022 eV
  Neutralising energy        =          -6.46293477 eV
--------------------------------------------------------------------------------
  Total lattice energy       =       -7726.76991095 eV
--------------------------------------------------------------------------------
  Total lattice energy       =         -745515.1819 kJ/(mole unit cells)
--------------------------------------------------------------------------------


  Number of variables =      939

  Maximum number of calculations  =          1000
  Maximum Hessian update interval =            10
  Maximum step size               =   1.000000000
  Maximum parameter tolerance     =   0.000010000
  Maximum function  tolerance     =   0.000010000
  Maximum gradient  tolerance     =   0.001000000
  Maximum gradient  component     =   0.010000000

  Symmetry not applied to optimisation

  Cell parameters to be optimised using strains

  Newton-Raphson optimiser to be used

  BFGS hessian update to be used

  Dumpfile to be written after every cycle

  Start of bulk optimisation :

  Cycle:      0 Energy:     -7726.769911  Gnorm:      0.012737  CPU:    1.022
  ** Hessian calculated **
  Cycle:      1 Energy:     -7726.843948  Gnorm:      0.009096  CPU:    2.969
  Cycle:      2 Energy:     -7726.846620  Gnorm:      0.000937  CPU:    4.381
  Cycle:      3 Energy:     -7726.846951  Gnorm:      0.000398  CPU:    5.793
  Cycle:      4 Energy:     -7726.846958  Gnorm:      0.000069  CPU:    7.205


  **** Optimisation achieved ****


  Final energy =   -7726.84695866 eV
  Final Gnorm  =       0.00001581

  Components of energy : 

--------------------------------------------------------------------------------
  Interatomic potentials     =        2065.97997016 eV
  Three-body potentials      =           0.52986645 eV
  Monopole - monopole (real) =       -6612.96688328 eV
  Monopole - monopole (recip)=       -3173.92461972 eV
  Monopole - monopole (total)=       -9786.89150300 eV
  Neutralising energy        =          -6.46529227 eV
--------------------------------------------------------------------------------
  Total lattice energy       =       -7726.84695866 eV
--------------------------------------------------------------------------------
  Total lattice energy       =         -745522.6158 kJ/(mole unit cells)
--------------------------------------------------------------------------------

  Final fractional coordinates of atoms :

--------------------------------------------------------------------------------
   No.  Atomic        x           y          z          Radius
        Label       (Frac)      (Frac)     (Frac)       (Angs) 
--------------------------------------------------------------------------------
     1  Si    c     0.699600    0.375700    0.033890    0.000000
     2  Si    c     0.607831    0.328971    0.366912    0.000000
     3  Si    c     0.670637    0.294360    0.702557    0.000000
     4  Si    c     0.286378    0.617999    0.541149    0.000000
     5  Si    c     0.364573    0.683183    0.869256    0.000000
     6  Si    c     0.320425    0.703219    0.205634    0.000000
     7  Si    c     0.376058    0.712617    0.308651    0.000000
     8  Si    c     0.314399    0.615537    0.971017    0.000000
     9  Si    c     0.284265    0.671279    0.641501    0.000000
    10  Si    c     0.630137    0.306655    0.803107    0.000000
    11  Si    c     0.663885    0.376121    0.469940    0.000000
    12  Si    c     0.697811    0.321410    0.134314    0.000000
    13  Si    c     0.526386    0.411751    0.966879    0.000000
    14  Si    c     0.597016    0.133460    0.302931    0.000000
    15  Si    c     0.875436    0.463895    0.636920    0.000000
    16  Si    c     0.454596    0.579284    0.476128    0.000000
    17  Si    c     0.414232    0.901625    0.808067    0.000000
    18  Si    c     0.106758    0.527313    0.139408    0.000000
    19  Si    c     0.387169    0.528834    0.372731    0.000000
    20  Si    c     0.109738    0.577459    0.037793    0.000000
    21  Si    c     0.456605    0.885467    0.706982    0.000000
    22  Si    c     0.583731    0.472776    0.864298    0.000000
    23  Si    c     0.878825    0.415144    0.535497    0.000000
    24  Si    c     0.529800    0.115481    0.199568    0.000000
    25  Ge    c     0.307733    0.415236    0.859891    0.000000
    26  Si    c     0.601316    0.903218    0.185395    0.000000
    27  Si    c     0.087078    0.696642    0.523705    0.000000
    28  Si    c     0.674441    0.608104    0.354708    0.000000
    29  Si    c     0.386994    0.094085    0.690797    0.000000
    30  Si    c     0.899506    0.296380    0.021806    0.000000
    31  Si    c     0.382835    0.295007    0.490498    0.000000
    32  Si    c     0.898238    0.600416    0.151664    0.000000
    33  Si    c     0.701167    0.104812    0.820222    0.000000
    34  Si    c     0.599483    0.694976    0.984484    0.000000
    35  Si    c     0.084244    0.391393    0.653733    0.000000
    36  Si    c     0.309435    0.925289    0.321026    0.000000
    37  Si    c     0.239533    0.329688    0.955068    0.000000
    38  Ge    c     0.645585    0.920193    0.285353    0.000000
    39  Si    c     0.075484    0.744003    0.624418    0.000000
    40  Si    c     0.736261    0.662165    0.456970    0.000000
    41  Si    c     0.340764    0.103708    0.791546    0.000000
    42  Si    c     0.906282    0.247204    0.122748    0.000000
    43  Ge    c     0.339167    0.267599    0.390424    0.000000
    44  Si    c     0.909418    0.656533    0.050908    0.000000
    45  Si    c     0.740168    0.086367    0.719704    0.000000
    46  Si    c     0.654053    0.751611    0.883037    0.000000
    47  Si    c     0.078317    0.335562    0.552609    0.000000
    48  Si    c     0.248170    0.916799    0.218741    0.000000
    49  Si    c     0.965553    0.115409    0.972677    0.000000
    50  Si    c     0.866745    0.854146    0.304451    0.000000
    51  Si    c     0.134255    0.021505    0.639582    0.000000
    52  Si    c     0.023682    0.877739    0.471533    0.000000
    53  Si    c     0.120359    0.163129    0.806795    0.000000
    54  Si    c     0.844851    0.968451    0.136914    0.000000
    55  Si    c     0.117743    0.980082    0.371455    0.000000
    56  Si    c     0.849929    0.874052    0.037051    0.000000
    57  Si    c     0.018903    0.145830    0.705091    0.000000
    58  Si    c     0.878088    0.031446    0.870188    0.000000
    59  Si    c     0.139287    0.117974    0.539386    0.000000
    60  Si    c     0.961157    0.845057    0.204418    0.000000
    61  O2    c     0.924508    0.994049    0.004529    0.000000
    62  O2    c     0.992165    0.916028    0.337913    0.000000
    63  O2    c     0.056844    0.063908    0.672344    0.000000
    64  O2    c     0.065264    0.999568    0.504236    0.000000
    65  O2    c     0.998479    0.070456    0.838301    0.000000
    66  O2    c     0.919364    0.925578    0.172101    0.000000
    67  O2    c     0.318358    0.591242    0.342651    0.000000
    68  O2    c     0.406002    0.756767    0.675969    0.000000
    69  O2    c     0.235479    0.653447    0.005909    0.000000
    70  O2    c     0.673144    0.433547    0.834911    0.000000
    71  O2    c     0.573153    0.235627    0.165740    0.000000
    72  O2    c     0.753666    0.340565    0.501171    0.000000
    73  O2    c     0.577735    0.337641    0.999251    0.000000
    74  O2    c     0.749199    0.412960    0.668337    0.000000
    75  O2    c     0.665838    0.265199    0.332815    0.000000
    76  O2    c     0.411437    0.656586    0.509782    0.000000
    77  O2    c     0.231376    0.578105    0.173798    0.000000
    78  O2    c     0.335608    0.782867    0.842394    0.000000
    79  O2    c     0.120137    0.209548    0.980863    0.000000
    80  O3    c     0.791411    0.928444    0.306955    0.000000
    81  O2    c     0.072204    0.867717    0.644626    0.000000
    82  O2    c     0.867292    0.785384    0.476835    0.000000
    83  O2    c     0.220656    0.109374    0.812974    0.000000
    84  O2    c     0.908480    0.122907    0.142697    0.000000
    85  O3    c     0.193575    0.129598    0.368417    0.000000
    86  O2    c     0.912896    0.783791    0.030941    0.000000
    87  O2    c     0.863053    0.082057    0.699188    0.000000
    88  O2    c     0.778700    0.877932    0.863592    0.000000
    89  O2    c     0.076406    0.208914    0.532637    0.000000
    90  O2    c     0.117321    0.908876    0.198766    0.000000
    91  O2    c     0.922582    0.851922    0.254978    0.000000
    92  O2    c     0.115994    0.058713    0.589073    0.000000
    93  O2    c     0.927357    0.061478    0.922001    0.000000
    94  O2    c     0.062203    0.135603    0.755440    0.000000
    95  O2    c     0.867041    0.928786    0.087509    0.000000
    96  O2    c     0.062098    0.923540    0.420919    0.000000
    97  O2    c     0.894067    0.195607    0.983997    0.000000
    98  O2    c     0.766535    0.703052    0.316285    0.000000
    99  O2    c     0.287767    0.091774    0.651765    0.000000
   100  O2    c     0.091370    0.795285    0.485500    0.000000
   101  O3    c     0.191212    0.310037    0.817889    0.000000
   102  O2    c     0.689696    0.901288    0.143700    0.000000
   103  O2    c     0.217224    0.928236    0.359341    0.000000
   104  O2    c     0.696097    0.788350    0.024463    0.000000
   105  O2    c     0.087166    0.296226    0.691855    0.000000
   106  O2    c     0.800665    0.106252    0.858993    0.000000
   107  O2    c     0.294619    0.205387    0.532168    0.000000
   108  O2    c     0.893555    0.694851    0.189801    0.000000
   109  O2    c     0.325800    0.656260    0.256628    0.000000
   110  O2    c     0.344452    0.674976    0.591840    0.000000
   111  O2    c     0.312258    0.672193    0.921372    0.000000
   112  O2    c     0.681035    0.358561    0.752381    0.000000
   113  O2    c     0.639775    0.319363    0.083513    0.000000
   114  O2    c     0.658198    0.323603    0.418779    0.000000
   115  O2    c     0.369795    0.325490    0.970103    0.000000
   116  O3    c     0.688737    0.074103    0.307946    0.000000
   117  O2    c     0.941947    0.619361    0.640521    0.000000
   118  O2    c     0.612675    0.664986    0.477258    0.000000
   119  O2    c     0.329262    0.971803    0.810189    0.000000
   120  O2    c     0.038547    0.371849    0.142304    0.000000
   121  O3    c     0.295534    0.377616    0.367529    0.000000
   122  O2    c     0.042064    0.665205    0.033930    0.000000
   123  O2    c     0.613382    0.953059    0.702825    0.000000
   124  O2    c     0.663825    0.630076    0.865191    0.000000
   125  O2    c     0.946591    0.327549    0.532398    0.000000
   126  O2    c     0.371778    0.042837    0.198209    0.000000
   127  O2    c     0.766846    0.299658    0.012701    0.000000
   128  O2    c     0.677210    0.476212    0.349440    0.000000
   129  O2    c     0.523360    0.224212    0.681454    0.000000
   130  O2    c     0.220447    0.693822    0.517578    0.000000
   131  O3    c     0.287688    0.547442    0.844330    0.000000
   132  O2    c     0.461212    0.769996    0.181881    0.000000
   133  O2    c     0.306373    0.790416    0.325845    0.000000
   134  O2    c     0.463000    0.689490    0.990792    0.000000
   135  O2    c     0.217707    0.527588    0.662316    0.000000
   136  O2    c     0.707031    0.241259    0.826428    0.000000
   137  O2    c     0.522925    0.301985    0.493550    0.000000
   138  O2    c     0.764692    0.464075    0.157388    0.000000
   139  O2    c     0.781507    0.531691    0.029893    0.000000
   140  O3    c     0.453403    0.244620    0.360018    0.000000
   141  O2    c     0.742910    0.211304    0.698631    0.000000
   142  O2    c     0.206388    0.462046    0.534741    0.000000
   143  O2    c     0.522477    0.746217    0.866286    0.000000
   144  O2    c     0.254268    0.791768    0.203524    0.000000
   145  O3    c     0.530621    0.783384    0.315437    0.000000
   146  O2    c     0.247708    0.461187    0.973676    0.000000
   147  O2    c     0.200951    0.743558    0.645536    0.000000
   148  O2    c     0.473904    0.227843    0.809605    0.000000
   149  O2    c     0.729542    0.530915    0.472023    0.000000
   150  O2    c     0.778932    0.246903    0.140565    0.000000
   151  O3    c     0.206317    0.304704    0.902642    0.000000
   152  O3    c     0.687700    0.910212    0.228248    0.000000
   153  O2    c     0.081486    0.765217    0.570201    0.000000
   154  O2    c     0.739375    0.677575    0.402922    0.000000
   155  O2    c     0.318826    0.099276    0.737032    0.000000
   156  O2    c     0.904042    0.228083    0.068451    0.000000
   157  O3    c     0.296990    0.215564    0.447366    0.000000
   158  O2    c     0.904505    0.673753    0.105027    0.000000
   159  O2    c     0.766347    0.093854    0.774007    0.000000
   160  O2    c     0.667199    0.762256    0.937822    0.000000
   161  O2    c     0.079375    0.318458    0.606902    0.000000
   162  O2    c     0.245036    0.929780    0.272701    0.000000
   163  O2    c     0.579566    0.553584    0.988719    0.000000
   164  O2    c     0.456330    0.043000    0.326268    0.000000
   165  O2    c     0.959090    0.406887    0.660808    0.000000
   166  O2    c     0.403914    0.438269    0.497167    0.000000
   167  O2    c     0.559515    0.983194    0.830609    0.000000
   168  O2    c     0.024893    0.587471    0.161346    0.000000
   169  O2    c     0.527929    0.579609    0.349280    0.000000
   170  O2    c     0.026722    0.435858    0.014106    0.000000
   171  O2    c     0.396097    0.966069    0.683618    0.000000
   172  O3    c     0.446027    0.414223    0.838996    0.000000
   173  O2    c     0.959984    0.557156    0.513463    0.000000
   174  O2    c     0.580937    0.025609    0.178258    0.000000
   175  O2    c     0.586093    0.171008    0.250087    0.000000
   176  O2    c     0.822080    0.411049    0.585568    0.000000
   177  O2    c     0.576511    0.417706    0.915877    0.000000
   178  O2    c     0.408050    0.839229    0.758334    0.000000
   179  O2    c     0.163314    0.579534    0.089169    0.000000
   180  O2    c     0.398302    0.577851    0.425504    0.000000
   181  F     c     0.493787    0.915367    0.258184    0.000000
   182  F     c     0.084495    0.543593    0.587520    0.000000
   183  F     c     0.417448    0.518454    0.908489    0.000000
   184  F     c     0.546705    0.100177    0.755578    0.000000
   185  F     c     0.900402    0.449319    0.086361    0.000000
   186  F     c     0.490708    0.414821    0.416992    0.000000
   187  O2    s     0.920532    0.993893    0.004686    0.000000
   188  O2    s     0.992068    0.916190    0.337890    0.000000
   189  O2    s     0.061385    0.068179    0.672263    0.000000
   190  O2    s     0.068840    0.999147    0.504509    0.000000
   191  O2    s     0.997320    0.075588    0.838685    0.000000
   192  O2    s     0.915686    0.921464    0.171733    0.000000
   193  O2    s     0.331347    0.597241    0.342254    0.000000
   194  O2    s     0.398536    0.761164    0.675579    0.000000
   195  O2    s     0.230795    0.641685    0.005541    0.000000
   196  O2    s     0.659927    0.424878    0.834695    0.000000
   197  O2    s     0.581439    0.231971    0.166006    0.000000
   198  O2    s     0.757011    0.351992    0.501375    0.000000
   199  O2    s     0.584999    0.349345    0.999460    0.000000
   200  O2    s     0.754232    0.405969    0.668618    0.000000
   201  O2    s     0.652803    0.257972    0.333178    0.000000
   202  O2    s     0.403262    0.644587    0.509461    0.000000
   203  O2    s     0.227799    0.585976    0.173586    0.000000
   204  O2    s     0.346743    0.784462    0.841740    0.000000
   205  O2    s     0.115770    0.211675    0.977457    0.000000
   206  O3    s     0.790143    0.919560    0.305262    0.000000
   207  O2    s     0.079043    0.871044    0.642031    0.000000
   208  O2    s     0.869169    0.781564    0.474184    0.000000
   209  O2    s     0.223538    0.114163    0.810063    0.000000
   210  O2    s     0.901656    0.119761    0.140055    0.000000
   211  O3    s     0.194678    0.121894    0.370190    0.000000
   212  O2    s     0.905866    0.780269    0.033614    0.000000
   213  O2    s     0.866699    0.089245    0.701922    0.000000
   214  O2    s     0.775620    0.880314    0.866343    0.000000
   215  O2    s     0.083131    0.212540    0.535373    0.000000
   216  O2    s     0.115362    0.903198    0.201452    0.000000
   217  O2    s     0.921314    0.851363    0.254173    0.000000
   218  O2    s     0.120650    0.061195    0.589151    0.000000
   219  O2    s     0.926208    0.064295    0.922025    0.000000
   220  O2    s     0.063361    0.139701    0.755062    0.000000
   221  O2    s     0.862612    0.926970    0.087257    0.000000
   222  O2    s     0.063474    0.924167    0.421607    0.000000
   223  O2    s     0.902127    0.197581    0.986715    0.000000
   224  O2    s     0.766370    0.707564    0.319277    0.000000
   225  O2    s     0.281542    0.084488    0.654466    0.000000
   226  O2    s     0.083770    0.793797    0.487984    0.000000
   227  O3    s     0.191026    0.300577    0.819431    0.000000
   228  O2    s     0.697286    0.908472    0.146983    0.000000
   229  O2    s     0.217632    0.932941    0.356345    0.000000
   230  O2    s     0.701975    0.787426    0.021554    0.000000
   231  O2    s     0.079735    0.290418    0.689264    0.000000
   232  O2    s     0.798685    0.098206    0.856214    0.000000
   233  O2    s     0.287211    0.205128    0.528882    0.000000
   234  O2    s     0.901147    0.700767    0.187342    0.000000
   235  O2    s     0.330139    0.666660    0.256239    0.000000
   236  O2    s     0.332385    0.668761    0.591673    0.000000
   237  O2    s     0.317481    0.667295    0.921564    0.000000
   238  O2    s     0.674741    0.346650    0.752532    0.000000
   239  O2    s     0.651781    0.325319    0.083632    0.000000
   240  O2    s     0.653815    0.329584    0.419106    0.000000
   241  O2    s     0.373170    0.335039    0.968223    0.000000
   242  O3    s     0.676153    0.069381    0.305800    0.000000
   243  O2    s     0.949120    0.616413    0.638440    0.000000
   244  O2    s     0.609585    0.655944    0.475004    0.000000
   245  O2    s     0.339478    0.978113    0.808004    0.000000
   246  O2    s     0.031825    0.374965    0.139954    0.000000
   247  O3    s     0.308136    0.385647    0.369699    0.000000
   248  O2    s     0.035066    0.655229    0.036131    0.000000
   249  O2    s     0.610551    0.960188    0.705059    0.000000
   250  O2    s     0.654754    0.627270    0.867019    0.000000
   251  O2    s     0.953268    0.337438    0.534824    0.000000
   252  O2    s     0.374919    0.036996    0.200503    0.000000
   253  O2    s     0.773879    0.307243    0.015907    0.000000
   254  O2    s     0.669670    0.475023    0.351854    0.000000
   255  O2    s     0.524161    0.217647    0.684675    0.000000
   256  O2    s     0.213204    0.686303    0.520683    0.000000
   257  O3    s     0.297127    0.552520    0.848053    0.000000
   258  O2    s     0.460972    0.776705    0.184729    0.000000
   259  O2    s     0.313999    0.796761    0.323498    0.000000
   260  O2    s     0.462367    0.682423    0.988044    0.000000
   261  O2    s     0.210581    0.528160    0.659222    0.000000
   262  O2    s     0.698513    0.233630    0.823341    0.000000
   263  O2    s     0.523232    0.308948    0.490761    0.000000
   264  O2    s     0.771850    0.463674    0.154359    0.000000
   265  O2    s     0.786886    0.529024    0.032545    0.000000
   266  O3    s     0.460776    0.254869    0.362859    0.000000
   267  O2    s     0.734925    0.206487    0.701289    0.000000
   268  O2    s     0.200772    0.464493    0.537280    0.000000
   269  O2    s     0.521315    0.740414    0.868417    0.000000
   270  O2    s     0.260670    0.796091    0.205392    0.000000
   271  O3    s     0.523419    0.786307    0.312599    0.000000
   272  O2    s     0.254163    0.464386    0.971485    0.000000
   273  O2    s     0.195865    0.735971    0.642839    0.000000
   274  O2    s     0.475944    0.222571    0.807009    0.000000
   275  O2    s     0.723246    0.528878    0.470165    0.000000
   276  O2    s     0.784372    0.254708    0.138036    0.000000
   277  O3    s     0.216453    0.314531    0.905437    0.000000
   278  O3    s     0.675888    0.910157    0.227761    0.000000
   279  O2    s     0.081450    0.755769    0.571058    0.000000
   280  O2    s     0.732205    0.668613    0.403790    0.000000
   281  O2    s     0.328316    0.099191    0.737868    0.000000
   282  O2    s     0.903809    0.237308    0.069336    0.000000
   283  O3    s     0.308717    0.227293    0.447824    0.000000
   284  O2    s     0.904358    0.664198    0.104155    0.000000
   285  O2    s     0.756751    0.094216    0.773149    0.000000
   286  O2    s     0.658554    0.753914    0.937133    0.000000
   287  O2    s     0.079774    0.327944    0.606037    0.000000
   288  O2    s     0.252113    0.927907    0.271769    0.000000
   289  O2    s     0.576069    0.554307    0.985952    0.000000
   290  O2    s     0.454316    0.038913    0.323347    0.000000
   291  O2    s     0.964037    0.411345    0.657543    0.000000
   292  O2    s     0.407237    0.438326    0.494220    0.000000
   293  O2    s     0.559532    0.987842    0.827138    0.000000
   294  O2    s     0.019723    0.582476    0.158015    0.000000
   295  O2    s     0.529937    0.577431    0.352217    0.000000
   296  O2    s     0.021625    0.435705    0.017397    0.000000
   297  O2    s     0.401607    0.971519    0.686838    0.000000
   298  O3    s     0.450361    0.420568    0.843106    0.000000
   299  O2    s     0.965246    0.557308    0.516847    0.000000
   300  O2    s     0.577512    0.022285    0.181269    0.000000
   301  O2    s     0.581201    0.161406    0.249889    0.000000
   302  O2    s     0.833503    0.416943    0.585673    0.000000
   303  O2    s     0.571825    0.422405    0.916303    0.000000
   304  O2    s     0.413715    0.850402    0.758141    0.000000
   305  O2    s     0.151969    0.573968    0.089001    0.000000
   306  O2    s     0.403107    0.573115    0.425621    0.000000
   307  F     s     0.502477    0.915397    0.259595    0.000000
   308  F     s     0.084898    0.543800    0.587391    0.000000
   309  F     s     0.410078    0.511587    0.905404    0.000000
   310  F     s     0.547165    0.100560    0.755617    0.000000
   311  F     s     0.900028    0.449184    0.086337    0.000000
   312  F     s     0.481797    0.405922    0.415497    0.000000
--------------------------------------------------------------------------------

  Final Cartesian lattice vectors (Angstroms) :

       11.918110   -0.014549   -0.040286
       -6.092021   10.396590    0.002394
       -0.473319   -0.368659   29.463677


  Final cell parameters and derivatives :

--------------------------------------------------------------------------------
       a           11.918187 Angstrom     dE/de1(xx)    -0.002668 eV/strain
       b           12.049971 Angstrom     dE/de2(yy)    -0.002704 eV/strain
       c           29.469785 Angstrom     dE/de3(zz)    -0.004044 eV/strain
       alpha       90.141789 Degrees      dE/de4(yz)    -0.000062 eV/strain
       beta        91.113058 Degrees      dE/de5(xz)    -0.000094 eV/strain
       gamma      120.438537 Degrees      dE/de6(xy)     0.000063 eV/strain
--------------------------------------------------------------------------------

  Primitive cell volume =          3647.886761 Angs**3

  Density of cell =      1.753917 g/cm**3

  Non-primitive cell volume =          3647.886761 Angs**3


  Final internal derivatives :

--------------------------------------------------------------------------------
   No.  Atomic          a             b             c           Radius
        Label          (eV)          (eV)          (eV)        (eV/Angs)
--------------------------------------------------------------------------------
      1 Si    c       0.000000      0.000000      0.000000      0.000000
      2 Si    c      -0.000596      0.000052      0.000338      0.000000
      3 Si    c      -0.000152      0.000255     -0.000838      0.000000
      4 Si    c       0.000017      0.000049      0.000091      0.000000
      5 Si    c      -0.000287      0.000073     -0.000865      0.000000
      6 Si    c       0.000466     -0.000040      0.000509      0.000000
      7 Si    c       0.000521      0.000086     -0.000945      0.000000
      8 Si    c      -0.000014      0.000121      0.000379      0.000000
      9 Si    c       0.000168     -0.000031     -0.000006      0.000000
     10 Si    c      -0.000003      0.000096      0.001454      0.000000
     11 Si    c      -0.000213     -0.000116     -0.000309      0.000000
     12 Si    c      -0.000261      0.000178      0.000116      0.000000
     13 Si    c      -0.000273      0.000231     -0.000756      0.000000
     14 Si    c       0.000036     -0.000014     -0.000770      0.000000
     15 Si    c      -0.000118     -0.000029     -0.000079      0.000000
     16 Si    c       0.000043      0.000107     -0.000363      0.000000
     17 Si    c       0.000066     -0.000079     -0.000082      0.000000
     18 Si    c       0.000012     -0.000228     -0.000976      0.000000
     19 Si    c      -0.000097     -0.000216      0.000877      0.000000
     20 Si    c      -0.000028     -0.000008      0.000114      0.000000
     21 Si    c       0.000163     -0.000100      0.000203      0.000000
     22 Si    c      -0.000043     -0.000324     -0.000124      0.000000
     23 Si    c       0.000071     -0.000017      0.000326      0.000000
     24 Si    c      -0.000106     -0.000124      0.000785      0.000000
     25 Ge    c       0.000038      0.000351      0.000588      0.000000
     26 Si    c      -0.000420      0.000029      0.000938      0.000000
     27 Si    c       0.000070     -0.000062      0.000442      0.000000
     28 Si    c      -0.000230      0.000041      0.000332      0.000000
     29 Si    c       0.000408     -0.000050      0.000643      0.000000
     30 Si    c      -0.000006      0.000290      0.000066      0.000000
     31 Si    c       0.000211     -0.000032     -0.000424      0.000000
     32 Si    c       0.000002      0.000068      0.000111      0.000000
     33 Si    c      -0.000464      0.000391     -0.000736      0.000000
     34 Si    c      -0.000236      0.000011     -0.000419      0.000000
     35 Si    c      -0.000019      0.000139     -0.000450      0.000000
     36 Si    c       0.000240     -0.000079     -0.000908      0.000000
     37 Si    c      -0.000034      0.000181     -0.000605      0.000000
     38 Ge    c      -0.000704     -0.000057     -0.000087      0.000000
     39 Si    c       0.000102     -0.000145     -0.000403      0.000000
     40 Si    c      -0.000287     -0.000166     -0.001029      0.000000
     41 Si    c       0.000290     -0.000109     -0.000134      0.000000
     42 Si    c      -0.000062      0.000157      0.000216      0.000000
     43 Ge    c       0.000552      0.000002     -0.000743      0.000000
     44 Si    c       0.000311     -0.000329      0.000622      0.000000
     45 Si    c      -0.000288      0.000035      0.000258      0.000000
     46 Si    c      -0.000062      0.000095      0.000040      0.000000
     47 Si    c      -0.000051      0.000169      0.000438      0.000000
     48 Si    c       0.000642     -0.000200      0.000911      0.000000
     49 Si    c       0.000236     -0.000361     -0.000723      0.000000
     50 Si    c      -0.000963      0.000695     -0.001994      0.000000
     51 Si    c      -0.000116      0.000213     -0.000670      0.000000
     52 Si    c      -0.000099      0.000007      0.000994      0.000000
     53 Si    c       0.000259     -0.000015     -0.001706      0.000000
     54 Si    c       0.000269     -0.000164     -0.000538      0.000000
     55 Si    c       0.000064      0.000691      0.001999      0.000000
     56 Si    c      -0.000096      0.000262      0.000267      0.000000
     57 Si    c      -0.000056     -0.000197      0.000721      0.000000
     58 Si    c      -0.000065     -0.000186      0.003190      0.000000
     59 Si    c       0.000025     -0.000085      0.000345      0.000000
     60 Si    c      -0.000096      0.000273     -0.001480      0.000000
     61 O2    c      -0.000087      0.000160     -0.000190      0.000000
     62 O2    c      -0.000376      0.000061     -0.001048      0.000000
     63 O2    c       0.000044     -0.000012     -0.000085      0.000000
     64 O2    c      -0.000003     -0.000007     -0.000181      0.000000
     65 O2    c       0.000016     -0.000136      0.000017      0.000000
     66 O2    c       0.000121     -0.000175      0.000514      0.000000
     67 O2    c      -0.000081      0.000534      0.000030      0.000000
     68 O2    c      -0.000208     -0.000106     -0.000559      0.000000
     69 O2    c       0.000413     -0.000408     -0.000925      0.000000
     70 O2    c      -0.000138     -0.000440     -0.001122      0.000000
     71 O2    c       0.000067      0.000114     -0.000471      0.000000
     72 O2    c      -0.000195      0.000188     -0.000230      0.000000
     73 O2    c       0.000451     -0.000250      0.000428      0.000000
     74 O2    c      -0.000024     -0.000549      0.001100      0.000000
     75 O2    c      -0.000203      0.000617      0.000433      0.000000
     76 O2    c      -0.000101     -0.000081      0.000084      0.000000
     77 O2    c       0.000305      0.000120      0.000932      0.000000
     78 O2    c       0.000610     -0.000509      0.001446      0.000000
     79 O2    c      -0.000185     -0.000036     -0.000201      0.000000
     80 O3    c       0.001913     -0.001577     -0.000445      0.000000
     81 O2    c       0.000035     -0.000112     -0.000025      0.000000
     82 O2    c       0.000164      0.000024      0.000190      0.000000
     83 O2    c      -0.000422      0.000487     -0.000013      0.000000
     84 O2    c       0.000020      0.000003      0.000231      0.000000
     85 O3    c      -0.000001     -0.000392     -0.000601      0.000000
     86 O2    c       0.000004      0.000058     -0.000285      0.000000
     87 O2    c       0.000250     -0.000062      0.000342      0.000000
     88 O2    c      -0.000064      0.000413      0.000319      0.000000
     89 O2    c      -0.000085      0.000100     -0.000128      0.000000
     90 O2    c       0.000037     -0.000033     -0.000320      0.000000
     91 O2    c      -0.000713      0.000365      0.004257      0.000000
     92 O2    c       0.000113     -0.000132      0.000831      0.000000
     93 O2    c      -0.000355     -0.000005     -0.003802      0.000000
     94 O2    c       0.000162      0.000095      0.001539      0.000000
     95 O2    c      -0.000037     -0.000004      0.000130      0.000000
     96 O2    c       0.000305      0.000303     -0.002882      0.000000
     97 O2    c       0.000025      0.000056      0.000165      0.000000
     98 O2    c      -0.000047     -0.000435      0.000655      0.000000
     99 O2    c      -0.000150      0.000013     -0.000045      0.000000
    100 O2    c       0.000121     -0.000134     -0.000100      0.000000
    101 O3    c      -0.000110     -0.000704     -0.000270      0.000000
    102 O2    c      -0.000156      0.000013     -0.000089      0.000000
    103 O2    c       0.001578     -0.001210     -0.001032      0.000000
    104 O2    c       0.000051     -0.000038     -0.000021      0.000000
    105 O2    c      -0.000005     -0.000007     -0.000219      0.000000
    106 O2    c       0.000555     -0.000369      0.000516      0.000000
    107 O2    c       0.000040      0.000051     -0.000011      0.000000
    108 O2    c       0.000074     -0.000375     -0.000221      0.000000
    109 O2    c      -0.000045      0.000311     -0.000558      0.000000
    110 O2    c      -0.000149      0.000012      0.000172      0.000000
    111 O2    c       0.000178     -0.000180      0.000169      0.000000
    112 O2    c       0.000040     -0.000086     -0.000192      0.000000
    113 O2    c      -0.000009      0.000074      0.000217      0.000000
    114 O2    c      -0.000182      0.000253      0.000750      0.000000
    115 O2    c       0.000051      0.000033      0.000022      0.000000
    116 O3    c       0.000158      0.000126      0.000723      0.000000
    117 O2    c       0.000071      0.000056     -0.000032      0.000000
    118 O2    c       0.000062     -0.000073     -0.000333      0.000000
    119 O2    c      -0.000047      0.000092      0.000008      0.000000
    120 O2    c      -0.000079     -0.000058      0.000044      0.000000
    121 O3    c       0.000023     -0.000155     -0.000914      0.000000
    122 O2    c      -0.000190      0.000087      0.000169      0.000000
    123 O2    c       0.000085      0.000138      0.000315      0.000000
    124 O2    c      -0.000001     -0.000036     -0.000022      0.000000
    125 O2    c       0.000089     -0.000012      0.000153      0.000000
    126 O2    c      -0.000101     -0.000127      0.000557      0.000000
    127 O2    c       0.000189      0.000067     -0.000371      0.000000
    128 O2    c       0.000018     -0.000449      0.000035      0.000000
    129 O2    c      -0.000128     -0.000310      0.000355      0.000000
    130 O2    c      -0.000101      0.000018      0.000168      0.000000
    131 O3    c       0.000465     -0.000588      0.000471      0.000000
    132 O2    c      -0.000148      0.000184      0.000567      0.000000
    133 O2    c       0.000238     -0.000291     -0.000178      0.000000
    134 O2    c       0.000226     -0.000224     -0.000196      0.000000
    135 O2    c      -0.000108     -0.000047     -0.000063      0.000000
    136 O2    c       0.000035     -0.000252     -0.000035      0.000000
    137 O2    c      -0.000106      0.000171     -0.000359      0.000000
    138 O2    c       0.000022     -0.000007      0.000120      0.000000
    139 O2    c       0.000072     -0.000073     -0.000145      0.000000
    140 O3    c       0.000013      0.000200      0.001322      0.000000
    141 O2    c       0.000187     -0.000417      0.000341      0.000000
    142 O2    c      -0.000124     -0.000019      0.000283      0.000000
    143 O2    c       0.000130     -0.000235      0.000533      0.000000
    144 O2    c      -0.000456      0.000719      0.000224      0.000000
    145 O3    c       0.000124      0.000081     -0.001805      0.000000
    146 O2    c       0.000161     -0.000181     -0.000277      0.000000
    147 O2    c      -0.000111      0.000008     -0.000240      0.000000
    148 O2    c       0.000145     -0.000422     -0.000520      0.000000
    149 O2    c      -0.000221      0.000608     -0.000248      0.000000
    150 O2    c       0.000409     -0.000256     -0.000022      0.000000
    151 O3    c       0.000127      0.000100      0.000959      0.000000
    152 O3    c      -0.000233      0.000196      0.000001      0.000000
    153 O2    c       0.000093     -0.000186      0.000003      0.000000
    154 O2    c       0.000076     -0.000090      0.001784      0.000000
    155 O2    c       0.000236     -0.000112     -0.000253      0.000000
    156 O2    c      -0.000024      0.000085      0.000141      0.000000
    157 O3    c       0.000019      0.000113      0.000995      0.000000
    158 O2    c       0.000032     -0.000045     -0.000541      0.000000
    159 O2    c      -0.000194      0.000124      0.000298      0.000000
    160 O2    c      -0.000099     -0.000078      0.000211      0.000000
    161 O2    c      -0.000082      0.000145     -0.000605      0.000000
    162 O2    c       0.000057     -0.000149     -0.001393      0.000000
    163 O2    c      -0.000072      0.000212      0.000029      0.000000
    164 O2    c      -0.000093     -0.000124     -0.000418      0.000000
    165 O2    c       0.000051      0.000001     -0.000204      0.000000
    166 O2    c       0.000060     -0.000150     -0.000134      0.000000
    167 O2    c       0.000150      0.000066     -0.000059      0.000000
    168 O2    c      -0.000196      0.000136     -0.000015      0.000000
    169 O2    c       0.000210      0.000004      0.000221      0.000000
    170 O2    c      -0.000091     -0.000051      0.000102      0.000000
    171 O2    c      -0.000187      0.000342     -0.000065      0.000000
    172 O3    c      -0.000046      0.000184      0.000963      0.000000
    173 O2    c       0.000074      0.000012      0.000191      0.000000
    174 O2    c       0.000002     -0.000066      0.000210      0.000000
    175 O2    c       0.000003     -0.000100      0.000648      0.000000
    176 O2    c       0.000117      0.000012      0.000034      0.000000
    177 O2    c      -0.000254      0.000177      0.000155      0.000000
    178 O2    c      -0.000004      0.000219      0.000559      0.000000
    179 O2    c      -0.000099      0.000007      0.000025      0.000000
    180 O2    c       0.000153     -0.000097     -0.000362      0.000000
    181 F     c       0.000027     -0.000243      0.000335      0.000000
    182 F     c       0.000008      0.000001     -0.000046      0.000000
    183 F     c      -0.000003     -0.000014     -0.000141      0.000000
    184 F     c      -0.000005     -0.000106     -0.000150      0.000000
    185 F     c       0.000044      0.000069      0.000013      0.000000
    186 F     c       0.000163     -0.000171     -0.000500      0.000000
    187 O2    s      -0.000005      0.000036     -0.000130      0.000000
    188 O2    s      -0.000394      0.000183      0.000211      0.000000
    189 O2    s      -0.000006      0.000102      0.000058      0.000000
    190 O2    s      -0.000046      0.000039      0.000414      0.000000
    191 O2    s      -0.000053      0.000084      0.000269      0.000000
    192 O2    s      -0.000051      0.000099     -0.000707      0.000000
    193 O2    s       0.000350     -0.000422     -0.000466      0.000000
    194 O2    s      -0.000125      0.000104     -0.000190      0.000000
    195 O2    s       0.000072     -0.000049     -0.000013      0.000000
    196 O2    s       0.000141     -0.000053     -0.000240      0.000000
    197 O2    s       0.000163     -0.000193     -0.000083      0.000000
    198 O2    s      -0.000092      0.000106      0.000070      0.000000
    199 O2    s      -0.000044      0.000065      0.000006      0.000000
    200 O2    s       0.000067     -0.000006     -0.000127      0.000000
    201 O2    s      -0.000121     -0.000472      0.000142      0.000000
    202 O2    s       0.000028     -0.000058     -0.000099      0.000000
    203 O2    s      -0.000211      0.000236     -0.000180      0.000000
    204 O2    s       0.000193     -0.000126     -0.000405      0.000000
    205 O2    s      -0.000044     -0.000030     -0.000342      0.000000
    206 O3    s      -0.001204      0.000319      0.000111      0.000000
    207 O2    s       0.000088      0.000021     -0.000326      0.000000
    208 O2    s      -0.000352      0.000005     -0.000429      0.000000
    209 O2    s      -0.000095      0.000412     -0.000708      0.000000
    210 O2    s      -0.000127      0.000151     -0.000806      0.000000
    211 O3    s       0.000262      0.000643      0.001645      0.000000
    212 O2    s      -0.000011     -0.000000      0.000610      0.000000
    213 O2    s      -0.000048      0.000174      0.000044      0.000000
    214 O2    s      -0.000384      0.000651      0.000743      0.000000
    215 O2    s      -0.000030      0.000111      0.000425      0.000000
    216 O2    s       0.000329      0.000087      0.000275      0.000000
    217 O2    s      -0.000007     -0.000161     -0.000400      0.000000
    218 O2    s      -0.000000      0.000008      0.000108      0.000000
    219 O2    s      -0.000142      0.000033      0.000545      0.000000
    220 O2    s       0.000165     -0.000041      0.000056      0.000000
    221 O2    s      -0.000010     -0.000014     -0.000222      0.000000
    222 O2    s      -0.000203     -0.000182      0.001027      0.000000
    223 O2    s       0.000131     -0.000125     -0.000191      0.000000
    224 O2    s       0.000273      0.000448     -0.000968      0.000000
    225 O2    s       0.000006     -0.000009      0.000213      0.000000
    226 O2    s       0.000013     -0.000125      0.000822      0.000000
    227 O3    s       0.000215     -0.000194     -0.000613      0.000000
    228 O2    s       0.000011      0.000014      0.000390      0.000000
    229 O2    s      -0.000541      0.000078      0.000738      0.000000
    230 O2    s      -0.000010      0.000042     -0.000353      0.000000
    231 O2    s      -0.000076     -0.000042      0.000197      0.000000
    232 O2    s       0.000302     -0.000555      0.000493      0.000000
    233 O2    s       0.000061     -0.000005     -0.000505      0.000000
    234 O2    s       0.000067     -0.000122     -0.000873      0.000000
    235 O2    s      -0.000285     -0.000038      0.000031      0.000000
    236 O2    s      -0.000065      0.000003      0.000054      0.000000
    237 O2    s       0.000086     -0.000113      0.000027      0.000000
    238 O2    s       0.000004     -0.000435     -0.000076      0.000000
    239 O2    s       0.000519     -0.000164     -0.000432      0.000000
    240 O2    s       0.000227     -0.000058     -0.000154      0.000000
    241 O2    s      -0.000081      0.000093     -0.000052      0.000000
    242 O3    s      -0.000221     -0.000090     -0.001608      0.000000
    243 O2    s       0.000106     -0.000090     -0.000307      0.000000
    244 O2    s       0.000169     -0.000216     -0.000175      0.000000
    245 O2    s       0.000101     -0.000015     -0.000578      0.000000
    246 O2    s      -0.000176      0.000128     -0.000549      0.000000
    247 O3    s       0.000069      0.000169      0.001952      0.000000
    248 O2    s      -0.000024      0.000030      0.000090      0.000000
    249 O2    s      -0.000005      0.000101      0.000051      0.000000
    250 O2    s      -0.000187      0.000134      0.000287      0.000000
    251 O2    s       0.000006      0.000051      0.000149      0.000000
    252 O2    s       0.000032     -0.000240      0.000214      0.000000
    253 O2    s      -0.000315      0.000019      0.001049      0.000000
    254 O2    s       0.000061      0.000032      0.000429      0.000000
    255 O2    s       0.000172      0.000152      0.000455      0.000000
    256 O2    s      -0.000006     -0.000035      0.000259      0.000000
    257 O3    s      -0.000141      0.000474      0.000607      0.000000
    258 O2    s      -0.000050     -0.000086      0.000030      0.000000
    259 O2    s       0.000100     -0.000018     -0.000288      0.000000
    260 O2    s      -0.000085      0.000051     -0.000548      0.000000
    261 O2    s      -0.000003      0.000079     -0.000466      0.000000
    262 O2    s      -0.000131      0.000185     -0.000833      0.000000
    263 O2    s       0.000009      0.000015     -0.000160      0.000000
    264 O2    s       0.000173     -0.000019     -0.000717      0.000000
    265 O2    s      -0.000035     -0.000018      0.000201      0.000000
    266 O3    s      -0.000021     -0.000032     -0.001142      0.000000
    267 O2    s      -0.000200      0.000304      0.000157      0.000000
    268 O2    s       0.000017      0.000033     -0.000013      0.000000
    269 O2    s      -0.000142      0.000275     -0.000438      0.000000
    270 O2    s       0.000217     -0.000133      0.000214      0.000000
    271 O3    s      -0.000309      0.000282      0.001704      0.000000
    272 O2    s      -0.000096      0.000237     -0.000058      0.000000
    273 O2    s       0.000105     -0.000047     -0.000113      0.000000
    274 O2    s      -0.000280      0.000519      0.000234      0.000000
    275 O2    s      -0.000111     -0.000074     -0.000091      0.000000
    276 O2    s      -0.000164      0.000212     -0.000443      0.000000
    277 O3    s      -0.000066     -0.000011     -0.000413      0.000000
    278 O3    s       0.000051     -0.000122     -0.000319      0.000000
    279 O2    s      -0.000014      0.000044      0.000132      0.000000
    280 O2    s       0.000260     -0.000113      0.000183      0.000000
    281 O2    s      -0.000043      0.000051      0.000173      0.000000
    282 O2    s      -0.000106      0.000051      0.000206      0.000000
    283 O3    s       0.000110     -0.000002     -0.000544      0.000000
    284 O2    s       0.000007     -0.000147      0.000253      0.000000
    285 O2    s       0.000024      0.000051     -0.000416      0.000000
    286 O2    s      -0.000064      0.000015     -0.000239      0.000000
    287 O2    s       0.000076     -0.000024      0.000329      0.000000
    288 O2    s      -0.000053     -0.000151     -0.000365      0.000000
    289 O2    s      -0.000113      0.000143     -0.000373      0.000000
    290 O2    s       0.000125      0.000326      0.000507      0.000000
    291 O2    s       0.000023     -0.000006     -0.000077      0.000000
    292 O2    s       0.000065      0.000004     -0.000306      0.000000
    293 O2    s      -0.000040      0.000028     -0.000217      0.000000
    294 O2    s      -0.000031     -0.000086     -0.000594      0.000000
    295 O2    s      -0.000430      0.000129     -0.000534      0.000000
    296 O2    s       0.000108     -0.000054      0.000075      0.000000
    297 O2    s      -0.000019      0.000057      0.000674      0.000000
    298 O3    s      -0.000208      0.000079     -0.000413      0.000000
    299 O2    s      -0.000024      0.000008      0.000155      0.000000
    300 O2    s       0.000032     -0.000020      0.000055      0.000000
    301 O2    s       0.000102     -0.000175     -0.000056      0.000000
    302 O2    s       0.000030      0.000012      0.000011      0.000000
    303 O2    s       0.000075      0.000033     -0.000130      0.000000
    304 O2    s      -0.000148      0.000094     -0.000126      0.000000
    305 O2    s      -0.000050      0.000045      0.000276      0.000000
    306 O2    s       0.000131     -0.000279      0.000088      0.000000
    307 F     s       0.000205      0.000341     -0.000190      0.000000
    308 F     s      -0.000015      0.000010      0.000077      0.000000
    309 F     s      -0.000091     -0.000016     -0.000551      0.000000
    310 F     s      -0.000011      0.000289      0.000076      0.000000
    311 F     s      -0.000183     -0.000108      0.000306      0.000000
    312 F     s      -0.000476      0.000258      0.000430      0.000000
--------------------------------------------------------------------------------
  Maximum abs         0.001913      0.001577      0.004257      0.000000
--------------------------------------------------------------------------------


  Time to end of optimisation =       8.6185 seconds


  Peak dynamic memory used =      19.13 MB 


  Timing analysis for GULP :

--------------------------------------------------------------------------------
  Task / Subroutine                                          Time (Seconds)
--------------------------------------------------------------------------------
  Calculation of reciprocal space energy and derivatives          0.3052
  Calculation of real space energy and derivatives                7.1514
  Calculation of three-body energy and derivatives                0.9356
  Calculation of matrix inversion                                 0.1920
--------------------------------------------------------------------------------
  Total CPU time                                                  8.6185
--------------------------------------------------------------------------------


  Dump file written as out.res                                                 
  CIF file written as out.cif                                                 


  Job Finished at 23:30.51 26th November   2016                               

