********************************************************************************
*                       GENERAL UTILITY LATTICE PROGRAM                        *
*                                 Julian Gale                                  *
*                      Nanochemistry Research Institute                        *
*                           Department of Chemistry                            *
*                    Curtin University, Western Australia                      *
********************************************************************************
* Version = 4.2.0 * Last modified =  20th January 2014                         *
********************************************************************************
*  optimise     - perform optimisation run                                     *
*  conp         - constant pressure calculation                                *
*  qok          - running with non charge neutral cell is OK                   *
********************************************************************************

  Job Started  at 16:02.52 25th October    2016                               

  Number of CPUs =     1


  Total number of configurations input =   1

********************************************************************************
*  Input for Configuration =   1                                               *
********************************************************************************

  Formula = Ge3Si57O120F6                                               

  Number of irreducible atoms/shells =     312


  Total number atoms/shells =     312

  Dimensionality = 3               :  Bulk   


  Charge on solid   =  -6.000000 =>neutralising background added


  Cartesian lattice vectors (Angstroms) :

       11.884843    0.000000    0.000000
       -6.033878   10.421818    0.000000
        0.174997   -0.125173   29.515426

  Cell parameters (Angstroms/Degrees):

  a =      11.8848    alpha =  90.3805
  b =      12.0425    beta  =  89.6603
  c =      29.5162    gamma = 120.0694

  Initial cell volume =        3655.829931 Angs**3

  Temperature of configuration =  0.000     K 

  Pressure of configuration =         0.000 GPa 

  Fractional coordinates of asymmetric unit :

--------------------------------------------------------------------------------
   No.  Atomic       x           y          z         Charge      Occupancy
        Label      (Frac)      (Frac)     (Frac)        (e)         (Frac)  
--------------------------------------------------------------------------------
      1 Ge    c    0.699600    0.375700    0.033890     4.00000    1.000000    
      2 Si    c    0.611842 *  0.321828 *  0.362825 *   4.00000    1.000000    
      3 Si    c    0.683609 *  0.305958 *  0.695448 *   4.00000    1.000000    
      4 Ge    c    0.270735 *  0.607047 *  0.532530 *   4.00000    1.000000    
      5 Si    c    0.377817 *  0.677359 *  0.863727 *   4.00000    1.000000    
      6 Si    c    0.308893 *  0.699449 *  0.196392 *   4.00000    1.000000    
      7 Si    c    0.362514 *  0.694445 *  0.296688 *   4.00000    1.000000    
      8 Si    c    0.318526 *  0.621115 *  0.963322 *   4.00000    1.000000    
      9 Si    c    0.300629 *  0.675122 *  0.630404 *   4.00000    1.000000    
     10 Si    c    0.630436 *  0.305730 *  0.798060 *   4.00000    1.000000    
     11 Si    c    0.665211 *  0.379092 *  0.462554 *   4.00000    1.000000    
     12 Si    c    0.676050 *  0.314285 *  0.132140 *   4.00000    1.000000    
     13 Si    c    0.533104 *  0.420435 *  0.965149 *   4.00000    1.000000    
     14 Si    c    0.571087 *  0.106521 *  0.300660 *   4.00000    1.000000    
     15 Si    c    0.883226 *  0.475381 *  0.628690 *   4.00000    1.000000    
     16 Si    c    0.451155 *  0.579401 *  0.463426 *   4.00000    1.000000    
     17 Si    c    0.419922 *  0.890772 *  0.800942 *   4.00000    1.000000    
     18 Si    c    0.099086 *  0.527879 *  0.129563 *   4.00000    1.000000    
     19 Si    c    0.403341 *  0.523980 *  0.360946 *   4.00000    1.000000    
     20 Si    c    0.099709 *  0.578198 *  0.026469 *   4.00000    1.000000    
     21 Si    c    0.469203 *  0.881740 *  0.697575 *   4.00000    1.000000    
     22 Si    c    0.584324 *  0.474791 *  0.863016 *   4.00000    1.000000    
     23 Si    c    0.879055 *  0.416221 *  0.526115 *   4.00000    1.000000    
     24 Si    c    0.517093 *  0.107042 *  0.199635 *   4.00000    1.000000    
     25 Si    c    0.301304 *  0.402190 *  0.848142 *   4.00000    1.000000    
     26 Si    c    0.589173 *  0.901114 *  0.182627 *   4.00000    1.000000    
     27 Si    c    0.092227 *  0.701731 *  0.509281 *   4.00000    1.000000    
     28 Si    c    0.686640 *  0.595551 *  0.347060 *   4.00000    1.000000    
     29 Si    c    0.399918 *  0.094711 *  0.681377 *   4.00000    1.000000    
     30 Si    c    0.888305 *  0.291246 *  0.011042 *   4.00000    1.000000    
     31 Si    c    0.384218 *  0.299647 *  0.476511 *   4.00000    1.000000    
     32 Si    c    0.882256 *  0.598553 *  0.142506 *   4.00000    1.000000    
     33 Si    c    0.708018 *  0.103806 *  0.816374 *   4.00000    1.000000    
     34 Si    c    0.599046 *  0.700415 *  0.977866 *   4.00000    1.000000    
     35 Si    c    0.090987 *  0.393929 *  0.643173 *   4.00000    1.000000    
     36 Si    c    0.287274 *  0.896138 *  0.313247 *   4.00000    1.000000    
     37 Si    c    0.251461 *  0.343765 *  0.948312 *   4.00000    1.000000    
     38 Si    c    0.646169 *  0.904829 *  0.282959 *   4.00000    1.000000    
     39 Si    c    0.090134 *  0.753212 *  0.612118 *   4.00000    1.000000    
     40 Si    c    0.733337 *  0.656138 *  0.447283 *   4.00000    1.000000    
     41 Si    c    0.341741 *  0.091450 *  0.783432 *   4.00000    1.000000    
     42 Si    c    0.894913 *  0.246880 *  0.114018 *   4.00000    1.000000    
     43 Si    c    0.328340 *  0.247461 *  0.375847 *   4.00000    1.000000    
     44 Si    c    0.894798 *  0.659041 *  0.040166 *   4.00000    1.000000    
     45 Ge    c    0.735803 *  0.093285 *  0.716399 *   4.00000    1.000000    
     46 Si    c    0.660666 *  0.752124 *  0.877391 *   4.00000    1.000000    
     47 Si    c    0.076376 *  0.326790 *  0.540969 *   4.00000    1.000000    
     48 Si    c    0.236494 *  0.905838 *  0.212958 *   4.00000    1.000000    
     49 Si    c    0.975196 *  0.121049 *  0.963749 *   4.00000    1.000000    
     50 Si    c    0.864660 *  0.842796 *  0.296741 *   4.00000    1.000000    
     51 Si    c    0.150359 *  0.030157 *  0.630619 *   4.00000    1.000000    
     52 Si    c    0.012023 *  0.875082 *  0.462001 *   4.00000    1.000000    
     53 Si    c    0.122643 *  0.156176 *  0.796396 *   4.00000    1.000000    
     54 Si    c    0.838311 *  0.971063 *  0.130760 *   4.00000    1.000000    
     55 Si    c    0.108413 *  0.968791 *  0.362045 *   4.00000    1.000000    
     56 Si    c    0.846394 *  0.882899 *  0.029558 *   4.00000    1.000000    
     57 Si    c    0.020809 *  0.147614 *  0.695943 *   4.00000    1.000000    
     58 Si    c    0.882130 *  0.029791 *  0.863985 *   4.00000    1.000000    
     59 Si    c    0.138063 *  0.112784 *  0.529190 *   4.00000    1.000000    
     60 Si    c    0.956784 *  0.847085 *  0.195157 *   4.00000    1.000000    
     61 O2    c    0.931078 *  0.006158 *  0.998859 *   0.87073    1.000000    
     62 O2    c    0.988782 *  0.925214 *  0.328129 *   0.87073    1.000000    
     63 O2    c    0.071332 *  0.072008 *  0.663529 *   0.87073    1.000000    
     64 O2    c    0.058853 *  0.988469 *  0.498275 *   0.87073    1.000000    
     65 O2    c    0.000194 *  0.074310 *  0.828845 *   0.87073    1.000000    
     66 O2    c    0.920796 *  0.932269 *  0.163269 *   0.87073    1.000000    
     67 O2    c    0.325481 *  0.571324 *  0.328283 *   0.87073    1.000000    
     68 O2    c    0.407372 *  0.749870 *  0.669230 *   0.87073    1.000000    
     69 O2    c    0.229142 *  0.655684 *  0.995763 *   0.87073    1.000000    
     70 O2    c    0.662754 *  0.426759 *  0.830258 *   0.87073    1.000000    
     71 O2    c    0.566362 *  0.235646 *  0.169951 *   0.87073    1.000000    
     72 O2    c    0.749987 *  0.341296 *  0.495494 *   0.87073    1.000000    
     73 O3    c    0.569812 *  0.339312 *  0.996889 *   1.33043    1.000000    
     74 O2    c    0.759203 *  0.430305 *  0.662066 *   0.87073    1.000000    
     75 O2    c    0.650044 *  0.232526 *  0.332160 *   0.87073    1.000000    
     76 O3    c    0.404501 *  0.652262 *  0.495382 *   1.33043    1.000000    
     77 O2    c    0.223596 *  0.578572 *  0.162411 *   0.87073    1.000000    
     78 O2    c    0.341032 *  0.765857 *  0.832540 *   0.87073    1.000000    
     79 O2    c    0.129155 *  0.215688 *  0.969410 *   0.87073    1.000000    
     80 O2    c    0.772051 *  0.904077 *  0.303212 *   0.87073    1.000000    
     81 O2    c    0.090028 *  0.876576 *  0.634202 *   0.87073    1.000000    
     82 O2    c    0.857109 *  0.785511 *  0.467383 *   0.87073    1.000000    
     83 O2    c    0.217207 *  0.095892 *  0.802773 *   0.87073    1.000000    
     84 O2    c    0.898170 *  0.124636 *  0.135165 *   0.87073    1.000000    
     85 O2    c    0.201808 *  0.121332 *  0.355432 *   0.87073    1.000000    
     86 O2    c    0.914220 *  0.796714 *  0.024314 *   0.87073    1.000000    
     87 O3    c    0.870413 *  0.082887 *  0.693299 *   1.33043    1.000000    
     88 O2    c    0.788422 *  0.876807 *  0.857067 *   0.87073    1.000000    
     89 O2    c    0.059949 *  0.189705 *  0.525309 *   0.87073    1.000000    
     90 O2    c    0.111942 *  0.907918 *  0.191839 *   0.87073    1.000000    
     91 O2    c    0.912871 *  0.855407 *  0.245461 *   0.87073    1.000000    
     92 O2    c    0.139980 *  0.069348 *  0.580072 *   0.87073    1.000000    
     93 O2    c    0.941416 *  0.060801 *  0.913907 *   0.87073    1.000000    
     94 O2    c    0.076131 *  0.144727 *  0.745439 *   0.87073    1.000000    
     95 O2    c    0.852003 *  0.931275 *  0.080426 *   0.87073    1.000000    
     96 O2    c    0.052436 *  0.936305 *  0.412536 *   0.87073    1.000000    
     97 O2    c    0.902511 *  0.200955 *  0.973331 *   0.87073    1.000000    
     98 O2    c    0.785620 *  0.692196 *  0.308663 *   0.87073    1.000000    
     99 O2    c    0.303131 *  0.097035 *  0.643633 *   0.87073    1.000000    
    100 O2    c    0.078948 *  0.790001 *  0.471094 *   0.87073    1.000000    
    101 O2    c    0.204007 *  0.306471 *  0.809355 *   0.87073    1.000000    
    102 O2    c    0.686051 *  0.900195 *  0.143689 *   0.87073    1.000000    
    103 O2    c    0.189403 *  0.896202 *  0.351922 *   0.87073    1.000000    
    104 O2    c    0.694790 *  0.800289 *  0.016100 *   0.87073    1.000000    
    105 O2    c    0.087270 *  0.298705 *  0.682029 *   0.87073    1.000000    
    106 O2    c    0.797873 *  0.100610 *  0.857516 *   0.87073    1.000000    
    107 O2    c    0.288052 *  0.201476 *  0.514851 *   0.87073    1.000000    
    108 O2    c    0.885497 *  0.697514 *  0.180648 *   0.87073    1.000000    
    109 O2    c    0.307250 *  0.639403 *  0.245885 *   0.87073    1.000000    
    110 O3    c    0.366382 *  0.682986 *  0.582735 *   1.33043    1.000000    
    111 O2    c    0.315843 *  0.676609 *  0.913291 *   0.87073    1.000000    
    112 O2    c    0.683098 *  0.357403 *  0.747058 *   0.87073    1.000000    
    113 O3    c    0.607867 *  0.302575 *  0.084608 *   1.33043    1.000000    
    114 O2    c    0.671175 *  0.323256 *  0.412645 *   0.87073    1.000000    
    115 O2    c    0.374864 *  0.335080 *  0.964759 *   0.87073    1.000000    
    116 O2    c    0.657735 *  0.036542 *  0.302054 *   0.87073    1.000000    
    117 O2    c    0.955876 *  0.630230 *  0.629017 *   0.87073    1.000000    
    118 O2    c    0.609775 *  0.665507 *  0.464124 *   0.87073    1.000000    
    119 O2    c    0.334438 *  0.962194 *  0.802129 *   0.87073    1.000000    
    120 O2    c    0.026793 *  0.372759 *  0.131167 *   0.87073    1.000000    
    121 O2    c    0.318156 *  0.368305 *  0.356997 *   0.87073    1.000000    
    122 O2    c    0.028904 *  0.662747 *  0.024621 *   0.87073    1.000000    
    123 O3    c    0.621816 *  0.944100 *  0.691816 *   1.33043    1.000000    
    124 O2    c    0.669606 *  0.629955 *  0.858438 *   0.87073    1.000000    
    125 O2    c    0.946240 *  0.327832 *  0.523988 *   0.87073    1.000000    
    126 O2    c    0.360015 *  0.037483 *  0.195055 *   0.87073    1.000000    
    127 O3    c    0.753415 *  0.282368 *  0.002206 *   1.33043    1.000000    
    128 O2    c    0.686968 *  0.462172 *  0.338606 *   0.87073    1.000000    
    129 O2    c    0.536034 *  0.227549 *  0.675580 *   0.87073    1.000000    
    130 O3    c    0.223403 *  0.703628 *  0.500286 *   1.33043    1.000000    
    131 O2    c    0.304111 *  0.536723 *  0.839403 *   0.87073    1.000000    
    132 O2    c    0.453123 *  0.768949 *  0.173702 *   0.87073    1.000000    
    133 O2    c    0.285834 *  0.761703 *  0.319059 *   0.87073    1.000000    
    134 O2    c    0.463081 *  0.699666 *  0.985164 *   0.87073    1.000000    
    135 O2    c    0.226230 *  0.527225 *  0.648766 *   0.87073    1.000000    
    136 O2    c    0.706047 *  0.238199 *  0.820077 *   0.87073    1.000000    
    137 O2    c    0.520084 *  0.301007 *  0.484112 *   0.87073    1.000000    
    138 O2    c    0.749860 *  0.463516 *  0.150221 *   0.87073    1.000000    
    139 O3    c    0.769291 *  0.545365 *  0.018783 *   1.33043    1.000000    
    140 O2    c    0.454453 *  0.244550 *  0.356777 *   0.87073    1.000000    
    141 O3    c    0.767368 *  0.236971 *  0.688880 *   1.33043    1.000000    
    142 O3    c    0.204197 *  0.438519 *  0.519358 *   1.33043    1.000000    
    143 O2    c    0.535453 *  0.755605 *  0.858142 *   0.87073    1.000000    
    144 O2    c    0.231486 *  0.778218 *  0.192735 *   0.87073    1.000000    
    145 O2    c    0.519249 *  0.778459 *  0.301528 *   0.87073    1.000000    
    146 O2    c    0.246646 *  0.466357 *  0.968657 *   0.87073    1.000000    
    147 O2    c    0.211834 *  0.744407 *  0.630988 *   0.87073    1.000000    
    148 O2    c    0.474613 *  0.213733 *  0.800130 *   0.87073    1.000000    
    149 O2    c    0.738027 *  0.534298 *  0.467960 *   0.87073    1.000000    
    150 O2    c    0.770354 *  0.251474 *  0.132918 *   0.87073    1.000000    
    151 O2    c    0.227318 *  0.328454 *  0.894089 *   0.87073    1.000000    
    152 O2    c    0.663989 *  0.903660 *  0.228581 *   0.87073    1.000000    
    153 O2    c    0.091197 *  0.767849 *  0.557890 *   0.87073    1.000000    
    154 O2    c    0.758325 *  0.671090 *  0.393084 *   0.87073    1.000000    
    155 O2    c    0.331274 *  0.089104 *  0.729202 *   0.87073    1.000000    
    156 O2    c    0.894397 *  0.230747 *  0.059818 *   0.87073    1.000000    
    157 O2    c    0.309807 *  0.229482 *  0.430052 *   0.87073    1.000000    
    158 O2    c    0.885701 *  0.665638 *  0.095342 *   0.87073    1.000000    
    159 O3    c    0.786485 *  0.098423 *  0.773244 *   1.33043    1.000000    
    160 O2    c    0.676327 *  0.769722 *  0.931701 *   0.87073    1.000000    
    161 O2    c    0.081426 *  0.321722 *  0.596029 *   0.87073    1.000000    
    162 O2    c    0.217044 *  0.903233 *  0.267217 *   0.87073    1.000000    
    163 O2    c    0.582407 *  0.561893 *  0.987034 *   0.87073    1.000000    
    164 O2    c    0.428442 *  0.018780 *  0.323023 *   0.87073    1.000000    
    165 O2    c    0.974702 *  0.424992 *  0.649077 *   0.87073    1.000000    
    166 O2    c    0.400497 *  0.438069 *  0.485164 *   0.87073    1.000000    
    167 O2    c    0.562178 *  0.982534 *  0.822550 *   0.87073    1.000000    
    168 O2    c    0.005571 *  0.578529 *  0.148724 *   0.87073    1.000000    
    169 O2    c    0.546691 *  0.582767 *  0.338174 *   0.87073    1.000000    
    170 O2    c    0.010723 *  0.436639 *  0.005238 *   0.87073    1.000000    
    171 O2    c    0.416641 *  0.971121 *  0.674648 *   0.87073    1.000000    
    172 O2    c    0.441011 *  0.412275 *  0.840237 *   0.87073    1.000000    
    173 O2    c    0.968445 *  0.556619 *  0.504602 *   0.87073    1.000000    
    174 O2    c    0.578262 *  0.028045 *  0.174824 *   0.87073    1.000000    
    175 O2    c    0.569295 *  0.158527 *  0.250257 *   0.87073    1.000000    
    176 O2    c    0.835008 *  0.422408 *  0.577888 *   0.87073    1.000000    
    177 O2    c    0.588609 *  0.426918 *  0.913674 *   0.87073    1.000000    
    178 O2    c    0.422212 *  0.842025 *  0.749996 *   0.87073    1.000000    
    179 O2    c    0.144999 *  0.574737 *  0.078114 *   0.87073    1.000000    
    180 O2    c    0.399906 *  0.573813 *  0.411582 *   0.87073    1.000000    
    181 F     c    0.436880 *  0.897881 *  0.246238 *   0.56000    1.000000    
    182 F     c    0.124714 *  0.556320 *  0.568733 *   0.56000    1.000000    
    183 F     c    0.447818 *  0.554679 *  0.911002 *   0.56000    1.000000    
    184 F     c    0.588257 *  0.098302 *  0.742436 *   0.56000    1.000000    
    185 F     c    0.848493 *  0.433564 *  0.069695 *   0.56000    1.000000    
    186 F     c    0.540293 *  0.445593 *  0.410020 *   0.56000    1.000000    
    187 O2    s    0.926462 *  0.005207 *  0.998357 *  -2.87073    1.000000    
    188 O2    s    0.988197 *  0.920792 *  0.328393 *  -2.87073    1.000000    
    189 O2    s    0.075155 *  0.075087 *  0.663126 *  -2.87073    1.000000    
    190 O2    s    0.062599 *  0.989795 *  0.497684 *  -2.87073    1.000000    
    191 O2    s    0.000734 *  0.078492 *  0.829137 *  -2.87073    1.000000    
    192 O2    s    0.915653 *  0.927177 *  0.163186 *  -2.87073    1.000000    
    193 O2    s    0.337129 *  0.579373 *  0.328257 *  -2.87073    1.000000    
    194 O2    s    0.402613 *  0.756143 *  0.668130 *  -2.87073    1.000000    
    195 O2    s    0.224666 *  0.644024 *  0.995673 *  -2.87073    1.000000    
    196 O2    s    0.651469 *  0.418681 *  0.830095 *  -2.87073    1.000000    
    197 O2    s    0.572822 *  0.230487 *  0.169043 *  -2.87073    1.000000    
    198 O2    s    0.755071 *  0.353107 *  0.495388 *  -2.87073    1.000000    
    199 O3    s    0.575321 *  0.350699 *  0.996184 *  -3.33043    1.000000    
    200 O2    s    0.764541 *  0.422812 *  0.661906 *  -2.87073    1.000000    
    201 O2    s    0.637908 *  0.228294 *  0.331943 *  -2.87073    1.000000    
    202 O3    s    0.400322 *  0.640979 *  0.494462 *  -3.33043    1.000000    
    203 O2    s    0.218907 *  0.585243 *  0.162327 *  -2.87073    1.000000    
    204 O2    s    0.353041 *  0.770180 *  0.832333 *  -2.87073    1.000000    
    205 O2    s    0.125053 *  0.218635 *  0.966635 *  -2.87073    1.000000    
    206 O2    s    0.768720 *  0.897599 *  0.300419 *  -2.87073    1.000000    
    207 O2    s    0.096376 *  0.879784 *  0.631534 *  -2.87073    1.000000    
    208 O2    s    0.861242 *  0.781994 *  0.464760 *  -2.87073    1.000000    
    209 O2    s    0.221053 *  0.101563 *  0.800050 *  -2.87073    1.000000    
    210 O2    s    0.891579 *  0.121294 *  0.132529 *  -2.87073    1.000000    
    211 O2    s    0.204839 *  0.118017 *  0.358198 *  -2.87073    1.000000    
    212 O2    s    0.904920 *  0.792007 *  0.026471 *  -2.87073    1.000000    
    213 O3    s    0.878694 *  0.091010 *  0.695105 *  -3.33043    1.000000    
    214 O2    s    0.785093 *  0.880023 *  0.859856 *  -2.87073    1.000000    
    215 O2    s    0.069896 *  0.195451 *  0.527302 *  -2.87073    1.000000    
    216 O2    s    0.108126 *  0.901109 *  0.194367 *  -2.87073    1.000000    
    217 O2    s    0.912483 *  0.853023 *  0.245466 *  -2.87073    1.000000    
    218 O2    s    0.140937 *  0.069715 *  0.580151 *  -2.87073    1.000000    
    219 O2    s    0.938540 *  0.064065 *  0.913882 *  -2.87073    1.000000    
    220 O2    s    0.075659 *  0.146361 *  0.746087 *  -2.87073    1.000000    
    221 O2    s    0.849817 *  0.930432 *  0.080488 *  -2.87073    1.000000    
    222 O2    s    0.054187 *  0.933107 *  0.412403 *  -2.87073    1.000000    
    223 O2    s    0.908957 *  0.201699 *  0.976225 *  -2.87073    1.000000    
    224 O2    s    0.784095 *  0.698567 *  0.311258 *  -2.87073    1.000000    
    225 O2    s    0.297540 *  0.089869 *  0.646253 *  -2.87073    1.000000    
    226 O2    s    0.073012 *  0.789992 *  0.474106 *  -2.87073    1.000000    
    227 O2    s    0.205307 *  0.300250 *  0.811951 *  -2.87073    1.000000    
    228 O2    s    0.692438 *  0.907857 *  0.146277 *  -2.87073    1.000000    
    229 O2    s    0.190901 *  0.903772 *  0.349029 *  -2.87073    1.000000    
    230 O2    s    0.701144 *  0.798883 *  0.013620 *  -2.87073    1.000000    
    231 O2    s    0.081107 *  0.293853 *  0.679276 *  -2.87073    1.000000    
    232 O2    s    0.797635 *  0.093652 *  0.854147 *  -2.87073    1.000000    
    233 O2    s    0.281746 *  0.202004 *  0.512439 *  -2.87073    1.000000    
    234 O2    s    0.892663 *  0.703001 *  0.178204 *  -2.87073    1.000000    
    235 O2    s    0.312924 *  0.651032 *  0.245891 *  -2.87073    1.000000    
    236 O3    s    0.353400 *  0.677285 *  0.584442 *  -3.33043    1.000000    
    237 O2    s    0.322415 *  0.670991 *  0.913343 *  -2.87073    1.000000    
    238 O2    s    0.677807 *  0.347066 *  0.747186 *  -2.87073    1.000000    
    239 O3    s    0.620887 *  0.308638 *  0.086015 *  -3.33043    1.000000    
    240 O2    s    0.664514 *  0.328872 *  0.412653 *  -2.87073    1.000000    
    241 O2    s    0.377087 *  0.344758 *  0.962918 *  -2.87073    1.000000    
    242 O2    s    0.647581 *  0.029888 *  0.299894 *  -2.87073    1.000000    
    243 O2    s    0.962227 *  0.626732 *  0.627205 *  -2.87073    1.000000    
    244 O2    s    0.607572 *  0.655843 *  0.462164 *  -2.87073    1.000000    
    245 O2    s    0.343889 *  0.968597 *  0.800037 *  -2.87073    1.000000    
    246 O2    s    0.020656 *  0.375875 *  0.129222 *  -2.87073    1.000000    
    247 O2    s    0.327916 *  0.371585 *  0.359362 *  -2.87073    1.000000    
    248 O2    s    0.023011 *  0.653372 *  0.026373 *  -2.87073    1.000000    
    249 O3    s    0.614119 *  0.948368 *  0.694192 *  -3.33043    1.000000    
    250 O2    s    0.659868 *  0.626670 *  0.860878 *  -2.87073    1.000000    
    251 O2    s    0.952247 *  0.336959 *  0.525915 *  -2.87073    1.000000    
    252 O2    s    0.363168 *  0.030681 *  0.197433 *  -2.87073    1.000000    
    253 O3    s    0.764267 *  0.289432 *  0.005302 *  -3.33043    1.000000    
    254 O2    s    0.679302 *  0.461719 *  0.341959 *  -2.87073    1.000000    
    255 O2    s    0.536573 *  0.221385 *  0.678235 *  -2.87073    1.000000    
    256 O3    s    0.212113 *  0.697098 *  0.503444 *  -3.33043    1.000000    
    257 O2    s    0.311361 *  0.537171 *  0.842814 *  -2.87073    1.000000    
    258 O2    s    0.452378 *  0.775513 *  0.176994 *  -2.87073    1.000000    
    259 O2    s    0.293811 *  0.768899 *  0.316122 *  -2.87073    1.000000    
    260 O2    s    0.462206 *  0.691644 *  0.982120 *  -2.87073    1.000000    
    261 O2    s    0.219143 *  0.527621 *  0.646302 *  -2.87073    1.000000    
    262 O2    s    0.698469 *  0.231649 *  0.817401 *  -2.87073    1.000000    
    263 O2    s    0.521034 *  0.308948 *  0.481053 *  -2.87073    1.000000    
    264 O2    s    0.756727 *  0.463336 *  0.147603 *  -2.87073    1.000000    
    265 O3    s    0.779015 *  0.547603 *  0.022004 *  -3.33043    1.000000    
    266 O2    s    0.457057 *  0.252879 *  0.359403 *  -2.87073    1.000000    
    267 O3    s    0.756502 *  0.233591 *  0.691492 *  -3.33043    1.000000    
    268 O3    s    0.194584 *  0.437435 *  0.522522 *  -3.33043    1.000000    
    269 O2    s    0.532665 *  0.747133 *  0.860727 *  -2.87073    1.000000    
    270 O2    s    0.240156 *  0.783586 *  0.195244 *  -2.87073    1.000000    
    271 O2    s    0.516543 *  0.783484 *  0.299009 *  -2.87073    1.000000    
    272 O2    s    0.254701 *  0.469463 *  0.965962 *  -2.87073    1.000000    
    273 O2    s    0.207115 *  0.738471 *  0.628837 *  -2.87073    1.000000    
    274 O2    s    0.476631 *  0.210007 *  0.798079 *  -2.87073    1.000000    
    275 O2    s    0.729941 *  0.531125 *  0.465238 *  -2.87073    1.000000    
    276 O2    s    0.774737 *  0.257358 *  0.130744 *  -2.87073    1.000000    
    277 O2    s    0.237538 *  0.337786 *  0.894936 *  -2.87073    1.000000    
    278 O2    s    0.654235 *  0.903510 *  0.229455 *  -2.87073    1.000000    
    279 O2    s    0.091175 *  0.759813 *  0.558949 *  -2.87073    1.000000    
    280 O2    s    0.748231 *  0.661593 *  0.393921 *  -2.87073    1.000000    
    281 O2    s    0.339746 *  0.089934 *  0.729999 *  -2.87073    1.000000    
    282 O2    s    0.893836 *  0.238457 *  0.060820 *  -2.87073    1.000000    
    283 O2    s    0.319509 *  0.238679 *  0.429146 *  -2.87073    1.000000    
    284 O2    s    0.886150 *  0.657559 *  0.095041 *  -2.87073    1.000000    
    285 O3    s    0.774959 *  0.098617 *  0.773583 *  -3.33043    1.000000    
    286 O2    s    0.666639 *  0.760658 *  0.930743 *  -2.87073    1.000000    
    287 O2    s    0.081966 *  0.330050 *  0.595528 *  -2.87073    1.000000    
    288 O2    s    0.226346 *  0.902774 *  0.266212 *  -2.87073    1.000000    
    289 O2    s    0.578962 *  0.562793 *  0.983770 *  -2.87073    1.000000    
    290 O2    s    0.428166 *  0.014550 *  0.319613 *  -2.87073    1.000000    
    291 O2    s    0.977430 *  0.427277 *  0.646220 *  -2.87073    1.000000    
    292 O2    s    0.404071 *  0.436858 *  0.481955 *  -2.87073    1.000000    
    293 O2    s    0.562324 *  0.985625 *  0.819599 *  -2.87073    1.000000    
    294 O2    s    0.002290 *  0.575109 *  0.145993 *  -2.87073    1.000000    
    295 O2    s    0.546787 *  0.577864 *  0.341482 *  -2.87073    1.000000    
    296 O2    s    0.007651 *  0.437048 *  0.008102 *  -2.87073    1.000000    
    297 O2    s    0.420124 *  0.975947 *  0.677613 *  -2.87073    1.000000    
    298 O2    s    0.441077 *  0.417788 *  0.843424 *  -2.87073    1.000000    
    299 O2    s    0.971535 *  0.556185 *  0.507409 *  -2.87073    1.000000    
    300 O2    s    0.572974 *  0.022486 *  0.178200 *  -2.87073    1.000000    
    301 O2    s    0.563873 *  0.147517 *  0.250151 *  -2.87073    1.000000    
    302 O2    s    0.844615 *  0.427364 *  0.577947 *  -2.87073    1.000000    
    303 O2    s    0.582727 *  0.431415 *  0.913374 *  -2.87073    1.000000    
    304 O2    s    0.426791 *  0.851334 *  0.750137 *  -2.87073    1.000000    
    305 O2    s    0.135521 *  0.570124 *  0.078278 *  -2.87073    1.000000    
    306 O2    s    0.405308 *  0.568996 *  0.411299 *  -2.87073    1.000000    
    307 F     s    0.436575 *  0.897465 *  0.246028 *  -1.56000    1.000000    
    308 F     s    0.135473 *  0.560013 *  0.566129 *  -1.56000    1.000000    
    309 F     s    0.447169 *  0.555337 *  0.910741 *  -1.56000    1.000000    
    310 F     s    0.596867 *  0.098377 *  0.740953 *  -1.56000    1.000000    
    311 F     s    0.837959 *  0.429504 *  0.067278 *  -1.56000    1.000000    
    312 F     s    0.541120 *  0.444998 *  0.409791 *  -1.56000    1.000000    
--------------------------------------------------------------------------------



********************************************************************************
*  General input information                                                   *
********************************************************************************

  Species output for all configurations : 

--------------------------------------------------------------------------------
  Species    Type    Atomic    Atomic    Charge       Radii (Angs)     Library
                     Number     Mass       (e)     Cova   Ionic  VDW   Symbol
--------------------------------------------------------------------------------
    Si       Core       14      28.09   4.000000   1.200  0.000  2.100          
    O1       Core        8      16.00   1.733957   0.730  0.000  1.360          
    O1       Shell       8       0.00  -3.733957   0.730  0.000  1.360          
    O2       Core        8      16.00   0.870733   0.730  0.000  1.360          
    O2       Shell       8       0.00  -2.870733   0.730  0.000  1.360          
    O3       Core        8      16.00   1.330431   0.730  0.000  1.360          
    O3       Shell       8       0.00  -3.330431   0.730  0.000  1.360          
    F        Core        9      19.00   0.560000   0.710  0.000  1.300          
    F        Shell       9       0.00  -1.560000   0.710  0.000  1.300          
    Ge       Core       32      72.61   4.000000   1.170  0.000  1.750          
--------------------------------------------------------------------------------


  Lattice summation method               =    Ewald          (3-D)
                                         =    Parry          (2-D)
                                         =    Saunders et al (1-D)
  Accuracy factor for lattice sums       =   12.000


  Time limit = Infinity

  Maximum range for interatomic potentials =        16.000000 Angstroms

  Taper potentials to zero over   1.0000 Angstroms using polynomial

  General interatomic potentials :

--------------------------------------------------------------------------------
Atom  Types   Potential         A         B         C         D     Cutoffs(Ang)
  1     2                                                            Min    Max 
--------------------------------------------------------------------------------
Si   c O1   s Buckingham    0.132E+04 0.318      10.1      0.00     0.000 16.000
Si   c O2   s Buckingham    0.132E+04 0.318      10.1      0.00     0.000 16.000
Si   c O3   s Buckingham    0.132E+04 0.318      10.1      0.00     0.000 16.000
Ge   c O1   s Buckingham    0.150E+04 0.326      16.8      0.00     0.000 16.000
Ge   c O2   s Buckingham    0.150E+04 0.326      16.8      0.00     0.000 16.000
Ge   c O3   s Buckingham    0.150E+04 0.326      16.8      0.00     0.000 16.000
O1   s O1   s Buckingham    0.228E+05 0.149      10.9      0.00     0.000 16.000
O1   s O2   s Buckingham    0.228E+05 0.149      10.9      0.00     0.000 16.000
O1   s O3   s Buckingham    0.228E+05 0.149      10.9      0.00     0.000 16.000
O2   s O2   s Buckingham    0.228E+05 0.149      10.9      0.00     0.000 16.000
O2   s O3   s Buckingham    0.228E+05 0.149      10.9      0.00     0.000 16.000
O3   s O3   s Buckingham    0.228E+05 0.149      10.9      0.00     0.000 16.000
Si   c F    s Buckingham     977.     0.282      0.00      0.00     0.000 16.000
Ge   c F    s Buckingham     681.     0.320      0.00      0.00     0.000 16.000
F    s F    s Buckingham     540.     0.262      0.00      0.00     0.000 16.000
O1   s F    s Buckingham    0.168E+04 0.268      0.00      0.00     0.000 16.000
O2   s F    s Buckingham    0.168E+04 0.268      0.00      0.00     0.000 16.000
O3   s F    s Buckingham    0.168E+04 0.268      0.00      0.00     0.000 16.000
O2   c O2   s Spring (c-s)   76.0      0.00      0.00      0.00     0.000  0.800
O3   c O3   s Spring (c-s)   128.      0.00      0.00      0.00     0.000  0.800
O1   c O1   s Spring (c-s)   180.      0.00      0.00      0.00     0.000  0.800
F    c F    s Spring (c-s)   33.5      0.00      0.00      0.00     0.000  0.800
--------------------------------------------------------------------------------

  General Three-body potentials :

  Harmonic form:

--------------------------------------------------------------------------------
Atom    Atom    Atom           Force Constants            Theta     Cutoffs  
  1       2       3     (eVrad**-2/eVrad**-3/eVrad**-4)   (deg)  1-2  1-3  2-3
--------------------------------------------------------------------------------
Si    c O1    s O1    s  1.261        0.0000    0.0000   109.470 0.00 0.00 0.00
                                                                 1.90 1.90 3.50
Si    c O1    s O2    s  1.261        0.0000    0.0000   109.470 0.00 0.00 0.00
                                                                 1.90 1.90 3.50
Si    c O2    s O2    s  1.261        0.0000    0.0000   109.470 0.00 0.00 0.00
                                                                 1.90 1.90 3.50
--------------------------------------------------------------------------------

********************************************************************************
*  Output for configuration   1                                                *
********************************************************************************


  Components of energy : 

--------------------------------------------------------------------------------
  Interatomic potentials     =        2065.85816867 eV
  Three-body potentials      =           0.47537031 eV
  Monopole - monopole (real) =       -6615.67351678 eV
  Monopole - monopole (recip)=       -3171.63043469 eV
  Monopole - monopole (total)=       -9787.30395147 eV
  Neutralising energy        =          -6.46060640 eV
--------------------------------------------------------------------------------
  Total lattice energy       =       -7727.43101890 eV
--------------------------------------------------------------------------------
  Total lattice energy       =         -745578.9687 kJ/(mole unit cells)
--------------------------------------------------------------------------------


  Number of variables =      939

  Maximum number of calculations  =          5000
  Maximum Hessian update interval =            10
  Maximum step size               =   0.100000000
  Maximum parameter tolerance     =   0.000010000
  Maximum function  tolerance     =   0.000010000
  Maximum gradient  tolerance     =   0.001000000
  Maximum gradient  component     =   0.010000000

  Symmetry not applied to optimisation

  Cell parameters to be optimised using strains

  Newton-Raphson optimiser to be used

  BFGS hessian update to be used

  Dumpfile to be written after every cycle

  Start of bulk optimisation :

  Cycle:      0 Energy:     -7727.431019  Gnorm:      0.007039  CPU:    2.048
  ** Hessian calculated **
  Cycle:      1 Energy:     -7727.431128  Gnorm:      0.002027  CPU:    5.258
  Cycle:      2 Energy:     -7727.431147  Gnorm:      0.001232  CPU:    8.089
  Cycle:      3 Energy:     -7727.431163  Gnorm:      0.000828  CPU:   10.922
  Cycle:      4 Energy:     -7727.431181  Gnorm:      0.000701  CPU:   13.757
  Cycle:      5 Energy:     -7727.431204  Gnorm:      0.000809  CPU:   16.589
  Cycle:      6 Energy:     -7727.431239  Gnorm:      0.001096  CPU:   19.419
  Cycle:      7 Energy:     -7727.431289  Gnorm:      0.001545  CPU:   22.251
  Cycle:      8 Energy:     -7727.431540  Gnorm:      0.003894  CPU:   27.783
  Cycle:      9 Energy:     -7727.431837  Gnorm:      0.006400  CPU:   31.963
  Cycle:     10 Energy:     -7727.432204  Gnorm:      0.009486  CPU:   36.143
  ** Hessian calculated **
  Cycle:     11 Energy:     -7727.432401  Gnorm:      0.003231  CPU:   40.688
  Cycle:     12 Energy:     -7727.432436  Gnorm:      0.002099  CPU:   43.516
  Cycle:     13 Energy:     -7727.432462  Gnorm:      0.001374  CPU:   46.345
  Cycle:     14 Energy:     -7727.432488  Gnorm:      0.000939  CPU:   49.173
  Cycle:     15 Energy:     -7727.432521  Gnorm:      0.000910  CPU:   52.002
  Cycle:     16 Energy:     -7727.432565  Gnorm:      0.001251  CPU:   54.837
  Cycle:     17 Energy:     -7727.432708  Gnorm:      0.003457  CPU:   59.698
  Cycle:     18 Energy:     -7727.432826  Gnorm:      0.004833  CPU:   63.206
  Cycle:     19 Energy:     -7727.432905  Gnorm:      0.005395  CPU:   66.040
  Cycle:     20 Energy:     -7727.433089  Gnorm:      0.006534  CPU:   70.904
  ** Hessian calculated **
  Cycle:     21 Energy:     -7727.433218  Gnorm:      0.002788  CPU:   75.457
  Cycle:     22 Energy:     -7727.433275  Gnorm:      0.001893  CPU:   78.290
  Cycle:     23 Energy:     -7727.433393  Gnorm:      0.001392  CPU:   83.153
  Cycle:     24 Energy:     -7727.433469  Gnorm:      0.001720  CPU:   86.661
  Cycle:     25 Energy:     -7727.433529  Gnorm:      0.002023  CPU:   90.172
  Cycle:     26 Energy:     -7727.433593  Gnorm:      0.002064  CPU:   94.355
  Cycle:     27 Energy:     -7727.433634  Gnorm:      0.001802  CPU:   97.185
  Cycle:     28 Energy:     -7727.433721  Gnorm:      0.001553  CPU:  102.042
  Cycle:     29 Energy:     -7727.433830  Gnorm:      0.001752  CPU:  106.221
  Cycle:     30 Energy:     -7727.433984  Gnorm:      0.002666  CPU:  110.401
  ** Hessian calculated **
  Cycle:     31 Energy:     -7727.434310  Gnorm:      0.002661  CPU:  116.294
  Cycle:     32 Energy:     -7727.434862  Gnorm:      0.002651  CPU:  121.150
  Cycle:     33 Energy:     -7727.435720  Gnorm:      0.002637  CPU:  126.009
  Cycle:     34 Energy:     -7727.437013  Gnorm:      0.002615  CPU:  130.865
  Cycle:     35 Energy:     -7727.438621  Gnorm:      0.002588  CPU:  135.044
  Cycle:     36 Energy:     -7727.441320  Gnorm:      0.002542  CPU:  139.896
  Cycle:     37 Energy:     -7727.445433  Gnorm:      0.002470  CPU:  144.746
  Cycle:     38 Energy:     -7727.450464  Gnorm:      0.002380  CPU:  148.923
  Cycle:     39 Energy:     -7727.458622  Gnorm:      0.002225  CPU:  153.774
  Cycle:     40 Energy:     -7727.468370  Gnorm:      0.002028  CPU:  157.951
  ** Hessian calculated **
  Cycle:     41 Energy:     -7727.481518  Gnorm:      0.001727  CPU:  163.838
  Cycle:     42 Energy:     -7727.496203  Gnorm:      0.001376  CPU:  168.015
  Cycle:     43 Energy:     -7727.509168  Gnorm:      0.001124  CPU:  172.192
  Cycle:     44 Energy:     -7727.512842  Gnorm:      0.000826  CPU:  176.369
  Cycle:     45 Energy:     -7727.513763  Gnorm:      0.000491  CPU:  180.547
  Cycle:     46 Energy:     -7727.513996  Gnorm:      0.000270  CPU:  184.724
  Cycle:     47 Energy:     -7727.514054  Gnorm:      0.000142  CPU:  188.902
  Cycle:     48 Energy:     -7727.514064  Gnorm:      0.000100  CPU:  191.730
  Cycle:     49 Energy:     -7727.514069  Gnorm:      0.000070  CPU:  194.558
  Cycle:     50 Energy:     -7727.514071  Gnorm:      0.000049  CPU:  197.386
  ** Hessian calculated **
  Cycle:     51 Energy:     -7727.514071  Gnorm:      0.000026  CPU:  201.926


  **** Optimisation achieved ****


  Final energy =   -7727.51407145 eV
  Final Gnorm  =       0.00001990

  Components of energy : 

--------------------------------------------------------------------------------
  Interatomic potentials     =        2066.07848710 eV
  Three-body potentials      =           0.47530404 eV
  Monopole - monopole (real) =       -6617.15519191 eV
  Monopole - monopole (recip)=       -3170.45445848 eV
  Monopole - monopole (total)=       -9787.60965039 eV
  Neutralising energy        =          -6.45821220 eV
--------------------------------------------------------------------------------
  Total lattice energy       =       -7727.51407145 eV
--------------------------------------------------------------------------------
  Total lattice energy       =         -745586.9820 kJ/(mole unit cells)
--------------------------------------------------------------------------------

  Final fractional coordinates of atoms :

--------------------------------------------------------------------------------
   No.  Atomic        x           y          z          Radius
        Label       (Frac)      (Frac)     (Frac)       (Angs) 
--------------------------------------------------------------------------------
     1  Ge    c     0.699600    0.375700    0.033890    0.000000
     2  Si    c     0.586194    0.306045    0.362890    0.000000
     3  Si    c     0.660102    0.287353    0.695206    0.000000
     4  Ge    c     0.246203    0.591188    0.533746    0.000000
     5  Si    c     0.363463    0.665844    0.865327    0.000000
     6  Si    c     0.289962    0.686532    0.198102    0.000000
     7  Si    c     0.340800    0.681190    0.298508    0.000000
     8  Si    c     0.308863    0.609204    0.965233    0.000000
     9  Si    c     0.275803    0.659298    0.631706    0.000000
    10  Si    c     0.611232    0.291544    0.798078    0.000000
    11  Si    c     0.640334    0.361687    0.462715    0.000000
    12  Si    c     0.659096    0.302289    0.131655    0.000000
    13  Si    c     0.525640    0.410867    0.964927    0.000000
    14  Si    c     0.548108    0.092759    0.300359    0.000000
    15  Si    c     0.858512    0.458547    0.628580    0.000000
    16  Si    c     0.425390    0.560559    0.464982    0.000000
    17  Si    c     0.400476    0.877259    0.802593    0.000000
    18  Si    c     0.082141    0.513926    0.131919    0.000000
    19  Si    c     0.377365    0.507293    0.362447    0.000000
    20  Si    c     0.091858    0.569715    0.028926    0.000000
    21  Si    c     0.446219    0.864643    0.698987    0.000000
    22  Si    c     0.571439    0.465334    0.862445    0.000000
    23  Si    c     0.855398    0.400006    0.525995    0.000000
    24  Si    c     0.496312    0.093394    0.198934    0.000000
    25  Si    c     0.288030    0.391847    0.848580    0.000000
    26  Si    c     0.569149    0.887404    0.183144    0.000000
    27  Si    c     0.068117    0.685637    0.509919    0.000000
    28  Si    c     0.660544    0.579689    0.347656    0.000000
    29  Si    c     0.376234    0.076738    0.682188    0.000000
    30  Si    c     0.881672    0.283820    0.011920    0.000000
    31  Si    c     0.359281    0.281234    0.477179    0.000000
    32  Si    c     0.865771    0.585310    0.144082    0.000000
    33  Si    c     0.688595    0.089991    0.817454    0.000000
    34  Si    c     0.590230    0.689737    0.978184    0.000000
    35  Si    c     0.066571    0.377818    0.643601    0.000000
    36  Si    c     0.264813    0.882663    0.313954    0.000000
    37  Si    c     0.243068    0.333006    0.949034    0.000000
    38  Si    c     0.623747    0.891311    0.283781    0.000000
    39  Si    c     0.064627    0.736320    0.612905    0.000000
    40  Si    c     0.707828    0.638590    0.448019    0.000000
    41  Si    c     0.322276    0.077521    0.784550    0.000000
    42  Si    c     0.878702    0.234462    0.115104    0.000000
    43  Si    c     0.302768    0.231176    0.376457    0.000000
    44  Si    c     0.890862    0.655888    0.042051    0.000000
    45  Ge    c     0.712939    0.075940    0.717322    0.000000
    46  Si    c     0.647041    0.741547    0.877437    0.000000
    47  Si    c     0.052789    0.310766    0.541391    0.000000
    48  Si    c     0.216089    0.891748    0.213362    0.000000
    49  Si    c     0.965957    0.112024    0.964202    0.000000
    50  Si    c     0.840470    0.827171    0.297569    0.000000
    51  Si    c     0.126110    0.013098    0.631569    0.000000
    52  Si    c     0.986452    0.858246    0.462953    0.000000
    53  Si    c     0.106506    0.146611    0.797123    0.000000
    54  Si    c     0.819387    0.958138    0.131757    0.000000
    55  Si    c     0.084006    0.952953    0.363003    0.000000
    56  Si    c     0.836645    0.875003    0.030585    0.000000
    57  Si    c     0.999224    0.132850    0.697112    0.000000
    58  Si    c     0.865934    0.019887    0.864878    0.000000
    59  Si    c     0.112872    0.095289    0.529996    0.000000
    60  Si    c     0.935855    0.832032    0.196307    0.000000
    61  O2    c     0.920754    0.997943    0.999758    0.000000
    62  O2    c     0.963741    0.907269    0.329366    0.000000
    63  O2    c     0.049178    0.056648    0.664761    0.000000
    64  O2    c     0.031372    0.970582    0.499522    0.000000
    65  O2    c     0.983795    0.067348    0.829595    0.000000
    66  O2    c     0.899615    0.916645    0.164220    0.000000
    67  O2    c     0.301425    0.557739    0.330200    0.000000
    68  O2    c     0.381929    0.732603    0.670838    0.000000
    69  O2    c     0.222422    0.645119    0.998691    0.000000
    70  O2    c     0.646884    0.415105    0.829174    0.000000
    71  O2    c     0.546193    0.220910    0.168429    0.000000
    72  O2    c     0.726647    0.324836    0.495290    0.000000
    73  O3    c     0.568854    0.334855    0.996185    0.000000
    74  O2    c     0.733627    0.411355    0.661640    0.000000
    75  O2    c     0.625724    0.218739    0.331755    0.000000
    76  O3    c     0.380452    0.634554    0.497050    0.000000
    77  O2    c     0.205293    0.563647    0.165124    0.000000
    78  O2    c     0.323685    0.753411    0.834835    0.000000
    79  O2    c     0.120449    0.203577    0.969418    0.000000
    80  O2    c     0.749684    0.890462    0.303952    0.000000
    81  O2    c     0.064017    0.859368    0.634898    0.000000
    82  O2    c     0.831624    0.767690    0.468013    0.000000
    83  O2    c     0.198743    0.083877    0.803892    0.000000
    84  O2    c     0.879221    0.111320    0.136678    0.000000
    85  O2    c     0.175995    0.105410    0.356159    0.000000
    86  O2    c     0.910454    0.793848    0.027000    0.000000
    87  O3    c     0.848634    0.065746    0.695115    0.000000
    88  O2    c     0.774207    0.867212    0.857321    0.000000
    89  O2    c     0.036527    0.173852    0.525911    0.000000
    90  O2    c     0.090929    0.893269    0.192552    0.000000
    91  O2    c     0.890913    0.840317    0.246504    0.000000
    92  O2    c     0.115490    0.052897    0.581056    0.000000
    93  O2    c     0.926827    0.050787    0.914639    0.000000
    94  O2    c     0.059712    0.135060    0.746167    0.000000
    95  O2    c     0.835850    0.922265    0.081147    0.000000
    96  O2    c     0.028133    0.920389    0.413586    0.000000
    97  O2    c     0.896990    0.195048    0.974113    0.000000
    98  O2    c     0.758926    0.676577    0.309155    0.000000
    99  O2    c     0.278659    0.077773    0.644488    0.000000
   100  O2    c     0.054532    0.774218    0.471928    0.000000
   101  O2    c     0.189955    0.296680    0.809919    0.000000
   102  O2    c     0.666779    0.887023    0.144302    0.000000
   103  O2    c     0.166733    0.882349    0.352654    0.000000
   104  O2    c     0.686709    0.789155    0.016179    0.000000
   105  O2    c     0.062787    0.282842    0.682528    0.000000
   106  O2    c     0.779107    0.088197    0.858738    0.000000
   107  O2    c     0.262789    0.181795    0.515249    0.000000
   108  O2    c     0.865688    0.682411    0.182261    0.000000
   109  O2    c     0.287201    0.626506    0.247676    0.000000
   110  O3    c     0.341512    0.667677    0.583958    0.000000
   111  O2    c     0.303433    0.664350    0.915370    0.000000
   112  O2    c     0.661738    0.340126    0.746683    0.000000
   113  O3    c     0.599558    0.297931    0.083340    0.000000
   114  O2    c     0.645743    0.306621    0.412629    0.000000
   115  O2    c     0.367132    0.324849    0.965164    0.000000
   116  O2    c     0.635125    0.023237    0.302288    0.000000
   117  O2    c     0.930300    0.613108    0.629559    0.000000
   118  O2    c     0.583971    0.646759    0.465259    0.000000
   119  O2    c     0.314866    0.948621    0.803732    0.000000
   120  O2    c     0.009410    0.359067    0.133348    0.000000
   121  O2    c     0.291948    0.351978    0.357893    0.000000
   122  O2    c     0.024479    0.657696    0.027165    0.000000
   123  O3    c     0.598732    0.926433    0.692979    0.000000
   124  O2    c     0.656595    0.620431    0.857747    0.000000
   125  O2    c     0.922580    0.311659    0.524301    0.000000
   126  O2    c     0.339058    0.023082    0.194827    0.000000
   127  O3    c     0.749220    0.278813    0.002499    0.000000
   128  O2    c     0.660798    0.446637    0.338932    0.000000
   129  O2    c     0.512179    0.208980    0.675807    0.000000
   130  O3    c     0.199846    0.688353    0.501270    0.000000
   131  O2    c     0.289564    0.525938    0.840766    0.000000
   132  O2    c     0.433449    0.755098    0.174736    0.000000
   133  O2    c     0.264081    0.748925    0.320366    0.000000
   134  O2    c     0.454068    0.687967    0.986326    0.000000
   135  O2    c     0.201255    0.511077    0.649592    0.000000
   136  O2    c     0.686607    0.224269    0.820473    0.000000
   137  O2    c     0.495421    0.282825    0.484509    0.000000
   138  O2    c     0.732930    0.450498    0.150778    0.000000
   139  O3    c     0.767403    0.543545    0.019027    0.000000
   140  O2    c     0.428799    0.228687    0.356969    0.000000
   141  O3    c     0.743413    0.217945    0.688663    0.000000
   142  O3    c     0.180235    0.423067    0.519980    0.000000
   143  O2    c     0.520920    0.744701    0.858886    0.000000
   144  O2    c     0.211508    0.764233    0.193451    0.000000
   145  O2    c     0.497482    0.765643    0.303137    0.000000
   146  O2    c     0.237732    0.454481    0.970178    0.000000
   147  O2    c     0.186240    0.727740    0.632066    0.000000
   148  O2    c     0.455404    0.199914    0.800780    0.000000
   149  O2    c     0.712765    0.516544    0.468279    0.000000
   150  O2    c     0.752945    0.238871    0.132667    0.000000
   151  O2    c     0.217126    0.318032    0.894911    0.000000
   152  O2    c     0.642594    0.889778    0.229423    0.000000
   153  O2    c     0.065790    0.750558    0.558627    0.000000
   154  O2    c     0.732096    0.654156    0.393766    0.000000
   155  O2    c     0.309669    0.072872    0.730331    0.000000
   156  O2    c     0.883768    0.221468    0.060849    0.000000
   157  O2    c     0.284615    0.212142    0.430691    0.000000
   158  O2    c     0.874091    0.655889    0.097064    0.000000
   159  O3    c     0.765442    0.083074    0.774136    0.000000
   160  O2    c     0.665117    0.759203    0.931697    0.000000
   161  O2    c     0.058105    0.306105    0.596502    0.000000
   162  O2    c     0.195554    0.889237    0.267621    0.000000
   163  O2    c     0.574811    0.551946    0.986977    0.000000
   164  O2    c     0.405803    0.005636    0.323038    0.000000
   165  O2    c     0.949811    0.408223    0.649153    0.000000
   166  O2    c     0.375257    0.419128    0.486509    0.000000
   167  O2    c     0.542764    0.969310    0.823932    0.000000
   168  O2    c     0.988227    0.564353    0.150882    0.000000
   169  O2    c     0.520329    0.566550    0.339318    0.000000
   170  O2    c     0.003447    0.429690    0.006869    0.000000
   171  O2    c     0.393154    0.953348    0.675900    0.000000
   172  O2    c     0.428000    0.403462    0.839910    0.000000
   173  O2    c     0.945306    0.540437    0.504614    0.000000
   174  O2    c     0.557487    0.013643    0.174879    0.000000
   175  O2    c     0.547210    0.144487    0.249714    0.000000
   176  O2    c     0.811058    0.406808    0.577682    0.000000
   177  O2    c     0.578109    0.417787    0.912898    0.000000
   178  O2    c     0.401072    0.826837    0.751751    0.000000
   179  O2    c     0.132217    0.562579    0.080869    0.000000
   180  O2    c     0.373030    0.554998    0.413306    0.000000
   181  F     c     0.415292    0.883518    0.246744    0.000000
   182  F     c     0.099930    0.539918    0.569499    0.000000
   183  F     c     0.437089    0.544336    0.911536    0.000000
   184  F     c     0.566443    0.081571    0.743287    0.000000
   185  F     c     0.842431    0.428232    0.070915    0.000000
   186  F     c     0.513662    0.427745    0.410766    0.000000
   187  O2    s     0.916268    0.996868    0.999239    0.000000
   188  O2    s     0.963348    0.903341    0.329558    0.000000
   189  O2    s     0.052858    0.059554    0.664306    0.000000
   190  O2    s     0.035570    0.972046    0.498848    0.000000
   191  O2    s     0.984407    0.070959    0.829904    0.000000
   192  O2    s     0.894698    0.911924    0.164154    0.000000
   193  O2    s     0.313159    0.565524    0.330128    0.000000
   194  O2    s     0.377550    0.739055    0.669698    0.000000
   195  O2    s     0.217431    0.633497    0.998474    0.000000
   196  O2    s     0.635553    0.407000    0.829183    0.000000
   197  O2    s     0.552817    0.216144    0.167745    0.000000
   198  O2    s     0.731517    0.336551    0.495229    0.000000
   199  O3    s     0.573240    0.346158    0.995387    0.000000
   200  O2    s     0.739309    0.404086    0.661528    0.000000
   201  O2    s     0.613581    0.214297    0.331597    0.000000
   202  O3    s     0.375996    0.623275    0.496099    0.000000
   203  O2    s     0.200595    0.570631    0.164882    0.000000
   204  O2    s     0.335764    0.757750    0.834484    0.000000
   205  O2    s     0.116248    0.206900    0.966789    0.000000
   206  O2    s     0.746180    0.883794    0.301179    0.000000
   207  O2    s     0.070586    0.862607    0.632277    0.000000
   208  O2    s     0.835751    0.764315    0.465443    0.000000
   209  O2    s     0.202721    0.089587    0.801128    0.000000
   210  O2    s     0.872915    0.108101    0.133945    0.000000
   211  O2    s     0.179182    0.102058    0.358937    0.000000
   212  O2    s     0.900567    0.788348    0.028918    0.000000
   213  O3    s     0.856860    0.074107    0.696792    0.000000
   214  O2    s     0.770749    0.870314    0.860158    0.000000
   215  O2    s     0.046280    0.179413    0.527909    0.000000
   216  O2    s     0.087188    0.886484    0.195097    0.000000
   217  O2    s     0.890401    0.837886    0.246490    0.000000
   218  O2    s     0.116396    0.053081    0.581100    0.000000
   219  O2    s     0.924410    0.054192    0.914630    0.000000
   220  O2    s     0.058699    0.136140    0.746860    0.000000
   221  O2    s     0.834059    0.921061    0.081254    0.000000
   222  O2    s     0.029727    0.917098    0.413431    0.000000
   223  O2    s     0.902950    0.195395    0.977036    0.000000
   224  O2    s     0.757714    0.682908    0.311805    0.000000
   225  O2    s     0.273180    0.070974    0.647118    0.000000
   226  O2    s     0.048512    0.774039    0.474948    0.000000
   227  O2    s     0.191116    0.290453    0.812515    0.000000
   228  O2    s     0.673115    0.894627    0.146908    0.000000
   229  O2    s     0.168076    0.889767    0.349788    0.000000
   230  O2    s     0.692982    0.788198    0.013822    0.000000
   231  O2    s     0.056866    0.278029    0.679818    0.000000
   232  O2    s     0.779108    0.081384    0.855352    0.000000
   233  O2    s     0.256527    0.182681    0.512918    0.000000
   234  O2    s     0.873080    0.688083    0.179768    0.000000
   235  O2    s     0.292906    0.638231    0.247692    0.000000
   236  O3    s     0.328585    0.661919    0.585694    0.000000
   237  O2    s     0.310093    0.658841    0.915347    0.000000
   238  O2    s     0.656411    0.329891    0.746878    0.000000
   239  O3    s     0.612159    0.303371    0.085214    0.000000
   240  O2    s     0.639118    0.312240    0.412674    0.000000
   241  O2    s     0.369157    0.334392    0.963314    0.000000
   242  O2    s     0.624975    0.016516    0.300132    0.000000
   243  O2    s     0.936753    0.609678    0.627709    0.000000
   244  O2    s     0.581887    0.637239    0.463297    0.000000
   245  O2    s     0.324304    0.954973    0.801600    0.000000
   246  O2    s     0.003433    0.362299    0.131301    0.000000
   247  O2    s     0.301784    0.355250    0.360287    0.000000
   248  O2    s     0.018182    0.648292    0.028849    0.000000
   249  O3    s     0.591026    0.930678    0.695346    0.000000
   250  O2    s     0.646865    0.617061    0.860265    0.000000
   251  O2    s     0.928545    0.320789    0.526187    0.000000
   252  O2    s     0.342350    0.016498    0.197208    0.000000
   253  O3    s     0.760301    0.285733    0.005652    0.000000
   254  O2    s     0.653185    0.446144    0.342297    0.000000
   255  O2    s     0.512739    0.202843    0.678481    0.000000
   256  O3    s     0.188443    0.681733    0.504389    0.000000
   257  O2    s     0.296964    0.526322    0.844111    0.000000
   258  O2    s     0.432862    0.761865    0.178043    0.000000
   259  O2    s     0.272011    0.756022    0.317415    0.000000
   260  O2    s     0.453120    0.680005    0.983265    0.000000
   261  O2    s     0.194259    0.511534    0.647134    0.000000
   262  O2    s     0.679051    0.217695    0.817827    0.000000
   263  O2    s     0.496317    0.290798    0.481467    0.000000
   264  O2    s     0.739980    0.450605    0.148196    0.000000
   265  O3    s     0.776712    0.545151    0.022434    0.000000
   266  O2    s     0.431413    0.236974    0.359631    0.000000
   267  O3    s     0.732692    0.214785    0.691344    0.000000
   268  O3    s     0.170516    0.421711    0.523152    0.000000
   269  O2    s     0.518274    0.736234    0.861481    0.000000
   270  O2    s     0.220193    0.769765    0.196024    0.000000
   271  O2    s     0.494680    0.770512    0.300561    0.000000
   272  O2    s     0.245732    0.457707    0.967457    0.000000
   273  O2    s     0.181641    0.721871    0.629916    0.000000
   274  O2    s     0.457366    0.196134    0.798718    0.000000
   275  O2    s     0.704708    0.513452    0.465590    0.000000
   276  O2    s     0.757585    0.244797    0.130618    0.000000
   277  O2    s     0.227240    0.327368    0.895689    0.000000
   278  O2    s     0.632864    0.889685    0.230243    0.000000
   279  O2    s     0.065899    0.742693    0.559686    0.000000
   280  O2    s     0.722089    0.644705    0.394594    0.000000
   281  O2    s     0.318169    0.073774    0.731082    0.000000
   282  O2    s     0.883018    0.229013    0.061825    0.000000
   283  O2    s     0.294322    0.221353    0.429774    0.000000
   284  O2    s     0.874810    0.648162    0.096673    0.000000
   285  O3    s     0.753928    0.083292    0.774550    0.000000
   286  O2    s     0.655371    0.750073    0.930790    0.000000
   287  O2    s     0.058503    0.314346    0.596000    0.000000
   288  O2    s     0.204910    0.888826    0.266670    0.000000
   289  O2    s     0.571284    0.553031    0.983741    0.000000
   290  O2    s     0.405479    0.001278    0.319666    0.000000
   291  O2    s     0.952619    0.410570    0.646313    0.000000
   292  O2    s     0.378827    0.418033    0.483253    0.000000
   293  O2    s     0.542911    0.972321    0.820975    0.000000
   294  O2    s     0.985021    0.561079    0.148108    0.000000
   295  O2    s     0.520550    0.561651    0.342609    0.000000
   296  O2    s     0.000459    0.429998    0.009757    0.000000
   297  O2    s     0.396667    0.958224    0.678841    0.000000
   298  O2    s     0.427962    0.408733    0.843157    0.000000
   299  O2    s     0.948215    0.539980    0.507466    0.000000
   300  O2    s     0.552266    0.008283    0.178242    0.000000
   301  O2    s     0.541865    0.133612    0.249600    0.000000
   302  O2    s     0.820644    0.411588    0.577762    0.000000
   303  O2    s     0.572245    0.422234    0.912627    0.000000
   304  O2    s     0.405639    0.836103    0.751832    0.000000
   305  O2    s     0.122753    0.558172    0.080896    0.000000
   306  O2    s     0.378662    0.550395    0.412970    0.000000
   307  F     s     0.414928    0.882972    0.246515    0.000000
   308  F     s     0.110929    0.543741    0.566861    0.000000
   309  F     s     0.436482    0.545025    0.911276    0.000000
   310  F     s     0.575198    0.081575    0.741755    0.000000
   311  F     s     0.831650    0.424406    0.068170    0.000000
   312  F     s     0.514391    0.427093    0.410537    0.000000
--------------------------------------------------------------------------------

  Final Cartesian lattice vectors (Angstroms) :

       11.885665    0.001047    0.002070
       -6.033378   10.438489    0.010525
        0.180137   -0.092580   29.497460


  Final cell parameters and derivatives :

--------------------------------------------------------------------------------
       a           11.885665 Angstrom     dE/de1(xx)     0.001685 eV/strain
       b           12.056692 Angstrom     dE/de2(yy)     0.001389 eV/strain
       c           29.498156 Angstrom     dE/de3(zz)     0.002388 eV/strain
       alpha       90.280763 Degrees      dE/de4(yz)    -0.000339 eV/strain
       beta        89.640147 Degrees      dE/de5(xz)     0.000172 eV/strain
       gamma      120.022559 Degrees      dE/de6(xy)     0.000235 eV/strain
--------------------------------------------------------------------------------

  Primitive cell volume =          3659.897334 Angs**3

  Density of cell =      1.748162 g/cm**3

  Non-primitive cell volume =          3659.897334 Angs**3


  Final internal derivatives :

--------------------------------------------------------------------------------
   No.  Atomic          a             b             c           Radius
        Label          (eV)          (eV)          (eV)        (eV/Angs)
--------------------------------------------------------------------------------
      1 Ge    c       0.000000      0.000000      0.000000      0.000000
      2 Si    c      -0.000080      0.000248      0.000848      0.000000
      3 Si    c      -0.000136     -0.000383     -0.000719      0.000000
      4 Ge    c      -0.000511     -0.000206      0.000243      0.000000
      5 Si    c       0.000202     -0.000260      0.000472      0.000000
      6 Si    c       0.000067     -0.000259      0.000433      0.000000
      7 Si    c       0.000011     -0.000118     -0.000532      0.000000
      8 Si    c       0.000165     -0.000308     -0.000230      0.000000
      9 Si    c       0.000195     -0.000100     -0.000715      0.000000
     10 Si    c      -0.000269     -0.000748     -0.000805      0.000000
     11 Si    c       0.000045      0.000105      0.000290      0.000000
     12 Si    c       0.000309     -0.000802      0.007909      0.000000
     13 Si    c      -0.001051      0.001058     -0.002751      0.000000
     14 Si    c      -0.000175     -0.000309     -0.000240      0.000000
     15 Si    c      -0.000218     -0.000235     -0.000008      0.000000
     16 Si    c      -0.000062     -0.000315     -0.000201      0.000000
     17 Si    c      -0.000200      0.000169      0.000015      0.000000
     18 Si    c       0.000348     -0.000239      0.001050      0.000000
     19 Si    c       0.000184     -0.000360      0.000319      0.000000
     20 Si    c      -0.000497     -0.000517     -0.001381      0.000000
     21 Si    c       0.000071      0.000274     -0.000658      0.000000
     22 Si    c      -0.000471      0.000667      0.000114      0.000000
     23 Si    c      -0.000310     -0.000023      0.000210      0.000000
     24 Si    c      -0.000357     -0.000422      0.001142      0.000000
     25 Si    c       0.000324     -0.000007     -0.000016      0.000000
     26 Si    c       0.000027     -0.000134      0.000452      0.000000
     27 Si    c      -0.000210      0.000347      0.000083      0.000000
     28 Si    c      -0.000134     -0.000040      0.000596      0.000000
     29 Si    c       0.000110     -0.000299     -0.000592      0.000000
     30 Si    c       0.000492     -0.000258     -0.001462      0.000000
     31 Si    c       0.000100     -0.000144      0.000317      0.000000
     32 Si    c       0.000111     -0.000186      0.001378      0.000000
     33 Si    c      -0.000316      0.000034      0.000390      0.000000
     34 Si    c      -0.000267      0.000009      0.000041      0.000000
     35 Si    c       0.000088     -0.000301      0.000011      0.000000
     36 Si    c      -0.000025     -0.000011     -0.000267      0.000000
     37 Si    c       0.000247      0.000264     -0.000147      0.000000
     38 Si    c       0.000028     -0.000212     -0.000023      0.000000
     39 Si    c      -0.000193     -0.000083     -0.000108      0.000000
     40 Si    c      -0.000346     -0.000384     -0.000122      0.000000
     41 Si    c       0.000219     -0.000171      0.000022      0.000000
     42 Si    c       0.000688     -0.000762      0.001688      0.000000
     43 Si    c      -0.000136     -0.000379      0.000350      0.000000
     44 Si    c       0.000206      0.000244     -0.004088      0.000000
     45 Ge    c      -0.000283     -0.000053     -0.000089      0.000000
     46 Si    c       0.000044      0.000099      0.000037      0.000000
     47 Si    c       0.000210     -0.000171     -0.000024      0.000000
     48 Si    c      -0.000323     -0.000289      0.000133      0.000000
     49 Si    c       0.000273     -0.000105      0.001681      0.000000
     50 Si    c      -0.000410     -0.000266      0.000156      0.000000
     51 Si    c       0.000030     -0.000102     -0.000782      0.000000
     52 Si    c      -0.000298     -0.000192     -0.000448      0.000000
     53 Si    c       0.000389      0.000130      0.000650      0.000000
     54 Si    c      -0.000237      0.000232      0.001377      0.000000
     55 Si    c      -0.000248     -0.000153      0.000247      0.000000
     56 Si    c      -0.000119      0.000951     -0.002128      0.000000
     57 Si    c       0.000231      0.000176     -0.001678      0.000000
     58 Si    c      -0.000031      0.000056     -0.000286      0.000000
     59 Si    c       0.000043     -0.000343      0.000517      0.000000
     60 Si    c      -0.000178      0.000033     -0.000038      0.000000
     61 O2    c      -0.000208     -0.000003      0.000278      0.000000
     62 O2    c       0.000210      0.000373      0.000225      0.000000
     63 O2    c      -0.000239     -0.000085      0.000133      0.000000
     64 O2    c       0.000274      0.000034      0.000126      0.000000
     65 O2    c       0.000187     -0.000491      0.000333      0.000000
     66 O2    c       0.000179     -0.000002      0.000492      0.000000
     67 O2    c       0.000139      0.000380     -0.000032      0.000000
     68 O2    c      -0.000193     -0.000039     -0.000296      0.000000
     69 O2    c       0.000143      0.000471      0.000079      0.000000
     70 O2    c       0.000118      0.000370      0.000696      0.000000
     71 O2    c      -0.000438     -0.000263      0.001514      0.000000
     72 O2    c      -0.000027      0.000136      0.000041      0.000000
     73 O3    c      -0.000028     -0.002417      0.002177      0.000000
     74 O2    c       0.000187      0.000048     -0.000065      0.000000
     75 O2    c       0.000133     -0.000092      0.000033      0.000000
     76 O3    c       0.000507      0.000352      0.000215      0.000000
     77 O2    c       0.000140     -0.000294     -0.000447      0.000000
     78 O2    c      -0.000266      0.000451     -0.000426      0.000000
     79 O2    c       0.000407     -0.000017      0.000263      0.000000
     80 O2    c       0.000213      0.000173     -0.000398      0.000000
     81 O2    c       0.000087      0.000083     -0.000426      0.000000
     82 O2    c       0.000334     -0.000088      0.000416      0.000000
     83 O2    c       0.000095     -0.000010     -0.000377      0.000000
     84 O2    c       0.000068     -0.000141     -0.000184      0.000000
     85 O2    c       0.000064      0.000213      0.000708      0.000000
     86 O2    c       0.001710     -0.001411     -0.001234      0.000000
     87 O3    c      -0.000576     -0.000144     -0.000378      0.000000
     88 O2    c       0.000070     -0.000246      0.000251      0.000000
     89 O2    c       0.000042      0.000227      0.000029      0.000000
     90 O2    c       0.000372      0.000045      0.000315      0.000000
     91 O2    c       0.000084      0.000264     -0.000341      0.000000
     92 O2    c       0.000225     -0.000108     -0.000036      0.000000
     93 O2    c       0.000100     -0.000301     -0.002210      0.000000
     94 O2    c       0.000408     -0.000611      0.002771      0.000000
     95 O2    c      -0.000466      0.000557      0.003552      0.000000
     96 O2    c       0.000170      0.000056     -0.000670      0.000000
     97 O2    c      -0.000547      0.000717     -0.000413      0.000000
     98 O2    c      -0.000122      0.000104      0.000474      0.000000
     99 O2    c       0.000295     -0.000033      0.000264      0.000000
    100 O2    c       0.000003      0.000188      0.000322      0.000000
    101 O2    c       0.000065     -0.000075     -0.000163      0.000000
    102 O2    c      -0.000094      0.000149      0.000197      0.000000
    103 O2    c       0.000435     -0.000031      0.000056      0.000000
    104 O2    c      -0.001783      0.000387     -0.000354      0.000000
    105 O2    c       0.000057      0.000198     -0.000721      0.000000
    106 O2    c      -0.000125      0.000411     -0.000300      0.000000
    107 O2    c       0.000336     -0.000016     -0.000039      0.000000
    108 O2    c       0.000139      0.000335      0.000738      0.000000
    109 O2    c       0.000053      0.000415     -0.000206      0.000000
    110 O3    c       0.000623      0.000046      0.000807      0.000000
    111 O2    c       0.000163     -0.000092     -0.000099      0.000000
    112 O2    c       0.000254      0.000235     -0.000634      0.000000
    113 O3    c      -0.002814     -0.000566     -0.001666      0.000000
    114 O2    c      -0.000103      0.000049     -0.000208      0.000000
    115 O2    c      -0.000892      0.000211     -0.000116      0.000000
    116 O2    c       0.000181      0.000250      0.000112      0.000000
    117 O2    c       0.000098      0.000078     -0.000812      0.000000
    118 O2    c       0.000540     -0.000026      0.000251      0.000000
    119 O2    c       0.000289      0.000106     -0.000457      0.000000
    120 O2    c       0.000562      0.000335      0.000147      0.000000
    121 O2    c       0.000373      0.000160      0.000901      0.000000
    122 O2    c       0.000180      0.000627     -0.000570      0.000000
    123 O3    c      -0.000318      0.000318      0.000385      0.000000
    124 O2    c      -0.000224     -0.000242      0.000658      0.000000
    125 O2    c       0.000300     -0.000004      0.000223      0.000000
    126 O2    c       0.000259     -0.000122      0.000267      0.000000
    127 O3    c       0.000174     -0.000058     -0.000789      0.000000
    128 O2    c      -0.000118      0.000219      0.000328      0.000000
    129 O2    c       0.000211     -0.000053      0.000300      0.000000
    130 O3    c       0.000410     -0.000055     -0.000783      0.000000
    131 O2    c       0.000092     -0.000023      0.000208      0.000000
    132 O2    c       0.000099      0.000172      0.000400      0.000000
    133 O2    c       0.000213      0.000353     -0.000485      0.000000
    134 O2    c       0.000241     -0.000190     -0.000369      0.000000
    135 O2    c       0.000055     -0.000108      0.000156      0.000000
    136 O2    c       0.000124      0.000188     -0.000223      0.000000
    137 O2    c       0.000101      0.000113     -0.000232      0.000000
    138 O2    c       0.000028      0.000438     -0.000078      0.000000
    139 O3    c      -0.000988     -0.001346     -0.001108      0.000000
    140 O2    c       0.000290      0.000280      0.000678      0.000000
    141 O3    c      -0.000053      0.000369      0.000120      0.000000
    142 O3    c       0.000432     -0.000464     -0.000254      0.000000
    143 O2    c       0.000188     -0.000289      0.000620      0.000000
    144 O2    c       0.000240      0.000402      0.000767      0.000000
    145 O2    c       0.000127      0.000109     -0.000052      0.000000
    146 O2    c       0.000065     -0.000087      0.000216      0.000000
    147 O2    c       0.000210     -0.000007      0.000213      0.000000
    148 O2    c       0.000228     -0.000112     -0.000200      0.000000
    149 O2    c       0.000081      0.000176      0.000361      0.000000
    150 O2    c       0.000186     -0.000026      0.000473      0.000000
    151 O2    c      -0.000161     -0.000243      0.000105      0.000000
    152 O2    c       0.000165      0.000081     -0.000083      0.000000
    153 O2    c      -0.000008      0.000221      0.000291      0.000000
    154 O2    c       0.000160      0.000263     -0.000442      0.000000
    155 O2    c       0.000259      0.000004      0.000165      0.000000
    156 O2    c       0.000432     -0.000414     -0.001844      0.000000
    157 O2    c       0.000373      0.000273     -0.000742      0.000000
    158 O2    c       0.000012      0.000756      0.002803      0.000000
    159 O3    c       0.000022      0.000236     -0.000073      0.000000
    160 O2    c      -0.000156     -0.000119     -0.000472      0.000000
    161 O2    c       0.000039     -0.000028     -0.000303      0.000000
    162 O2    c       0.000523     -0.000016     -0.000701      0.000000
    163 O2    c      -0.000305      0.000164     -0.000366      0.000000
    164 O2    c       0.000307     -0.000025     -0.000034      0.000000
    165 O2    c       0.000173     -0.000041     -0.000297      0.000000
    166 O2    c       0.000303      0.000384     -0.000397      0.000000
    167 O2    c       0.000022      0.000193     -0.000409      0.000000
    168 O2    c       0.000549     -0.000071      0.000360      0.000000
    169 O2    c       0.000697      0.000001      0.000449      0.000000
    170 O2    c       0.000296     -0.000050     -0.000129      0.000000
    171 O2    c       0.000079      0.000028      0.000640      0.000000
    172 O2    c      -0.000187     -0.000035      0.000443      0.000000
    173 O2    c      -0.000118     -0.000110      0.000725      0.000000
    174 O2    c       0.000244      0.000009      0.000046      0.000000
    175 O2    c       0.000277      0.000152     -0.000106      0.000000
    176 O2    c       0.000132      0.000223      0.000072      0.000000
    177 O2    c      -0.000452      0.000125     -0.001912      0.000000
    178 O2    c      -0.000062      0.000244     -0.000278      0.000000
    179 O2    c       0.000828      0.000122      0.000297      0.000000
    180 O2    c       0.000614      0.000162     -0.000096      0.000000
    181 F     c      -0.000096     -0.000056     -0.000013      0.000000
    182 F     c      -0.000472      0.000178      0.000388      0.000000
    183 F     c       0.000101     -0.000046      0.000057      0.000000
    184 F     c      -0.000007     -0.000059     -0.000022      0.000000
    185 F     c       0.000153      0.000288     -0.000418      0.000000
    186 F     c      -0.000069     -0.000003     -0.000031      0.000000
    187 O2    s       0.000324     -0.000242      0.000060      0.000000
    188 O2    s       0.000849      0.000098      0.000833      0.000000
    189 O2    s       0.000165     -0.000165     -0.000894      0.000000
    190 O2    s       0.000128      0.000347      0.000404      0.000000
    191 O2    s      -0.000188     -0.000224      0.000287      0.000000
    192 O2    s       0.000219     -0.000003      0.000291      0.000000
    193 O2    s       0.000235      0.000240     -0.000474      0.000000
    194 O2    s       0.000010      0.000147     -0.000052      0.000000
    195 O2    s       0.000253      0.000284     -0.001104      0.000000
    196 O2    s      -0.000146      0.000385      0.000813      0.000000
    197 O2    s       0.000084      0.000349      0.001540      0.000000
    198 O2    s       0.000094     -0.000010     -0.000496      0.000000
    199 O3    s       0.000258      0.001320      0.000838      0.000000
    200 O2    s       0.000443      0.000012     -0.000263      0.000000
    201 O2    s      -0.000075      0.000344      0.000170      0.000000
    202 O3    s       0.000472     -0.000041     -0.000792      0.000000
    203 O2    s       0.000463      0.000172      0.000570      0.000000
    204 O2    s       0.000046      0.000156     -0.000609      0.000000
    205 O2    s       0.000248     -0.000395      0.000639      0.000000
    206 O2    s      -0.000128      0.000153     -0.000435      0.000000
    207 O2    s       0.000129      0.000091      0.000039      0.000000
    208 O2    s       0.000894      0.000515     -0.000053      0.000000
    209 O2    s       0.000263     -0.000055     -0.000107      0.000000
    210 O2    s       0.000206      0.000045      0.000813      0.000000
    211 O2    s       0.000626      0.000448      0.000379      0.000000
    212 O2    s       0.001313     -0.000126     -0.003332      0.000000
    213 O3    s      -0.000578     -0.000346     -0.000663      0.000000
    214 O2    s      -0.000086     -0.000082     -0.000192      0.000000
    215 O2    s       0.000088      0.000088      0.000267      0.000000
    216 O2    s       0.000562      0.000114      0.000361      0.000000
    217 O2    s       0.000387     -0.000062     -0.000052      0.000000
    218 O2    s      -0.000081      0.000235      0.000222      0.000000
    219 O2    s      -0.000072     -0.000396     -0.000558      0.000000
    220 O2    s       0.000144     -0.000038      0.001290      0.000000
    221 O2    s       0.000143      0.000459      0.002798      0.000000
    222 O2    s       0.000343     -0.000074     -0.000501      0.000000
    223 O2    s      -0.000521      0.000701     -0.000186      0.000000
    224 O2    s       0.000557      0.000410     -0.000155      0.000000
    225 O2    s       0.000326      0.000133      0.000615      0.000000
    226 O2    s       0.000122     -0.000098     -0.000592      0.000000
    227 O2    s      -0.000439     -0.000202     -0.000914      0.000000
    228 O2    s       0.000065     -0.000082      0.000632      0.000000
    229 O2    s       0.000035      0.000110     -0.000512      0.000000
    230 O2    s      -0.001080     -0.000109     -0.001658      0.000000
    231 O2    s       0.000051      0.000126     -0.000767      0.000000
    232 O2    s      -0.000119      0.000182     -0.000795      0.000000
    233 O2    s       0.000387      0.000318     -0.000125      0.000000
    234 O2    s       0.000193      0.000670      0.001406      0.000000
    235 O2    s      -0.000012      0.000524      0.000094      0.000000
    236 O3    s       0.000597     -0.000049      0.001136      0.000000
    237 O2    s      -0.000037      0.000125     -0.000398      0.000000
    238 O2    s      -0.000017      0.000114     -0.000509      0.000000
    239 O3    s       0.002139      0.001056     -0.002083      0.000000
    240 O2    s       0.000152     -0.000093      0.000036      0.000000
    241 O2    s      -0.000361     -0.000302      0.000173      0.000000
    242 O2    s       0.000194      0.000027      0.000223      0.000000
    243 O2    s       0.000806     -0.000056     -0.000859      0.000000
    244 O2    s       0.000645      0.000253     -0.000078      0.000000
    245 O2    s       0.000032      0.000180     -0.000242      0.000000
    246 O2    s       0.000132      0.000586      0.000407      0.000000
    247 O2    s       0.000442      0.000492      0.000436      0.000000
    248 O2    s       0.000449      0.000067     -0.001027      0.000000
    249 O3    s       0.000165     -0.000059      0.000111      0.000000
    250 O2    s       0.000070     -0.000488     -0.000011      0.000000
    251 O2    s       0.000045      0.000169      0.000407      0.000000
    252 O2    s       0.000746      0.000506      0.000139      0.000000
    253 O3    s       0.000621      0.000268      0.000421      0.000000
    254 O2    s       0.000194      0.000294      0.000210      0.000000
    255 O2    s       0.000117      0.000375     -0.000062      0.000000
    256 O3    s       0.000364     -0.000224     -0.000237      0.000000
    257 O2    s      -0.000275      0.000110     -0.000518      0.000000
    258 O2    s       0.000263      0.000268      0.000425      0.000000
    259 O2    s       0.000081      0.000186     -0.000831      0.000000
    260 O2    s       0.000016      0.000054      0.000370      0.000000
    261 O2    s      -0.000047      0.000071      0.000000      0.000000
    262 O2    s       0.000076     -0.000080     -0.000018      0.000000
    263 O2    s       0.000292     -0.000010      0.000040      0.000000
    264 O2    s       0.000618      0.000439      0.000246      0.000000
    265 O3    s       0.000193     -0.000352      0.000410      0.000000
    266 O2    s       0.000330      0.000018      0.000165      0.000000
    267 O3    s       0.000027      0.000326     -0.000592      0.000000
    268 O3    s       0.000022     -0.000023      0.000461      0.000000
    269 O2    s      -0.000089      0.000121     -0.000240      0.000000
    270 O2    s       0.000193      0.000402      0.001078      0.000000
    271 O2    s       0.000325      0.000210     -0.000364      0.000000
    272 O2    s      -0.000047      0.000146     -0.000183      0.000000
    273 O2    s       0.000051     -0.000172     -0.000067      0.000000
    274 O2    s       0.000155     -0.000025     -0.000039      0.000000
    275 O2    s       0.000182      0.000045     -0.000186      0.000000
    276 O2    s      -0.000295      0.000093      0.000878      0.000000
    277 O2    s      -0.000097     -0.000029      0.000033      0.000000
    278 O2    s       0.000119     -0.000102     -0.000183      0.000000
    279 O2    s       0.000320     -0.000244      0.000195      0.000000
    280 O2    s       0.000153      0.000016     -0.000266      0.000000
    281 O2    s       0.000097      0.000116      0.000170      0.000000
    282 O2    s      -0.000535      0.000692     -0.000819      0.000000
    283 O2    s       0.000238      0.000143     -0.000281      0.000000
    284 O2    s       0.000397     -0.000119      0.001970      0.000000
    285 O3    s       0.000212     -0.000320     -0.000158      0.000000
    286 O2    s       0.000150     -0.000227     -0.000265      0.000000
    287 O2    s      -0.000151      0.000128     -0.000084      0.000000
    288 O2    s       0.000505     -0.000077      0.000261      0.000000
    289 O2    s       0.000338     -0.000667      0.000055      0.000000
    290 O2    s       0.000146      0.000414     -0.000484      0.000000
    291 O2    s       0.000053      0.000071     -0.000755      0.000000
    292 O2    s       0.000119      0.000367     -0.000620      0.000000
    293 O2    s       0.000548     -0.000059     -0.000006      0.000000
    294 O2    s       0.000431     -0.000192     -0.000374      0.000000
    295 O2    s       0.000586      0.000008      0.000193      0.000000
    296 O2    s       0.000046      0.000537      0.000480      0.000000
    297 O2    s      -0.000008      0.000077      0.000271      0.000000
    298 O2    s      -0.000021     -0.000257     -0.000550      0.000000
    299 O2    s       0.000347     -0.000391      0.000834      0.000000
    300 O2    s       0.000174      0.000034     -0.000315      0.000000
    301 O2    s      -0.000168      0.000315      0.000156      0.000000
    302 O2    s       0.000526     -0.000380      0.000255      0.000000
    303 O2    s       0.000390     -0.000139     -0.000625      0.000000
    304 O2    s       0.000290     -0.000017      0.000393      0.000000
    305 O2    s      -0.000227      0.000148      0.001208      0.000000
    306 O2    s       0.000255      0.000070      0.000198      0.000000
    307 F     s      -0.000108      0.000049     -0.000103      0.000000
    308 F     s      -0.000489      0.000202      0.000170      0.000000
    309 F     s       0.000025      0.000128      0.000087      0.000000
    310 F     s       0.000125     -0.000058      0.000032      0.000000
    311 F     s      -0.000636     -0.000092     -0.000588      0.000000
    312 F     s      -0.000057     -0.000036     -0.000150      0.000000
--------------------------------------------------------------------------------
  Maximum abs         0.002814      0.002417      0.007909      0.000000
--------------------------------------------------------------------------------


  Time to end of optimisation =     204.7565 seconds


  Peak dynamic memory used =      19.13 MB 


  Timing analysis for GULP :

--------------------------------------------------------------------------------
  Task / Subroutine                                          Time (Seconds)
--------------------------------------------------------------------------------
  Calculation of reciprocal space energy and derivatives          4.9655
  Calculation of real space energy and derivatives              179.0510
  Calculation of three-body energy and derivatives               18.2096
  Calculation of matrix inversion                                 2.2333
  Global summation overhead                                       0.0005
--------------------------------------------------------------------------------
  Total CPU time                                                204.7565
--------------------------------------------------------------------------------


  Dump file written as out.res                                                 
  CIF file written as out.cif                                                 


  Job Finished at 16:06.16 25th October    2016                               

