********************************************************************************
*                       GENERAL UTILITY LATTICE PROGRAM                        *
*                                 Julian Gale                                  *
*                      Nanochemistry Research Institute                        *
*                           Department of Chemistry                            *
*                    Curtin University, Western Australia                      *
********************************************************************************
* Version = 4.2.0 * Last modified =  20th January 2014                         *
********************************************************************************
*  optimise     - perform optimisation run                                     *
*  conp         - constant pressure calculation                                *
*  qok          - running with non charge neutral cell is OK                   *
********************************************************************************

  Job Started  at 12:27.50 26th October    2016                               

  Number of CPUs =     1


  Total number of configurations input =   1

********************************************************************************
*  Input for Configuration =   1                                               *
********************************************************************************

  Formula = Ge3Si57O120F6                                               

  Number of irreducible atoms/shells =     312


  Total number atoms/shells =     312

  Dimensionality = 3               :  Bulk   


  Charge on solid   =  -6.000000 =>neutralising background added


  Cartesian lattice vectors (Angstroms) :

       11.933770    0.000000    0.000000
       -5.984159   10.408071    0.000000
       -0.336665   -0.086335   29.488635

  Cell parameters (Angstroms/Degrees):

  a =      11.9338    alpha =  89.8194
  b =      12.0058    beta  =  90.6541
  c =      29.4907    gamma = 119.8969

  Initial cell volume =        3662.710436 Angs**3

  Temperature of configuration =  0.000     K 

  Pressure of configuration =         0.000 GPa 

  Fractional coordinates of asymmetric unit :

--------------------------------------------------------------------------------
   No.  Atomic       x           y          z         Charge      Occupancy
        Label      (Frac)      (Frac)     (Frac)        (e)         (Frac)  
--------------------------------------------------------------------------------
      1 Ge    c    0.699600    0.375700    0.033890     4.00000    1.000000    
      2 Si    c    0.619556 *  0.323075 *  0.364615 *   4.00000    1.000000    
      3 Si    c    0.677166 *  0.294324 *  0.697762 *   4.00000    1.000000    
      4 Si    c    0.299065 *  0.623819 *  0.530618 *   4.00000    1.000000    
      5 Ge    c    0.388213 *  0.667731 *  0.866127 *   4.00000    1.000000    
      6 Si    c    0.319427 *  0.702595 *  0.197417 *   4.00000    1.000000    
      7 Si    c    0.376610 *  0.698815 *  0.297934 *   4.00000    1.000000    
      8 Si    c    0.316012 *  0.629027 *  0.963731 *   4.00000    1.000000    
      9 Si    c    0.300089 *  0.672622 *  0.631763 *   4.00000    1.000000    
     10 Si    c    0.622430 *  0.292882 *  0.797882 *   4.00000    1.000000    
     11 Si    c    0.678279 *  0.381575 *  0.464655 *   4.00000    1.000000    
     12 Si    c    0.683519 *  0.316963 *  0.132611 *   4.00000    1.000000    
     13 Si    c    0.530662 *  0.419601 *  0.964608 *   4.00000    1.000000    
     14 Si    c    0.582290 *  0.110614 *  0.301125 *   4.00000    1.000000    
     15 Si    c    0.887047 *  0.466886 *  0.633161 *   4.00000    1.000000    
     16 Si    c    0.468076 *  0.584995 *  0.464604 *   4.00000    1.000000    
     17 Si    c    0.417946 *  0.878208 *  0.798989 *   4.00000    1.000000    
     18 Si    c    0.104678 *  0.529345 *  0.132098 *   4.00000    1.000000    
     19 Si    c    0.414885 *  0.526730 *  0.363107 *   4.00000    1.000000    
     20 Si    c    0.102247 *  0.580771 *  0.028975 *   4.00000    1.000000    
     21 Si    c    0.471179 *  0.883631 *  0.696629 *   4.00000    1.000000    
     22 Si    c    0.585760 *  0.469655 *  0.861595 *   4.00000    1.000000    
     23 Si    c    0.887111 *  0.422013 *  0.531313 *   4.00000    1.000000    
     24 Si    c    0.525837 *  0.109780 *  0.199877 *   4.00000    1.000000    
     25 Si    c    0.297902 *  0.396374 *  0.843980 *   4.00000    1.000000    
     26 Si    c    0.597920 *  0.903470 *  0.183317 *   4.00000    1.000000    
     27 Si    c    0.096155 *  0.700969 *  0.517751 *   4.00000    1.000000    
     28 Si    c    0.695647 *  0.599705 *  0.348201 *   4.00000    1.000000    
     29 Si    c    0.400186 *  0.092908 *  0.682019 *   4.00000    1.000000    
     30 Si    c    0.891434 *  0.295146 *  0.012438 *   4.00000    1.000000    
     31 Si    c    0.400781 *  0.306289 *  0.480168 *   4.00000    1.000000    
     32 Si    c    0.889522 *  0.600421 *  0.144003 *   4.00000    1.000000    
     33 Si    c    0.700149 *  0.092174 *  0.812211 *   4.00000    1.000000    
     34 Si    c    0.600389 *  0.705034 *  0.976417 *   4.00000    1.000000    
     35 Si    c    0.098646 *  0.394755 *  0.645821 *   4.00000    1.000000    
     36 Si    c    0.300990 *  0.900623 *  0.313315 *   4.00000    1.000000    
     37 Si    c    0.248887 *  0.345898 *  0.946552 *   4.00000    1.000000    
     38 Si    c    0.658022 *  0.909130 *  0.283997 *   4.00000    1.000000    
     39 Si    c    0.089680 *  0.744984 *  0.618851 *   4.00000    1.000000    
     40 Si    c    0.746216 *  0.659594 *  0.448737 *   4.00000    1.000000    
     41 Si    c    0.342763 *  0.082032 *  0.782209 *   4.00000    1.000000    
     42 Si    c    0.900633 *  0.249113 *  0.115447 *   4.00000    1.000000    
     43 Si    c    0.337541 *  0.249406 *  0.379840 *   4.00000    1.000000    
     44 Si    c    0.896626 *  0.659721 *  0.041503 *   4.00000    1.000000    
     45 Si    c    0.749870 *  0.086659 *  0.711667 *   4.00000    1.000000    
     46 Si    c    0.670037 *  0.754377 *  0.874411 *   4.00000    1.000000    
     47 Si    c    0.089297 *  0.345191 *  0.544673 *   4.00000    1.000000    
     48 Si    c    0.246555 *  0.909497 *  0.212901 *   4.00000    1.000000    
     49 Si    c    0.974545 *  0.124501 *  0.963711 *   4.00000    1.000000    
     50 Si    c    0.876310 *  0.846454 *  0.297601 *   4.00000    1.000000    
     51 Si    c    0.149166 *  0.021815 *  0.632227 *   4.00000    1.000000    
     52 Si    c    0.025854 *  0.876283 *  0.463790 *   4.00000    1.000000    
     53 Si    c    0.124658 *  0.142404 *  0.795956 *   4.00000    1.000000    
     54 Si    c    0.843638 *  0.972038 *  0.131142 *   4.00000    1.000000    
     55 Si    c    0.121016 *  0.967969 *  0.363231 *   4.00000    1.000000    
     56 Si    c    0.848606 *  0.884941 *  0.029450 *   4.00000    1.000000    
     57 Si    c    0.028392 *  0.145720 *  0.695844 *   4.00000    1.000000    
     58 Si    c    0.887097 *  0.028679 *  0.862664 *   4.00000    1.000000    
     59 Ge    c    0.149766 *  0.123091 *  0.529920 *   4.00000    1.000000    
     60 Si    c    0.966021 *  0.849633 *  0.196090 *   4.00000    1.000000    
     61 O2    c    0.932900 *  0.007978 *  0.998538 *   0.87073    1.000000    
     62 O2    c    0.001946 *  0.927942 *  0.328697 *   0.87073    1.000000    
     63 O2    c    0.069326 *  0.066948 *  0.663007 *   0.87073    1.000000    
     64 O3    c    0.063124 *  0.001480 *  0.491932 *   1.33043    1.000000    
     65 O2    c    0.008797 *  0.073044 *  0.830830 *   0.87073    1.000000    
     66 O2    c    0.927915 *  0.933032 *  0.163372 *   0.87073    1.000000    
     67 O2    c    0.337884 *  0.575210 *  0.329885 *   0.87073    1.000000    
     68 O2    c    0.423970 *  0.758069 *  0.664319 *   0.87073    1.000000    
     69 O2    c    0.232895 *  0.658394 *  0.000309 *   0.87073    1.000000    
     70 O2    c    0.659756 *  0.415582 *  0.830820 *   0.87073    1.000000    
     71 O2    c    0.574380 *  0.238426 *  0.170022 *   0.87073    1.000000    
     72 O2    c    0.762453 *  0.344357 *  0.498146 *   0.87073    1.000000    
     73 O3    c    0.567951 *  0.339773 *  0.997589 *   1.33043    1.000000    
     74 O2    c    0.762776 *  0.418081 *  0.665611 *   0.87073    1.000000    
     75 O2    c    0.658052 *  0.236364 *  0.333186 *   0.87073    1.000000    
     76 O2    c    0.420154 *  0.662033 *  0.496913 *   0.87073    1.000000    
     77 O2    c    0.230944 *  0.579783 *  0.164469 *   0.87073    1.000000    
     78 O3    c    0.343728 *  0.758659 *  0.830441 *   1.33043    1.000000    
     79 O2    c    0.128218 *  0.219769 *  0.968643 *   0.87073    1.000000    
     80 O2    c    0.785314 *  0.909385 *  0.303918 *   0.87073    1.000000    
     81 O2    c    0.089522 *  0.869159 *  0.640255 *   0.87073    1.000000    
     82 O2    c    0.871889 *  0.784590 *  0.469030 *   0.87073    1.000000    
     83 O2    c    0.213718 *  0.077543 *  0.801783 *   0.87073    1.000000    
     84 O2    c    0.903762 *  0.125666 *  0.136292 *   0.87073    1.000000    
     85 O2    c    0.211137 *  0.122266 *  0.359905 *   0.87073    1.000000    
     86 O2    c    0.915664 *  0.797964 *  0.025516 *   0.87073    1.000000    
     87 O2    c    0.874349 *  0.085557 *  0.690531 *   0.87073    1.000000    
     88 O2    c    0.806884 *  0.874429 *  0.858352 *   0.87073    1.000000    
     89 O3    c    0.084184 *  0.220865 *  0.522966 *   1.33043    1.000000    
     90 O2    c    0.120410 *  0.910600 *  0.192318 *   0.87073    1.000000    
     91 O2    c    0.923919 *  0.858805 *  0.246414 *   0.87073    1.000000    
     92 O3    c    0.127286 *  0.051188 *  0.581422 *   1.33043    1.000000    
     93 O2    c    0.937506 *  0.068558 *  0.913693 *   0.87073    1.000000    
     94 O2    c    0.065515 *  0.126228 *  0.746137 *   0.87073    1.000000    
     95 O2    c    0.853407 *  0.933468 *  0.080349 *   0.87073    1.000000    
     96 O2    c    0.064156 *  0.920094 *  0.412308 *   0.87073    1.000000    
     97 O2    c    0.902936 *  0.204160 *  0.974785 *   0.87073    1.000000    
     98 O2    c    0.794470 *  0.695510 *  0.309911 *   0.87073    1.000000    
     99 O2    c    0.302397 *  0.094736 *  0.643322 *   0.87073    1.000000    
    100 O2    c    0.099460 *  0.800468 *  0.479644 *   0.87073    1.000000    
    101 O2    c    0.209457 *  0.293524 *  0.805739 *   0.87073    1.000000    
    102 O2    c    0.693026 *  0.901370 *  0.144693 *   0.87073    1.000000    
    103 O2    c    0.204597 *  0.899919 *  0.351588 *   0.87073    1.000000    
    104 O2    c    0.697908 *  0.802096 *  0.015123 *   0.87073    1.000000    
    105 O2    c    0.100077 *  0.297210 *  0.683869 *   0.87073    1.000000    
    106 O2    c    0.799578 *  0.092559 *  0.850569 *   0.87073    1.000000    
    107 O3    c    0.312834 *  0.212500 *  0.519637 *   1.33043    1.000000    
    108 O2    c    0.894440 *  0.699414 *  0.182284 *   0.87073    1.000000    
    109 O2    c    0.320330 *  0.643554 *  0.247123 *   0.87073    1.000000    
    110 O2    c    0.357339 *  0.676873 *  0.581242 *   0.87073    1.000000    
    111 O3    c    0.309803 *  0.685643 *  0.915950 *   1.33043    1.000000    
    112 O2    c    0.678243 *  0.352699 *  0.747881 *   0.87073    1.000000    
    113 O3    c    0.612972 *  0.303762 *  0.084975 *   1.33043    1.000000    
    114 O2    c    0.679964 *  0.325339 *  0.414559 *   0.87073    1.000000    
    115 O2    c    0.373828 *  0.339515 *  0.963223 *   0.87073    1.000000    
    116 O2    c    0.669383 *  0.040980 *  0.303137 *   0.87073    1.000000    
    117 O2    c    0.957433 *  0.622602 *  0.636506 *   0.87073    1.000000    
    118 O2    c    0.624700 *  0.671611 *  0.466622 *   0.87073    1.000000    
    119 O2    c    0.332781 *  0.950758 *  0.799858 *   0.87073    1.000000    
    120 O2    c    0.032723 *  0.373847 *  0.133134 *   0.87073    1.000000    
    121 O2    c    0.327229 *  0.370824 *  0.360263 *   0.87073    1.000000    
    122 O2    c    0.029325 *  0.663423 *  0.025760 *   0.87073    1.000000    
    123 O2    c    0.627671 *  0.954834 *  0.693048 *   0.87073    1.000000    
    124 O2    c    0.672539 *  0.625025 *  0.859229 *   0.87073    1.000000    
    125 O2    c    0.955770 *  0.335579 *  0.527281 *   0.87073    1.000000    
    126 O2    c    0.369329 *  0.041102 *  0.195142 *   0.87073    1.000000    
    127 O3    c    0.756832 *  0.286663 *  0.002515 *   1.33043    1.000000    
    128 O2    c    0.693016 *  0.464411 *  0.341040 *   0.87073    1.000000    
    129 O2    c    0.534212 *  0.226503 *  0.674064 *   0.87073    1.000000    
    130 O2    c    0.229596 *  0.699627 *  0.509473 *   0.87073    1.000000    
    131 O3    c    0.294234 *  0.523286 *  0.833721 *   1.33043    1.000000    
    132 O2    c    0.461971 *  0.771102 *  0.174716 *   0.87073    1.000000    
    133 O2    c    0.301154 *  0.766761 *  0.319788 *   0.87073    1.000000    
    134 O2    c    0.465385 *  0.703800 *  0.983359 *   0.87073    1.000000    
    135 O2    c    0.232773 *  0.528929 *  0.653288 *   0.87073    1.000000    
    136 O2    c    0.700233 *  0.226327 *  0.819997 *   0.87073    1.000000    
    137 O2    c    0.535491 *  0.306623 *  0.486284 *   0.87073    1.000000    
    138 O2    c    0.756970 *  0.465991 *  0.150961 *   0.87073    1.000000    
    139 O3    c    0.769378 *  0.547018 *  0.020292 *   1.33043    1.000000    
    140 O2    c    0.462649 *  0.246883 *  0.360617 *   0.87073    1.000000    
    141 O2    c    0.753414 *  0.214536 *  0.692586 *   0.87073    1.000000    
    142 O2    c    0.216969 *  0.468860 *  0.525219 *   0.87073    1.000000    
    143 O3    c    0.556779 *  0.766675 *  0.851742 *   1.33043    1.000000    
    144 O2    c    0.242723 *  0.782228 *  0.192981 *   0.87073    1.000000    
    145 O2    c    0.532862 *  0.782726 *  0.302888 *   0.87073    1.000000    
    146 O2    c    0.250688 *  0.472536 *  0.965540 *   0.87073    1.000000    
    147 O2    c    0.216743 *  0.744765 *  0.637584 *   0.87073    1.000000    
    148 O2    c    0.466239 *  0.210023 *  0.802655 *   0.87073    1.000000    
    149 O2    c    0.749562 *  0.536562 *  0.468821 *   0.87073    1.000000    
    150 O2    c    0.777461 *  0.253952 *  0.134357 *   0.87073    1.000000    
    151 O2    c    0.230213 *  0.331304 *  0.892276 *   0.87073    1.000000    
    152 O2    c    0.673654 *  0.907034 *  0.229641 *   0.87073    1.000000    
    153 O2    c    0.092868 *  0.769030 *  0.564612 *   0.87073    1.000000    
    154 O2    c    0.765816 *  0.675373 *  0.394449 *   0.87073    1.000000    
    155 O2    c    0.325235 *  0.088581 *  0.727931 *   0.87073    1.000000    
    156 O2    c    0.897752 *  0.233338 *  0.061223 *   0.87073    1.000000    
    157 O2    c    0.320302 *  0.233225 *  0.434268 *   0.87073    1.000000    
    158 O2    c    0.893381 *  0.668729 *  0.096772 *   0.87073    1.000000    
    159 O2    c    0.770391 *  0.088126 *  0.765991 *   0.87073    1.000000    
    160 O2    c    0.672222 *  0.769102 *  0.929638 *   0.87073    1.000000    
    161 O2    c    0.095337 *  0.323059 *  0.598847 *   0.87073    1.000000    
    162 O2    c    0.229430 *  0.907042 *  0.267138 *   0.87073    1.000000    
    163 O2    c    0.577842 *  0.562883 *  0.983679 *   0.87073    1.000000    
    164 O2    c    0.441010 *  0.024038 *  0.323185 *   0.87073    1.000000    
    165 O2    c    0.972914 *  0.408589 *  0.654434 *   0.87073    1.000000    
    166 O2    c    0.413950 *  0.445349 *  0.487881 *   0.87073    1.000000    
    167 O2    c    0.561129 *  0.969590 *  0.821100 *   0.87073    1.000000    
    168 O2    c    0.011491 *  0.578929 *  0.151541 *   0.87073    1.000000    
    169 O2    c    0.555309 *  0.585257 *  0.339299 *   0.87073    1.000000    
    170 O2    c    0.015232 *  0.439236 *  0.007233 *   0.87073    1.000000    
    171 O2    c    0.412757 *  0.966978 *  0.673220 *   0.87073    1.000000    
    172 O2    c    0.443143 *  0.417361 *  0.840393 *   0.87073    1.000000    
    173 O2    c    0.968695 *  0.563546 *  0.508643 *   0.87073    1.000000    
    174 O2    c    0.585910 *  0.030296 *  0.175232 *   0.87073    1.000000    
    175 O2    c    0.580087 *  0.162687 *  0.250510 *   0.87073    1.000000    
    176 O2    c    0.832622 *  0.418180 *  0.581913 *   0.87073    1.000000    
    177 O2    c    0.583021 *  0.424404 *  0.913582 *   0.87073    1.000000    
    178 O2    c    0.421324 *  0.831664 *  0.747162 *   0.87073    1.000000    
    179 O2    c    0.147635 *  0.577873 *  0.080873 *   0.87073    1.000000    
    180 O2    c    0.413947 *  0.581979 *  0.413364 *   0.87073    1.000000    
    181 F     c    0.449032 *  0.902587 *  0.247065 *   0.56000    1.000000    
    182 F     c    0.096291 *  0.546451 *  0.580782 *   0.56000    1.000000    
    183 F     c    0.440422 *  0.576403 *  0.903579 *   0.56000    1.000000    
    184 F     c    0.552449 *  0.098441 *  0.746100 *   0.56000    1.000000    
    185 F     c    0.851431 *  0.434914 *  0.070509 *   0.56000    1.000000    
    186 F     c    0.545270 *  0.451682 *  0.413032 *   0.56000    1.000000    
    187 O2    s    0.928072 *  0.007143 *  0.998144 *  -2.87073    1.000000    
    188 O2    s    0.000959 *  0.923190 *  0.329020 *  -2.87073    1.000000    
    189 O2    s    0.073606 *  0.070832 *  0.663287 *  -2.87073    1.000000    
    190 O3    s    0.066502 *  0.998195 *  0.492106 *  -3.33043    1.000000    
    191 O2    s    0.007980 *  0.075859 *  0.830520 *  -2.87073    1.000000    
    192 O2    s    0.922808 *  0.928122 *  0.163428 *  -2.87073    1.000000    
    193 O2    s    0.349673 *  0.583165 *  0.329904 *  -2.87073    1.000000    
    194 O2    s    0.415877 *  0.761889 *  0.664194 *  -2.87073    1.000000    
    195 O2    s    0.227269 *  0.647056 *  0.999683 *  -2.87073    1.000000    
    196 O2    s    0.648270 *  0.408896 *  0.830725 *  -2.87073    1.000000    
    197 O2    s    0.580782 *  0.233157 *  0.169210 *  -2.87073    1.000000    
    198 O2    s    0.766416 *  0.356322 *  0.498008 *  -2.87073    1.000000    
    199 O3    s    0.573646 *  0.350974 *  0.996743 *  -3.33043    1.000000    
    200 O2    s    0.767066 *  0.410656 *  0.665486 *  -2.87073    1.000000    
    201 O2    s    0.646227 *  0.232014 *  0.333024 *  -2.87073    1.000000    
    202 O2    s    0.412887 *  0.650284 *  0.496994 *  -2.87073    1.000000    
    203 O2    s    0.226429 *  0.586688 *  0.164347 *  -2.87073    1.000000    
    204 O3    s    0.355018 *  0.765386 *  0.829519 *  -3.33043    1.000000    
    205 O2    s    0.124196 *  0.222586 *  0.965865 *  -2.87073    1.000000    
    206 O2    s    0.781694 *  0.902655 *  0.301205 *  -2.87073    1.000000    
    207 O2    s    0.095771 *  0.872230 *  0.637213 *  -2.87073    1.000000    
    208 O2    s    0.874883 *  0.781009 *  0.466327 *  -2.87073    1.000000    
    209 O2    s    0.217242 *  0.085045 *  0.799181 *  -2.87073    1.000000    
    210 O2    s    0.897124 *  0.122431 *  0.133595 *  -2.87073    1.000000    
    211 O2    s    0.214587 *  0.119025 *  0.362275 *  -2.87073    1.000000    
    212 O2    s    0.906427 *  0.793381 *  0.027547 *  -2.87073    1.000000    
    213 O2    s    0.878064 *  0.092151 *  0.693264 *  -2.87073    1.000000    
    214 O2    s    0.801403 *  0.878566 *  0.860459 *  -2.87073    1.000000    
    215 O3    s    0.090188 *  0.225120 *  0.525731 *  -3.33043    1.000000    
    216 O2    s    0.116953 *  0.903949 *  0.194842 *  -2.87073    1.000000    
    217 O2    s    0.923359 *  0.856343 *  0.246395 *  -2.87073    1.000000    
    218 O3    s    0.131615 *  0.054463 *  0.582287 *  -3.33043    1.000000    
    219 O2    s    0.936167 *  0.070583 *  0.913769 *  -2.87073    1.000000    
    220 O2    s    0.068015 *  0.130273 *  0.746083 *  -2.87073    1.000000    
    221 O2    s    0.851757 *  0.932509 *  0.080506 *  -2.87073    1.000000    
    222 O2    s    0.066521 *  0.920793 *  0.412300 *  -2.87073    1.000000    
    223 O2    s    0.909576 *  0.205063 *  0.977559 *  -2.87073    1.000000    
    224 O2    s    0.793159 *  0.701781 *  0.312462 *  -2.87073    1.000000    
    225 O2    s    0.296064 *  0.086896 *  0.645990 *  -2.87073    1.000000    
    226 O2    s    0.091330 *  0.798344 *  0.481880 *  -2.87073    1.000000    
    227 O2    s    0.209587 *  0.287838 *  0.808769 *  -2.87073    1.000000    
    228 O2    s    0.699305 *  0.909073 *  0.147185 *  -2.87073    1.000000    
    229 O2    s    0.205824 *  0.907233 *  0.348817 *  -2.87073    1.000000    
    230 O2    s    0.703948 *  0.801000 *  0.012685 *  -2.87073    1.000000    
    231 O2    s    0.092434 *  0.291294 *  0.681251 *  -2.87073    1.000000    
    232 O2    s    0.798910 *  0.085702 *  0.847982 *  -2.87073    1.000000    
    233 O3    s    0.308102 *  0.214382 *  0.516625 *  -3.33043    1.000000    
    234 O2    s    0.901459 *  0.704994 *  0.179774 *  -2.87073    1.000000    
    235 O2    s    0.325897 *  0.655180 *  0.247108 *  -2.87073    1.000000    
    236 O2    s    0.345643 *  0.671005 *  0.581131 *  -2.87073    1.000000    
    237 O3    s    0.315399 *  0.678491 *  0.917855 *  -3.33043    1.000000    
    238 O2    s    0.672481 *  0.340752 *  0.747859 *  -2.87073    1.000000    
    239 O3    s    0.625939 *  0.309953 *  0.086264 *  -3.33043    1.000000    
    240 O2    s    0.673562 *  0.330861 *  0.414489 *  -2.87073    1.000000    
    241 O2    s    0.376211 *  0.348519 *  0.961515 *  -2.87073    1.000000    
    242 O2    s    0.659256 *  0.034389 *  0.300936 *  -2.87073    1.000000    
    243 O2    s    0.964116 *  0.619453 *  0.634282 *  -2.87073    1.000000    
    244 O2    s    0.621195 *  0.661393 *  0.464533 *  -2.87073    1.000000    
    245 O2    s    0.342382 *  0.958007 *  0.797820 *  -2.87073    1.000000    
    246 O2    s    0.026546 *  0.377108 *  0.131196 *  -2.87073    1.000000    
    247 O2    s    0.337240 *  0.374228 *  0.362575 *  -2.87073    1.000000    
    248 O2    s    0.023729 *  0.654223 *  0.027676 *  -2.87073    1.000000    
    249 O2    s    0.624457 *  0.961436 *  0.695400 *  -2.87073    1.000000    
    250 O2    s    0.663301 *  0.621950 *  0.861011 *  -2.87073    1.000000    
    251 O2    s    0.962692 *  0.345829 *  0.529581 *  -2.87073    1.000000    
    252 O2    s    0.372405 *  0.034209 *  0.197518 *  -2.87073    1.000000    
    253 O3    s    0.767041 *  0.293561 *  0.005740 *  -3.33043    1.000000    
    254 O2    s    0.685785 *  0.464088 *  0.344200 *  -2.87073    1.000000    
    255 O2    s    0.534831 *  0.219496 *  0.677344 *  -2.87073    1.000000    
    256 O2    s    0.222821 *  0.691946 *  0.512556 *  -2.87073    1.000000    
    257 O3    s    0.300906 *  0.519295 *  0.837044 *  -3.33043    1.000000    
    258 O2    s    0.461315 *  0.777699 *  0.177965 *  -2.87073    1.000000    
    259 O2    s    0.308910 *  0.773873 *  0.316813 *  -2.87073    1.000000    
    260 O2    s    0.465061 *  0.696720 *  0.980711 *  -2.87073    1.000000    
    261 O2    s    0.225648 *  0.529606 *  0.650265 *  -2.87073    1.000000    
    262 O2    s    0.692295 *  0.219393 *  0.816904 *  -2.87073    1.000000    
    263 O2    s    0.536197 *  0.314542 *  0.483287 *  -2.87073    1.000000    
    264 O2    s    0.763842 *  0.465716 *  0.148391 *  -2.87073    1.000000    
    265 O3    s    0.779084 *  0.548938 *  0.023373 *  -3.33043    1.000000    
    266 O2    s    0.465567 *  0.255140 *  0.363050 *  -2.87073    1.000000    
    267 O2    s    0.744998 *  0.208967 *  0.695177 *  -2.87073    1.000000    
    268 O2    s    0.211919 *  0.471988 *  0.527841 *  -2.87073    1.000000    
    269 O3    s    0.557981 *  0.758714 *  0.855095 *  -3.33043    1.000000    
    270 O2    s    0.251149 *  0.787511 *  0.195546 *  -2.87073    1.000000    
    271 O2    s    0.530080 *  0.787771 *  0.300344 *  -2.87073    1.000000    
    272 O2    s    0.257030 *  0.474476 *  0.963323 *  -2.87073    1.000000    
    273 O2    s    0.211457 *  0.737095 *  0.634932 *  -2.87073    1.000000    
    274 O2    s    0.469431 *  0.205061 *  0.800033 *  -2.87073    1.000000    
    275 O2    s    0.741511 *  0.533617 *  0.466199 *  -2.87073    1.000000    
    276 O2    s    0.781674 *  0.259849 *  0.132080 *  -2.87073    1.000000    
    277 O2    s    0.238825 *  0.339272 *  0.893317 *  -2.87073    1.000000    
    278 O2    s    0.664004 *  0.906864 *  0.230474 *  -2.87073    1.000000    
    279 O2    s    0.092890 *  0.759421 *  0.565338 *  -2.87073    1.000000    
    280 O2    s    0.756280 *  0.665671 *  0.395246 *  -2.87073    1.000000    
    281 O2    s    0.334957 *  0.088385 *  0.728779 *  -2.87073    1.000000    
    282 O2    s    0.897389 *  0.241177 *  0.062222 *  -2.87073    1.000000    
    283 O2    s    0.330093 *  0.242230 *  0.433196 *  -2.87073    1.000000    
    284 O2    s    0.893176 *  0.660239 *  0.096482 *  -2.87073    1.000000    
    285 O2    s    0.760965 *  0.088408 *  0.765023 *  -2.87073    1.000000    
    286 O2    s    0.664215 *  0.760752 *  0.929208 *  -2.87073    1.000000    
    287 O2    s    0.095135 *  0.332702 *  0.598138 *  -2.87073    1.000000    
    288 O2    s    0.238706 *  0.906640 *  0.266127 *  -2.87073    1.000000    
    289 O2    s    0.575246 *  0.563596 *  0.980890 *  -2.87073    1.000000    
    290 O2    s    0.440808 *  0.019661 *  0.319781 *  -2.87073    1.000000    
    291 O2    s    0.977671 *  0.413394 *  0.651264 *  -2.87073    1.000000    
    292 O2    s    0.418388 *  0.445149 *  0.484601 *  -2.87073    1.000000    
    293 O2    s    0.562163 *  0.974287 *  0.817855 *  -2.87073    1.000000    
    294 O2    s    0.008336 *  0.575766 *  0.148653 *  -2.87073    1.000000    
    295 O2    s    0.555867 *  0.580576 *  0.342706 *  -2.87073    1.000000    
    296 O2    s    0.011684 *  0.439605 *  0.010084 *  -2.87073    1.000000    
    297 O2    s    0.417614 *  0.972046 *  0.676575 *  -2.87073    1.000000    
    298 O2    s    0.443665 *  0.421046 *  0.843069 *  -2.87073    1.000000    
    299 O2    s    0.974146 *  0.563704 *  0.511981 *  -2.87073    1.000000    
    300 O2    s    0.580850 *  0.024751 *  0.178613 *  -2.87073    1.000000    
    301 O2    s    0.574536 *  0.151547 *  0.250484 *  -2.87073    1.000000    
    302 O2    s    0.843881 *  0.423608 *  0.581912 *  -2.87073    1.000000    
    303 O2    s    0.578019 *  0.428679 *  0.913380 *  -2.87073    1.000000    
    304 O2    s    0.426362 *  0.841897 *  0.746922 *  -2.87073    1.000000    
    305 O2    s    0.138267 *  0.572909 *  0.081014 *  -2.87073    1.000000    
    306 O2    s    0.419565 *  0.576581 *  0.413434 *  -2.87073    1.000000    
    307 F     s    0.448798 *  0.902278 *  0.246883 *  -1.56000    1.000000    
    308 F     s    0.096607 *  0.546459 *  0.580666 *  -1.56000    1.000000    
    309 F     s    0.436603 *  0.583198 *  0.900965 *  -1.56000    1.000000    
    310 F     s    0.552983 *  0.099617 *  0.745947 *  -1.56000    1.000000    
    311 F     s    0.841649 *  0.431094 *  0.068267 *  -1.56000    1.000000    
    312 F     s    0.545334 *  0.451442 *  0.412914 *  -1.56000    1.000000    
--------------------------------------------------------------------------------



********************************************************************************
*  General input information                                                   *
********************************************************************************

  Species output for all configurations : 

--------------------------------------------------------------------------------
  Species    Type    Atomic    Atomic    Charge       Radii (Angs)     Library
                     Number     Mass       (e)     Cova   Ionic  VDW   Symbol
--------------------------------------------------------------------------------
    Si       Core       14      28.09   4.000000   1.200  0.000  2.100          
    O1       Core        8      16.00   1.733957   0.730  0.000  1.360          
    O1       Shell       8       0.00  -3.733957   0.730  0.000  1.360          
    O2       Core        8      16.00   0.870733   0.730  0.000  1.360          
    O2       Shell       8       0.00  -2.870733   0.730  0.000  1.360          
    O3       Core        8      16.00   1.330431   0.730  0.000  1.360          
    O3       Shell       8       0.00  -3.330431   0.730  0.000  1.360          
    F        Core        9      19.00   0.560000   0.710  0.000  1.300          
    F        Shell       9       0.00  -1.560000   0.710  0.000  1.300          
    Ge       Core       32      72.61   4.000000   1.170  0.000  1.750          
--------------------------------------------------------------------------------


  Lattice summation method               =    Ewald          (3-D)
                                         =    Parry          (2-D)
                                         =    Saunders et al (1-D)
  Accuracy factor for lattice sums       =   12.000


  Time limit = Infinity

  Maximum range for interatomic potentials =        16.000000 Angstroms

  Taper potentials to zero over   1.0000 Angstroms using polynomial

  General interatomic potentials :

--------------------------------------------------------------------------------
Atom  Types   Potential         A         B         C         D     Cutoffs(Ang)
  1     2                                                            Min    Max 
--------------------------------------------------------------------------------
Si   c O1   s Buckingham    0.132E+04 0.318      10.1      0.00     0.000 16.000
Si   c O2   s Buckingham    0.132E+04 0.318      10.1      0.00     0.000 16.000
Si   c O3   s Buckingham    0.132E+04 0.318      10.1      0.00     0.000 16.000
Ge   c O1   s Buckingham    0.150E+04 0.326      16.8      0.00     0.000 16.000
Ge   c O2   s Buckingham    0.150E+04 0.326      16.8      0.00     0.000 16.000
Ge   c O3   s Buckingham    0.150E+04 0.326      16.8      0.00     0.000 16.000
O1   s O1   s Buckingham    0.228E+05 0.149      10.9      0.00     0.000 16.000
O1   s O2   s Buckingham    0.228E+05 0.149      10.9      0.00     0.000 16.000
O1   s O3   s Buckingham    0.228E+05 0.149      10.9      0.00     0.000 16.000
O2   s O2   s Buckingham    0.228E+05 0.149      10.9      0.00     0.000 16.000
O2   s O3   s Buckingham    0.228E+05 0.149      10.9      0.00     0.000 16.000
O3   s O3   s Buckingham    0.228E+05 0.149      10.9      0.00     0.000 16.000
Si   c F    s Buckingham     977.     0.282      0.00      0.00     0.000 16.000
Ge   c F    s Buckingham     681.     0.320      0.00      0.00     0.000 16.000
F    s F    s Buckingham     540.     0.262      0.00      0.00     0.000 16.000
O1   s F    s Buckingham    0.168E+04 0.268      0.00      0.00     0.000 16.000
O2   s F    s Buckingham    0.168E+04 0.268      0.00      0.00     0.000 16.000
O3   s F    s Buckingham    0.168E+04 0.268      0.00      0.00     0.000 16.000
O2   c O2   s Spring (c-s)   76.0      0.00      0.00      0.00     0.000  0.800
O3   c O3   s Spring (c-s)   128.      0.00      0.00      0.00     0.000  0.800
O1   c O1   s Spring (c-s)   180.      0.00      0.00      0.00     0.000  0.800
F    c F    s Spring (c-s)   33.5      0.00      0.00      0.00     0.000  0.800
--------------------------------------------------------------------------------

  General Three-body potentials :

  Harmonic form:

--------------------------------------------------------------------------------
Atom    Atom    Atom           Force Constants            Theta     Cutoffs  
  1       2       3     (eVrad**-2/eVrad**-3/eVrad**-4)   (deg)  1-2  1-3  2-3
--------------------------------------------------------------------------------
Si    c O1    s O1    s  1.261        0.0000    0.0000   109.470 0.00 0.00 0.00
                                                                 1.90 1.90 3.50
Si    c O1    s O2    s  1.261        0.0000    0.0000   109.470 0.00 0.00 0.00
                                                                 1.90 1.90 3.50
Si    c O2    s O2    s  1.261        0.0000    0.0000   109.470 0.00 0.00 0.00
                                                                 1.90 1.90 3.50
--------------------------------------------------------------------------------

********************************************************************************
*  Output for configuration   1                                                *
********************************************************************************


  Components of energy : 

--------------------------------------------------------------------------------
  Interatomic potentials     =        2063.26321860 eV
  Three-body potentials      =           0.44964089 eV
  Monopole - monopole (real) =       -6614.48859906 eV
  Monopole - monopole (recip)=       -3169.64382598 eV
  Monopole - monopole (total)=       -9784.13242505 eV
  Neutralising energy        =          -6.45655839 eV
--------------------------------------------------------------------------------
  Total lattice energy       =       -7726.87612395 eV
--------------------------------------------------------------------------------
  Total lattice energy       =         -745525.4298 kJ/(mole unit cells)
--------------------------------------------------------------------------------


  Number of variables =      939

  Maximum number of calculations  =          5000
  Maximum Hessian update interval =            10
  Maximum step size               =   0.100000000
  Maximum parameter tolerance     =   0.000010000
  Maximum function  tolerance     =   0.000010000
  Maximum gradient  tolerance     =   0.001000000
  Maximum gradient  component     =   0.010000000

  Symmetry not applied to optimisation

  Cell parameters to be optimised using strains

  Newton-Raphson optimiser to be used

  BFGS hessian update to be used

  Dumpfile to be written after every cycle

  Start of bulk optimisation :

  Cycle:      0 Energy:     -7726.876124  Gnorm:      0.015801  CPU:    2.023
  ** Hessian calculated **
  Cycle:      1 Energy:     -7726.876615  Gnorm:      0.005357  CPU:    5.225
  Cycle:      2 Energy:     -7726.876709  Gnorm:      0.003265  CPU:    8.046
  Cycle:      3 Energy:     -7726.876782  Gnorm:      0.002121  CPU:   10.871
  Cycle:      4 Energy:     -7726.876863  Gnorm:      0.001559  CPU:   13.693
  Cycle:      5 Energy:     -7726.877215  Gnorm:      0.003800  CPU:   19.230
  Cycle:      6 Energy:     -7726.877631  Gnorm:      0.007067  CPU:   23.412
  Cycle:      7 Energy:     -7726.878164  Gnorm:      0.010906  CPU:   27.595
  Cycle:      8 Energy:     -7726.878885  Gnorm:      0.015333  CPU:   31.776
  Cycle:      9 Energy:     -7726.879876  Gnorm:      0.020216  CPU:   35.960
  Cycle:     10 Energy:     -7726.881216  Gnorm:      0.025801  CPU:   40.141
  ** Hessian calculated **
  Cycle:     11 Energy:     -7726.882642  Gnorm:      0.005837  CPU:   45.350
  Cycle:     12 Energy:     -7726.882834  Gnorm:      0.003206  CPU:   48.854
  Cycle:     13 Energy:     -7726.883020  Gnorm:      0.002885  CPU:   53.040
  Cycle:     14 Energy:     -7726.883244  Gnorm:      0.003850  CPU:   57.224
  Cycle:     15 Energy:     -7726.883527  Gnorm:      0.004808  CPU:   61.410
  Cycle:     16 Energy:     -7726.883870  Gnorm:      0.005026  CPU:   65.593
  Cycle:     17 Energy:     -7726.884262  Gnorm:      0.004575  CPU:   69.773
  Cycle:     18 Energy:     -7726.884710  Gnorm:      0.003893  CPU:   73.958
  Cycle:     19 Energy:     -7726.885349  Gnorm:      0.004245  CPU:   78.143
  Cycle:     20 Energy:     -7726.886302  Gnorm:      0.005684  CPU:   82.321
  ** Hessian calculated **
  Cycle:     21 Energy:     -7726.887536  Gnorm:      0.005657  CPU:   88.205
  Cycle:     22 Energy:     -7726.889618  Gnorm:      0.005610  CPU:   93.065
  Cycle:     23 Energy:     -7726.892829  Gnorm:      0.005536  CPU:   97.923
  Cycle:     24 Energy:     -7726.897624  Gnorm:      0.005424  CPU:  102.781
  Cycle:     25 Energy:     -7726.903500  Gnorm:      0.005284  CPU:  106.964
  Cycle:     26 Energy:     -7726.913148  Gnorm:      0.005043  CPU:  111.822
  Cycle:     27 Energy:     -7726.924966  Gnorm:      0.004729  CPU:  116.010
  Cycle:     28 Energy:     -7726.943587  Gnorm:      0.004185  CPU:  120.869
  Cycle:     29 Energy:     -7726.964368  Gnorm:      0.003490  CPU:  125.051
  Cycle:     30 Energy:     -7726.987240  Gnorm:      0.002588  CPU:  129.231
  ** Hessian calculated **
  Cycle:     31 Energy:     -7727.004233  Gnorm:      0.001531  CPU:  135.118
  Cycle:     32 Energy:     -7727.008421  Gnorm:      0.001039  CPU:  139.300
  Cycle:     33 Energy:     -7727.009461  Gnorm:      0.000597  CPU:  143.482
  Cycle:     34 Energy:     -7727.009722  Gnorm:      0.000320  CPU:  147.663
  Cycle:     35 Energy:     -7727.009788  Gnorm:      0.000166  CPU:  151.845
  Cycle:     36 Energy:     -7727.009799  Gnorm:      0.000117  CPU:  154.691
  Cycle:     37 Energy:     -7727.009805  Gnorm:      0.000082  CPU:  157.514
  Cycle:     38 Energy:     -7727.009807  Gnorm:      0.000058  CPU:  160.336
  Cycle:     39 Energy:     -7727.009809  Gnorm:      0.000040  CPU:  163.162
  Cycle:     40 Energy:     -7727.009809  Gnorm:      0.000028  CPU:  165.987
  ** Hessian calculated **


  **** Optimisation achieved ****


  Final energy =   -7727.00980932 eV
  Final Gnorm  =       0.00001713

  Components of energy : 

--------------------------------------------------------------------------------
  Interatomic potentials     =        2063.68579716 eV
  Three-body potentials      =           0.45094770 eV
  Monopole - monopole (real) =       -6615.67688418 eV
  Monopole - monopole (recip)=       -3169.01438915 eV
  Monopole - monopole (total)=       -9784.69127334 eV
  Neutralising energy        =          -6.45528085 eV
--------------------------------------------------------------------------------
  Total lattice energy       =       -7727.00980932 eV
--------------------------------------------------------------------------------
  Total lattice energy       =         -745538.3284 kJ/(mole unit cells)
--------------------------------------------------------------------------------

  Final fractional coordinates of atoms :

--------------------------------------------------------------------------------
   No.  Atomic        x           y          z          Radius
        Label       (Frac)      (Frac)     (Frac)       (Angs) 
--------------------------------------------------------------------------------
     1  Ge    c     0.699600    0.375700    0.033890    0.000000
     2  Si    c     0.592830    0.302853    0.363964    0.000000
     3  Si    c     0.658692    0.276330    0.696828    0.000000
     4  Si    c     0.277527    0.605333    0.530840    0.000000
     5  Ge    c     0.372144    0.652624    0.866032    0.000000
     6  Si    c     0.295142    0.684536    0.198057    0.000000
     7  Si    c     0.351090    0.680275    0.298673    0.000000
     8  Si    c     0.302262    0.614674    0.964113    0.000000
     9  Si    c     0.281519    0.655303    0.632086    0.000000
    10  Si    c     0.607475    0.279262    0.797151    0.000000
    11  Si    c     0.655375    0.361382    0.464012    0.000000
    12  Si    c     0.661152    0.300300    0.131588    0.000000
    13  Si    c     0.523069    0.410527    0.964052    0.000000
    14  Si    c     0.555326    0.091533    0.300022    0.000000
    15  Si    c     0.868322    0.448988    0.632503    0.000000
    16  Si    c     0.444323    0.563985    0.464964    0.000000
    17  Si    c     0.404748    0.864947    0.799399    0.000000
    18  Si    c     0.082573    0.510239    0.133252    0.000000
    19  Si    c     0.388066    0.506013    0.363451    0.000000
    20  Si    c     0.090299    0.568748    0.030213    0.000000
    21  Si    c     0.454678    0.866878    0.696704    0.000000
    22  Si    c     0.573189    0.458467    0.860367    0.000000
    23  Si    c     0.866624    0.403723    0.530435    0.000000
    24  Si    c     0.499169    0.090968    0.198344    0.000000
    25  Si    c     0.284375    0.382974    0.843373    0.000000
    26  Si    c     0.571943    0.884595    0.182794    0.000000
    27  Si    c     0.074862    0.682372    0.517514    0.000000
    28  Si    c     0.668369    0.578944    0.347834    0.000000
    29  Si    c     0.382264    0.075136    0.681460    0.000000
    30  Si    c     0.880856    0.283914    0.011877    0.000000
    31  Si    c     0.378076    0.285893    0.480043    0.000000
    32  Si    c     0.867953    0.582434    0.144731    0.000000
    33  Si    c     0.686319    0.079313    0.811976    0.000000
    34  Si    c     0.588418    0.694433    0.974985    0.000000
    35  Si    c     0.080652    0.377545    0.645570    0.000000
    36  Si    c     0.274944    0.881941    0.312918    0.000000
    37  Si    c     0.239647    0.333714    0.946465    0.000000
    38  Si    c     0.631487    0.890081    0.283775    0.000000
    39  Si    c     0.069965    0.726545    0.618774    0.000000
    40  Si    c     0.722370    0.639073    0.448435    0.000000
    41  Si    c     0.328461    0.067835    0.781967    0.000000
    42  Si    c     0.879178    0.231975    0.115355    0.000000
    43  Si    c     0.311090    0.229113    0.379726    0.000000
    44  Si    c     0.889961    0.655482    0.042598    0.000000
    45  Si    c     0.732941    0.070206    0.711219    0.000000
    46  Si    c     0.655055    0.742008    0.872540    0.000000
    47  Si    c     0.069452    0.327086    0.544271    0.000000
    48  Si    c     0.220706    0.890251    0.212248    0.000000
    49  Si    c     0.964728    0.113563    0.963382    0.000000
    50  Si    c     0.849005    0.826178    0.297680    0.000000
    51  Si    c     0.129709    0.002850    0.632128    0.000000
    52  Si    c     0.001602    0.856454    0.463906    0.000000
    53  Si    c     0.110632    0.128600    0.795964    0.000000
    54  Si    c     0.818612    0.954336    0.131235    0.000000
    55  Si    c     0.094701    0.948614    0.363138    0.000000
    56  Si    c     0.835620    0.875775    0.029432    0.000000
    57  Si    c     0.011408    0.128976    0.695832    0.000000
    58  Si    c     0.873421    0.015874    0.862580    0.000000
    59  Ge    c     0.127469    0.103073    0.529718    0.000000
    60  Si    c     0.939634    0.829454    0.196303    0.000000
    61  O2    c     0.922714    0.000041    0.999584    0.000000
    62  O2    c     0.974249    0.906947    0.329023    0.000000
    63  O2    c     0.051961    0.049276    0.663391    0.000000
    64  O3    c     0.037982    0.980819    0.492301    0.000000
    65  O2    c     0.996448    0.060677    0.831482    0.000000
    66  O2    c     0.900045    0.911770    0.163516    0.000000
    67  O2    c     0.311665    0.556682    0.330705    0.000000
    68  O2    c     0.405542    0.740637    0.664667    0.000000
    69  O2    c     0.221404    0.644068    0.001747    0.000000
    70  O2    c     0.645698    0.402897    0.829482    0.000000
    71  O2    c     0.548871    0.218955    0.167837    0.000000
    72  O2    c     0.741844    0.325815    0.497254    0.000000
    73  O3    c     0.566273    0.336232    0.996894    0.000000
    74  O2    c     0.743543    0.399743    0.664565    0.000000
    75  O2    c     0.630939    0.216937    0.332010    0.000000
    76  O2    c     0.398464    0.642495    0.497228    0.000000
    77  O2    c     0.207393    0.559687    0.166167    0.000000
    78  O3    c     0.329180    0.746256    0.831124    0.000000
    79  O2    c     0.118622    0.206478    0.967874    0.000000
    80  O2    c     0.758606    0.889878    0.303824    0.000000
    81  O2    c     0.069939    0.850466    0.640284    0.000000
    82  O2    c     0.847882    0.763603    0.468761    0.000000
    83  O2    c     0.199832    0.063813    0.801704    0.000000
    84  O2    c     0.879156    0.107522    0.136792    0.000000
    85  O2    c     0.184109    0.102703    0.359867    0.000000
    86  O2    c     0.908410    0.793430    0.027362    0.000000
    87  O2    c     0.857528    0.068962    0.690279    0.000000
    88  O2    c     0.791890    0.862439    0.856952    0.000000
    89  O3    c     0.063720    0.202550    0.522716    0.000000
    90  O2    c     0.093854    0.890901    0.191935    0.000000
    91  O2    c     0.897510    0.838919    0.246579    0.000000
    92  O3    c     0.105368    0.031316    0.581400    0.000000
    93  O2    c     0.923026    0.053229    0.913991    0.000000
    94  O2    c     0.049065    0.110754    0.746350    0.000000
    95  O2    c     0.831118    0.919670    0.080204    0.000000
    96  O2    c     0.039333    0.901168    0.412426    0.000000
    97  O2    c     0.895414    0.195737    0.974047    0.000000
    98  O2    c     0.766393    0.675306    0.309530    0.000000
    99  O2    c     0.283155    0.074980    0.642712    0.000000
   100  O2    c     0.076756    0.781787    0.479530    0.000000
   101  O2    c     0.195620    0.279554    0.805378    0.000000
   102  O2    c     0.667587    0.883754    0.144099    0.000000
   103  O2    c     0.178901    0.881558    0.351215    0.000000
   104  O2    c     0.687440    0.792502    0.013055    0.000000
   105  O2    c     0.082827    0.279966    0.683556    0.000000
   106  O2    c     0.787165    0.081330    0.850344    0.000000
   107  O3    c     0.290413    0.191033    0.519368    0.000000
   108  O2    c     0.869568    0.679193    0.183182    0.000000
   109  O2    c     0.295896    0.625464    0.247813    0.000000
   110  O2    c     0.337329    0.658824    0.581342    0.000000
   111  O3    c     0.292865    0.669042    0.916146    0.000000
   112  O2    c     0.660952    0.336433    0.746688    0.000000
   113  O3    c     0.601242    0.296525    0.082954    0.000000
   114  O2    c     0.655150    0.305004    0.413713    0.000000
   115  O2    c     0.365805    0.329476    0.963232    0.000000
   116  O2    c     0.642818    0.022259    0.302185    0.000000
   117  O2    c     0.938088    0.604191    0.636281    0.000000
   118  O2    c     0.600772    0.650325    0.466537    0.000000
   119  O2    c     0.319441    0.937417    0.799933    0.000000
   120  O2    c     0.010283    0.355168    0.134131    0.000000
   121  O2    c     0.300240    0.350539    0.360334    0.000000
   122  O2    c     0.021678    0.656040    0.027653    0.000000
   123  O2    c     0.611062    0.938222    0.692741    0.000000
   124  O2    c     0.659484    0.613507    0.857649    0.000000
   125  O2    c     0.935940    0.317817    0.526757    0.000000
   126  O2    c     0.342557    0.021583    0.193838    0.000000
   127  O3    c     0.749370    0.280886    0.001943    0.000000
   128  O2    c     0.665567    0.443913    0.340316    0.000000
   129  O2    c     0.515799    0.208225    0.673001    0.000000
   130  O2    c     0.208625    0.681547    0.509257    0.000000
   131  O3    c     0.278109    0.508749    0.833509    0.000000
   132  O2    c     0.436560    0.752283    0.174549    0.000000
   133  O2    c     0.275394    0.748518    0.320033    0.000000
   134  O2    c     0.452690    0.691395    0.982719    0.000000
   135  O2    c     0.214327    0.511474    0.653354    0.000000
   136  O2    c     0.686104    0.213240    0.819286    0.000000
   137  O2    c     0.513056    0.286225    0.485929    0.000000
   138  O2    c     0.735117    0.448546    0.150794    0.000000
   139  O3    c     0.765198    0.543885    0.019652    0.000000
   140  O2    c     0.435888    0.226482    0.360205    0.000000
   141  O2    c     0.735739    0.197227    0.691605    0.000000
   142  O2    c     0.196480    0.450790    0.524874    0.000000
   143  O3    c     0.540058    0.751318    0.849943    0.000000
   144  O2    c     0.216962    0.762900    0.192666    0.000000
   145  O2    c     0.507167    0.764752    0.303437    0.000000
   146  O2    c     0.239103    0.458671    0.965875    0.000000
   147  O2    c     0.197238    0.726497    0.637653    0.000000
   148  O2    c     0.451621    0.195991    0.802172    0.000000
   149  O2    c     0.726152    0.515915    0.468126    0.000000
   150  O2    c     0.755058    0.236937    0.133078    0.000000
   151  O2    c     0.219910    0.318788    0.892151    0.000000
   152  O2    c     0.646967    0.887484    0.229347    0.000000
   153  O2    c     0.071851    0.750174    0.564458    0.000000
   154  O2    c     0.739704    0.654281    0.394002    0.000000
   155  O2    c     0.309196    0.072922    0.727604    0.000000
   156  O2    c     0.882156    0.219988    0.061003    0.000000
   157  O2    c     0.295816    0.213169    0.434298    0.000000
   158  O2    c     0.876707    0.655112    0.097779    0.000000
   159  O2    c     0.754895    0.073331    0.765602    0.000000
   160  O2    c     0.656981    0.758133    0.927771    0.000000
   161  O2    c     0.076982    0.306034    0.598543    0.000000
   162  O2    c     0.203578    0.888299    0.266545    0.000000
   163  O2    c     0.568900    0.553993    0.982479    0.000000
   164  O2    c     0.414748    0.005214    0.322393    0.000000
   165  O2    c     0.954751    0.391228    0.653984    0.000000
   166  O2    c     0.391391    0.424606    0.488299    0.000000
   167  O2    c     0.547834    0.957071    0.821412    0.000000
   168  O2    c     0.988953    0.559541    0.152516    0.000000
   169  O2    c     0.527764    0.564297    0.339231    0.000000
   170  O2    c     0.003018    0.429065    0.007668    0.000000
   171  O2    c     0.395160    0.949333    0.673201    0.000000
   172  O2    c     0.430355    0.406317    0.839220    0.000000
   173  O2    c     0.948010    0.545260    0.507973    0.000000
   174  O2    c     0.559048    0.010748    0.174377    0.000000
   175  O2    c     0.552146    0.143022    0.249203    0.000000
   176  O2    c     0.813639    0.400766    0.581193    0.000000
   177  O2    c     0.572162    0.414695    0.912426    0.000000
   178  O2    c     0.407616    0.817062    0.747691    0.000000
   179  O2    c     0.130210    0.560706    0.082447    0.000000
   180  O2    c     0.388079    0.560233    0.413913    0.000000
   181  F     c     0.421813    0.882469    0.246476    0.000000
   182  F     c     0.077488    0.529301    0.580284    0.000000
   183  F     c     0.426964    0.563737    0.903070    0.000000
   184  F     c     0.536922    0.083081    0.745519    0.000000
   185  F     c     0.842628    0.427158    0.071282    0.000000
   186  F     c     0.519521    0.430093    0.412723    0.000000
   187  O2    s     0.917543    0.998646    0.998932    0.000000
   188  O2    s     0.973497    0.902491    0.329268    0.000000
   189  O2    s     0.056073    0.053132    0.663583    0.000000
   190  O3    s     0.041660    0.977670    0.492403    0.000000
   191  O2    s     0.995269    0.063289    0.831018    0.000000
   192  O2    s     0.895385    0.907392    0.163563    0.000000
   193  O2    s     0.323481    0.564427    0.330663    0.000000
   194  O2    s     0.397660    0.744505    0.664509    0.000000
   195  O2    s     0.215445    0.633011    0.001021    0.000000
   196  O2    s     0.634310    0.396225    0.829430    0.000000
   197  O2    s     0.555419    0.214108    0.167221    0.000000
   198  O2    s     0.745544    0.337568    0.497147    0.000000
   199  O3    s     0.570779    0.347304    0.995827    0.000000
   200  O2    s     0.748010    0.392385    0.664485    0.000000
   201  O2    s     0.619163    0.212514    0.331907    0.000000
   202  O2    s     0.391023    0.630662    0.497291    0.000000
   203  O2    s     0.202874    0.566920    0.165858    0.000000
   204  O3    s     0.340490    0.752581    0.830141    0.000000
   205  O2    s     0.114454    0.209501    0.965224    0.000000
   206  O2    s     0.754951    0.883135    0.301108    0.000000
   207  O2    s     0.076177    0.853532    0.637237    0.000000
   208  O2    s     0.850867    0.760197    0.466097    0.000000
   209  O2    s     0.203271    0.071275    0.799084    0.000000
   210  O2    s     0.872813    0.104423    0.133998    0.000000
   211  O2    s     0.187670    0.099412    0.362215    0.000000
   212  O2    s     0.898715    0.787999    0.029152    0.000000
   213  O2    s     0.861222    0.075553    0.693007    0.000000
   214  O2    s     0.786578    0.866491    0.859143    0.000000
   215  O3    s     0.069627    0.206694    0.525443    0.000000
   216  O2    s     0.090516    0.884270    0.194478    0.000000
   217  O2    s     0.896897    0.836416    0.246560    0.000000
   218  O3    s     0.109936    0.034685    0.582214    0.000000
   219  O2    s     0.922355    0.056071    0.913998    0.000000
   220  O2    s     0.051797    0.114862    0.746255    0.000000
   221  O2    s     0.830202    0.918754    0.080392    0.000000
   222  O2    s     0.041599    0.901726    0.412393    0.000000
   223  O2    s     0.901440    0.196218    0.976932    0.000000
   224  O2    s     0.765250    0.681520    0.312129    0.000000
   225  O2    s     0.276960    0.067440    0.645452    0.000000
   226  O2    s     0.068616    0.779568    0.481768    0.000000
   227  O2    s     0.195784    0.273995    0.808403    0.000000
   228  O2    s     0.673858    0.891302    0.146670    0.000000
   229  O2    s     0.180015    0.888761    0.348454    0.000000
   230  O2    s     0.693332    0.791459    0.010915    0.000000
   231  O2    s     0.075129    0.274109    0.680966    0.000000
   232  O2    s     0.786250    0.074155    0.847801    0.000000
   233  O3    s     0.285649    0.193109    0.516376    0.000000
   234  O2    s     0.876791    0.685005    0.180571    0.000000
   235  O2    s     0.301452    0.637173    0.247826    0.000000
   236  O2    s     0.325634    0.653013    0.581282    0.000000
   237  O3    s     0.298769    0.662238    0.918124    0.000000
   238  O2    s     0.655268    0.324526    0.746768    0.000000
   239  O3    s     0.613842    0.302006    0.084903    0.000000
   240  O2    s     0.648775    0.310529    0.413713    0.000000
   241  O2    s     0.367736    0.338140    0.961452    0.000000
   242  O2    s     0.632663    0.015588    0.300032    0.000000
   243  O2    s     0.944841    0.601133    0.634029    0.000000
   244  O2    s     0.597355    0.640198    0.464452    0.000000
   245  O2    s     0.328955    0.944645    0.797874    0.000000
   246  O2    s     0.004258    0.358580    0.132097    0.000000
   247  O2    s     0.310315    0.353927    0.362650    0.000000
   248  O2    s     0.015630    0.646875    0.029426    0.000000
   249  O2    s     0.607788    0.944751    0.695090    0.000000
   250  O2    s     0.650150    0.610355    0.859423    0.000000
   251  O2    s     0.942739    0.327966    0.529024    0.000000
   252  O2    s     0.345858    0.014950    0.196227    0.000000
   253  O3    s     0.760205    0.287499    0.005187    0.000000
   254  O2    s     0.658445    0.443624    0.343527    0.000000
   255  O2    s     0.516423    0.201282    0.676335    0.000000
   256  O2    s     0.201750    0.673808    0.512373    0.000000
   257  O3    s     0.285024    0.504873    0.836779    0.000000
   258  O2    s     0.436100    0.759061    0.177838    0.000000
   259  O2    s     0.283154    0.755552    0.317041    0.000000
   260  O2    s     0.452348    0.684344    0.980098    0.000000
   261  O2    s     0.207274    0.512224    0.650333    0.000000
   262  O2    s     0.678121    0.206235    0.816249    0.000000
   263  O2    s     0.513708    0.294138    0.482934    0.000000
   264  O2    s     0.742156    0.448573    0.148275    0.000000
   265  O3    s     0.774612    0.545251    0.022997    0.000000
   266  O2    s     0.438811    0.234748    0.362648    0.000000
   267  O2    s     0.727341    0.191642    0.694239    0.000000
   268  O2    s     0.191295    0.453739    0.527548    0.000000
   269  O3    s     0.541893    0.743891    0.853377    0.000000
   270  O2    s     0.225478    0.768391    0.195267    0.000000
   271  O2    s     0.504289    0.769599    0.300827    0.000000
   272  O2    s     0.245459    0.460747    0.963627    0.000000
   273  O2    s     0.192091    0.718899    0.635025    0.000000
   274  O2    s     0.454852    0.191091    0.799546    0.000000
   275  O2    s     0.718109    0.513034    0.465541    0.000000
   276  O2    s     0.759460    0.242812    0.130972    0.000000
   277  O2    s     0.228334    0.326718    0.893139    0.000000
   278  O2    s     0.637423    0.887447    0.230167    0.000000
   279  O2    s     0.071993    0.740643    0.565178    0.000000
   280  O2    s     0.730306    0.644698    0.394855    0.000000
   281  O2    s     0.318903    0.072661    0.728428    0.000000
   282  O2    s     0.881701    0.227577    0.061999    0.000000
   283  O2    s     0.305534    0.222074    0.433173    0.000000
   284  O2    s     0.877039    0.647215    0.097368    0.000000
   285  O2    s     0.745472    0.073633    0.764679    0.000000
   286  O2    s     0.649292    0.749638    0.927435    0.000000
   287  O2    s     0.076648    0.315543    0.597834    0.000000
   288  O2    s     0.212860    0.887854    0.265570    0.000000
   289  O2    s     0.566172    0.554807    0.979732    0.000000
   290  O2    s     0.414500    0.000826    0.318987    0.000000
   291  O2    s     0.959485    0.395969    0.650817    0.000000
   292  O2    s     0.395673    0.424379    0.484957    0.000000
   293  O2    s     0.548797    0.961626    0.818129    0.000000
   294  O2    s     0.985880    0.556599    0.149615    0.000000
   295  O2    s     0.528447    0.559686    0.342649    0.000000
   296  O2    s     0.999855    0.429361    0.010517    0.000000
   297  O2    s     0.400094    0.954451    0.676509    0.000000
   298  O2    s     0.430738    0.409713    0.841933    0.000000
   299  O2    s     0.953357    0.545314    0.511335    0.000000
   300  O2    s     0.554088    0.005441    0.177747    0.000000
   301  O2    s     0.546866    0.132106    0.249156    0.000000
   302  O2    s     0.824784    0.406044    0.581167    0.000000
   303  O2    s     0.567318    0.418913    0.912173    0.000000
   304  O2    s     0.412397    0.827173    0.747369    0.000000
   305  O2    s     0.120907    0.556128    0.082441    0.000000
   306  O2    s     0.393838    0.554981    0.413920    0.000000
   307  F     s     0.421456    0.881983    0.246272    0.000000
   308  F     s     0.077906    0.529409    0.580135    0.000000
   309  F     s     0.422795    0.570624    0.900377    0.000000
   310  F     s     0.537489    0.084276    0.745332    0.000000
   311  F     s     0.831821    0.423430    0.068512    0.000000
   312  F     s     0.519542    0.429770    0.412590    0.000000
--------------------------------------------------------------------------------

  Final Cartesian lattice vectors (Angstroms) :

       11.928041    0.008768   -0.013259
       -5.973640   10.430083    0.015836
       -0.369331   -0.060774   29.445977


  Final cell parameters and derivatives :

--------------------------------------------------------------------------------
       a           11.928052 Angstrom     dE/de1(xx)     0.001278 eV/strain
       b           12.019620 Angstrom     dE/de2(yy)     0.000423 eV/strain
       c           29.448356 Angstrom     dE/de3(zz)     0.002634 eV/strain
       alpha       89.669996 Degrees      dE/de4(yz)     0.000056 eV/strain
       beta        90.782380 Degrees      dE/de5(xz)     0.000332 eV/strain
       gamma      119.759068 Degrees      dE/de6(xy)     0.000141 eV/strain
--------------------------------------------------------------------------------

  Primitive cell volume =          3664.885491 Angs**3

  Density of cell =      1.745782 g/cm**3

  Non-primitive cell volume =          3664.885491 Angs**3


  Final internal derivatives :

--------------------------------------------------------------------------------
   No.  Atomic          a             b             c           Radius
        Label          (eV)          (eV)          (eV)        (eV/Angs)
--------------------------------------------------------------------------------
      1 Ge    c       0.000000      0.000000      0.000000      0.000000
      2 Si    c       0.000127      0.000369      0.000650      0.000000
      3 Si    c      -0.000102     -0.000292      0.000364      0.000000
      4 Si    c      -0.000039      0.000162      0.000806      0.000000
      5 Ge    c       0.000383      0.000110      0.000732      0.000000
      6 Si    c       0.000259      0.000020      0.000507      0.000000
      7 Si    c       0.000097     -0.000129     -0.000529      0.000000
      8 Si    c       0.000357      0.000150     -0.000215      0.000000
      9 Si    c       0.000033      0.000409      0.000505      0.000000
     10 Si    c      -0.000081     -0.000239      0.000428      0.000000
     11 Si    c      -0.000014     -0.000040      0.000192      0.000000
     12 Si    c       0.001794      0.000155      0.007384      0.000000
     13 Si    c      -0.000687     -0.000576     -0.000059      0.000000
     14 Si    c       0.000370      0.000502      0.000254      0.000000
     15 Si    c       0.000113      0.000055     -0.000191      0.000000
     16 Si    c      -0.000044      0.000001     -0.000252      0.000000
     17 Si    c      -0.000290     -0.000043     -0.000307      0.000000
     18 Si    c       0.000402      0.000463      0.001291      0.000000
     19 Si    c       0.000325      0.000356      0.000164      0.000000
     20 Si    c       0.000170      0.000378     -0.000114      0.000000
     21 Si    c      -0.000227     -0.000000     -0.000156      0.000000
     22 Si    c      -0.000254     -0.000191      0.000845      0.000000
     23 Si    c      -0.000318     -0.000182      0.000130      0.000000
     24 Si    c       0.000424      0.000431      0.000449      0.000000
     25 Si    c      -0.000135      0.000180     -0.000456      0.000000
     26 Si    c       0.000342      0.000134      0.000692      0.000000
     27 Si    c       0.000090      0.000260      0.000132      0.000000
     28 Si    c       0.000194      0.000437      0.000560      0.000000
     29 Si    c      -0.000049     -0.000038     -0.000580      0.000000
     30 Si    c       0.001456      0.000435     -0.000730      0.000000
     31 Si    c       0.000061      0.000097     -0.000517      0.000000
     32 Si    c       0.000652      0.000213      0.000446      0.000000
     33 Si    c      -0.000199     -0.000226      0.000744      0.000000
     34 Si    c       0.000444     -0.000108      0.000465      0.000000
     35 Si    c      -0.000207     -0.000027      0.000275      0.000000
     36 Si    c      -0.000004      0.000307     -0.000621      0.000000
     37 Si    c       0.000116     -0.000057     -0.000442      0.000000
     38 Si    c       0.000451      0.000236      0.000070      0.000000
     39 Si    c       0.000232      0.000333     -0.000235      0.000000
     40 Si    c       0.000160      0.000093      0.000161      0.000000
     41 Si    c       0.000043     -0.000088     -0.000457      0.000000
     42 Si    c       0.000557      0.000443      0.000360      0.000000
     43 Si    c       0.000128      0.000214      0.000066      0.000000
     44 Si    c       0.000371      0.000226     -0.003230      0.000000
     45 Si    c      -0.000340     -0.000088      0.000626      0.000000
     46 Si    c       0.000060     -0.000119      0.000451      0.000000
     47 Si    c      -0.000356      0.000389      0.000740      0.000000
     48 Si    c       0.000143      0.000336     -0.000158      0.000000
     49 Si    c      -0.000101     -0.000290      0.000122      0.000000
     50 Si    c       0.000642      0.000525      0.000000      0.000000
     51 Si    c       0.000486      0.000354     -0.000628      0.000000
     52 Si    c       0.000387      0.000348      0.000163      0.000000
     53 Si    c       0.000161      0.000242     -0.000566      0.000000
     54 Si    c       0.000273      0.000061      0.001027      0.000000
     55 Si    c       0.000142      0.000035     -0.000114      0.000000
     56 Si    c      -0.000142     -0.000223     -0.000998      0.000000
     57 Si    c      -0.000316      0.000174      0.000587      0.000000
     58 Si    c       0.000069      0.000540      0.000473      0.000000
     59 Ge    c       0.000280      0.000084     -0.000478      0.000000
     60 Si    c       0.000254      0.000420     -0.000554      0.000000
     61 O2    c       0.000047     -0.000069      0.000119      0.000000
     62 O2    c      -0.000064      0.000032      0.000020      0.000000
     63 O2    c      -0.000150     -0.000021      0.000190      0.000000
     64 O3    c       0.000071      0.000082      0.000178      0.000000
     65 O2    c      -0.000023      0.000049     -0.000116      0.000000
     66 O2    c       0.000183      0.000003      0.000113      0.000000
     67 O2    c       0.000211      0.000010      0.000199      0.000000
     68 O2    c      -0.000330      0.000145     -0.000114      0.000000
     69 O2    c       0.000159     -0.000085      0.000650      0.000000
     70 O2    c      -0.000015      0.000130      0.000033      0.000000
     71 O2    c      -0.000433     -0.000159      0.000418      0.000000
     72 O2    c       0.000017      0.000160     -0.000426      0.000000
     73 O3    c      -0.000145     -0.000537      0.000475      0.000000
     74 O2    c      -0.000008     -0.000047     -0.000397      0.000000
     75 O2    c       0.000014     -0.000171     -0.000729      0.000000
     76 O2    c      -0.000136     -0.000067      0.000122      0.000000
     77 O2    c       0.000122     -0.000202     -0.000600      0.000000
     78 O3    c       0.000066     -0.000126      0.000277      0.000000
     79 O2    c       0.000070     -0.000016      0.000247      0.000000
     80 O2    c      -0.000028     -0.000076      0.000095      0.000000
     81 O2    c       0.000110     -0.000182      0.000369      0.000000
     82 O2    c      -0.000068     -0.000004     -0.000226      0.000000
     83 O2    c      -0.000120      0.000019      0.000540      0.000000
     84 O2    c       0.000168     -0.000312     -0.000119      0.000000
     85 O2    c       0.000201     -0.000048      0.000169      0.000000
     86 O2    c       0.000664     -0.000320      0.000251      0.000000
     87 O2    c       0.000035      0.000053      0.000134      0.000000
     88 O2    c       0.000009     -0.000374      0.000268      0.000000
     89 O3    c       0.000230      0.000198      0.001185      0.000000
     90 O2    c       0.000247      0.000080      0.000420      0.000000
     91 O2    c       0.000054     -0.000065     -0.000443      0.000000
     92 O3    c      -0.000238      0.000320      0.000366      0.000000
     93 O2    c      -0.000148     -0.000029     -0.001420      0.000000
     94 O2    c      -0.000207      0.000166     -0.000366      0.000000
     95 O2    c       0.000117      0.000384      0.002742      0.000000
     96 O2    c       0.000043      0.000047      0.000036      0.000000
     97 O2    c       0.000046     -0.000073     -0.000731      0.000000
     98 O2    c       0.000027     -0.000155      0.000623      0.000000
     99 O2    c      -0.000122     -0.000087      0.000223      0.000000
    100 O2    c      -0.000000     -0.000145      0.000371      0.000000
    101 O2    c      -0.000031      0.000006      0.000812      0.000000
    102 O2    c       0.000136     -0.000121     -0.000525      0.000000
    103 O2    c       0.000207      0.000083      0.000357      0.000000
    104 O2    c      -0.000431     -0.000274     -0.000490      0.000000
    105 O2    c      -0.000134      0.000155      0.000080      0.000000
    106 O2    c      -0.000138      0.000021     -0.000409      0.000000
    107 O3    c      -0.000157      0.000073      0.000401      0.000000
    108 O2    c       0.000097     -0.000057      0.000132      0.000000
    109 O2    c       0.000176      0.000011      0.000077      0.000000
    110 O2    c       0.000005      0.000128      0.000072      0.000000
    111 O3    c      -0.000403      0.000184     -0.000161      0.000000
    112 O2    c       0.000128      0.000009     -0.000545      0.000000
    113 O3    c      -0.003903     -0.001950     -0.000139      0.000000
    114 O2    c      -0.000006     -0.000022     -0.000545      0.000000
    115 O2    c      -0.000055     -0.000144      0.000308      0.000000
    116 O2    c      -0.000196     -0.000035     -0.000034      0.000000
    117 O2    c       0.000042     -0.000083     -0.000077      0.000000
    118 O2    c       0.000040      0.000031      0.000173      0.000000
    119 O2    c       0.000012     -0.000030      0.000115      0.000000
    120 O2    c       0.000291     -0.000084      0.000055      0.000000
    121 O2    c       0.000025      0.000003     -0.000532      0.000000
    122 O2    c       0.000061      0.000327      0.000575      0.000000
    123 O2    c       0.000011      0.000013     -0.000122      0.000000
    124 O2    c       0.000018      0.000279     -0.000075      0.000000
    125 O2    c       0.000260     -0.000037     -0.000125      0.000000
    126 O2    c      -0.000026      0.000204     -0.000472      0.000000
    127 O3    c      -0.000206     -0.000695     -0.002072      0.000000
    128 O2    c       0.000125      0.000114     -0.000506      0.000000
    129 O2    c       0.000262      0.000145      0.000184      0.000000
    130 O2    c       0.000031     -0.000184      0.000032      0.000000
    131 O3    c      -0.000135      0.000336     -0.000367      0.000000
    132 O2    c       0.000274     -0.000024     -0.000191      0.000000
    133 O2    c       0.000156      0.000033      0.000556      0.000000
    134 O2    c       0.000196      0.000098      0.000846      0.000000
    135 O2    c       0.000003      0.000042      0.000434      0.000000
    136 O2    c      -0.000059      0.000089     -0.000323      0.000000
    137 O2    c      -0.000059     -0.000019      0.000052      0.000000
    138 O2    c      -0.000133      0.000087      0.000058      0.000000
    139 O3    c      -0.000609     -0.000017     -0.001160      0.000000
    140 O2    c       0.000006     -0.000084     -0.000281      0.000000
    141 O2    c       0.000037      0.000137      0.000088      0.000000
    142 O2    c       0.000197     -0.000229     -0.000781      0.000000
    143 O3    c       0.000364      0.000600     -0.000949      0.000000
    144 O2    c       0.000008      0.000056     -0.000237      0.000000
    145 O2    c       0.000036     -0.000037      0.000258      0.000000
    146 O2    c      -0.000131     -0.000231      0.000410      0.000000
    147 O2    c      -0.000188     -0.000132     -0.000320      0.000000
    148 O2    c      -0.000016     -0.000107     -0.000078      0.000000
    149 O2    c       0.000058     -0.000167      0.000220      0.000000
    150 O2    c       0.000005     -0.000176     -0.000268      0.000000
    151 O2    c      -0.000054     -0.000028      0.000388      0.000000
    152 O2    c      -0.000249      0.000027     -0.000383      0.000000
    153 O2    c      -0.000010     -0.000186      0.000493      0.000000
    154 O2    c       0.000016      0.000007     -0.000409      0.000000
    155 O2    c       0.000045     -0.000075      0.000336      0.000000
    156 O2    c      -0.000022     -0.000288     -0.000535      0.000000
    157 O2    c       0.000023     -0.000143      0.000084      0.000000
    158 O2    c       0.000120      0.000384      0.003103      0.000000
    159 O2    c       0.000112      0.000084     -0.000783      0.000000
    160 O2    c       0.000369     -0.000044     -0.000533      0.000000
    161 O2    c       0.000022     -0.000127     -0.000427      0.000000
    162 O2    c      -0.000105      0.000048     -0.000063      0.000000
    163 O2    c       0.000047     -0.000353      0.000431      0.000000
    164 O2    c       0.000066      0.000082      0.000461      0.000000
    165 O2    c      -0.000160      0.000019     -0.000260      0.000000
    166 O2    c       0.000018      0.000010      0.000730      0.000000
    167 O2    c      -0.000253     -0.000126      0.000212      0.000000
    168 O2    c      -0.000016      0.000121     -0.000308      0.000000
    169 O2    c      -0.000014      0.000104     -0.000316      0.000000
    170 O2    c       0.000398      0.000220      0.000154      0.000000
    171 O2    c       0.000136     -0.000205      0.000273      0.000000
    172 O2    c       0.000250     -0.000065     -0.000247      0.000000
    173 O2    c       0.000078      0.000162     -0.000256      0.000000
    174 O2    c       0.000097     -0.000198     -0.000245      0.000000
    175 O2    c       0.000019     -0.000237     -0.000090      0.000000
    176 O2    c       0.000103      0.000046     -0.000027      0.000000
    177 O2    c       0.000204     -0.000261     -0.000195      0.000000
    178 O2    c      -0.000121      0.000007      0.000419      0.000000
    179 O2    c       0.000220      0.000064     -0.000529      0.000000
    180 O2    c       0.000006      0.000112      0.000118      0.000000
    181 F     c       0.000320     -0.000026      0.000043      0.000000
    182 F     c      -0.000237      0.000223      0.000103      0.000000
    183 F     c       0.000125     -0.000275      0.000439      0.000000
    184 F     c      -0.000135      0.000096      0.000174      0.000000
    185 F     c       0.000688      0.000401     -0.000505      0.000000
    186 F     c       0.000096      0.000059      0.000130      0.000000
    187 O2    s      -0.000024      0.000018     -0.000794      0.000000
    188 O2    s      -0.000142      0.000054     -0.000805      0.000000
    189 O2    s       0.000095      0.000107      0.000048      0.000000
    190 O3    s      -0.000068     -0.000390      0.000076      0.000000
    191 O2    s      -0.000007      0.000217      0.000240      0.000000
    192 O2    s       0.000277      0.000215      0.000711      0.000000
    193 O2    s       0.000283      0.000036      0.000054      0.000000
    194 O2    s      -0.000325      0.000152     -0.000304      0.000000
    195 O2    s      -0.000032     -0.000024      0.000411      0.000000
    196 O2    s      -0.000139      0.000099      0.000010      0.000000
    197 O2    s       0.000373     -0.000518      0.003220      0.000000
    198 O2    s      -0.000099      0.000064      0.000307      0.000000
    199 O3    s       0.000414      0.000566     -0.000381      0.000000
    200 O2    s       0.000070      0.000283     -0.000177      0.000000
    201 O2    s       0.000152     -0.000405     -0.000686      0.000000
    202 O2    s       0.000116     -0.000014      0.000040      0.000000
    203 O2    s      -0.000026     -0.000082      0.000193      0.000000
    204 O3    s       0.000177      0.000104     -0.000339      0.000000
    205 O2    s       0.000281      0.000119     -0.000264      0.000000
    206 O2    s       0.000206      0.000285      0.000200      0.000000
    207 O2    s      -0.000065     -0.000557     -0.000216      0.000000
    208 O2    s      -0.000165     -0.000106     -0.000047      0.000000
    209 O2    s      -0.000158      0.000131      0.000273      0.000000
    210 O2    s       0.000231     -0.000183      0.000798      0.000000
    211 O2    s       0.000135     -0.000178      0.000228      0.000000
    212 O2    s       0.000820     -0.000150     -0.002112      0.000000
    213 O2    s       0.000149      0.000030      0.000366      0.000000
    214 O2    s      -0.000038     -0.000385      0.000682      0.000000
    215 O3    s       0.000058     -0.000202     -0.000666      0.000000
    216 O2    s      -0.000044      0.000046      0.000530      0.000000
    217 O2    s       0.000580      0.000339      0.000327      0.000000
    218 O3    s       0.000091      0.000389     -0.001260      0.000000
    219 O2    s      -0.000251      0.000021      0.000121      0.000000
    220 O2    s      -0.000204      0.000317     -0.000480      0.000000
    221 O2    s      -0.000276      0.000487      0.001138      0.000000
    222 O2    s       0.000115      0.000099     -0.000014      0.000000
    223 O2    s       0.000223      0.000116     -0.000112      0.000000
    224 O2    s       0.000045     -0.000449      0.001103      0.000000
    225 O2    s      -0.000009      0.000145      0.000558      0.000000
    226 O2    s       0.000141     -0.000083      0.000240      0.000000
    227 O2    s       0.000126     -0.000024     -0.000014      0.000000
    228 O2    s       0.000379      0.000069      0.000280      0.000000
    229 O2    s      -0.000105      0.000046     -0.000173      0.000000
    230 O2    s      -0.000579     -0.000467     -0.001696      0.000000
    231 O2    s      -0.000232      0.000007     -0.000211      0.000000
    232 O2    s      -0.000141     -0.000006      0.000224      0.000000
    233 O3    s      -0.000347     -0.000073      0.000111      0.000000
    234 O2    s       0.000523     -0.000294      0.000179      0.000000
    235 O2    s       0.000079     -0.000040      0.000085      0.000000
    236 O2    s       0.000133      0.000169     -0.000184      0.000000
    237 O3    s       0.000065      0.000719     -0.000276      0.000000
    238 O2    s      -0.000062      0.000045     -0.000402      0.000000
    239 O3    s       0.000761      0.002622     -0.000978      0.000000
    240 O2    s       0.000138     -0.000105      0.000488      0.000000
    241 O2    s      -0.000042     -0.000055     -0.000427      0.000000
    242 O2    s       0.000114      0.000173     -0.000290      0.000000
    243 O2    s      -0.000258     -0.000217     -0.000006      0.000000
    244 O2    s       0.000054      0.000124      0.000128      0.000000
    245 O2    s      -0.000077     -0.000109      0.000023      0.000000
    246 O2    s       0.000299     -0.000338      0.001362      0.000000
    247 O2    s      -0.000012     -0.000124     -0.000303      0.000000
    248 O2    s       0.000199      0.000475     -0.000815      0.000000
    249 O2    s       0.000101     -0.000166     -0.000335      0.000000
    250 O2    s       0.000002      0.000374      0.000426      0.000000
    251 O2    s       0.000099     -0.000171      0.000354      0.000000
    252 O2    s      -0.000258      0.000089      0.000014      0.000000
    253 O3    s       0.000213      0.000588     -0.002078      0.000000
    254 O2    s       0.000273     -0.000123      0.000043      0.000000
    255 O2    s      -0.000084      0.000097     -0.000101      0.000000
    256 O2    s       0.000143     -0.000031      0.000063      0.000000
    257 O3    s      -0.000269     -0.000193     -0.000859      0.000000
    258 O2    s       0.000131     -0.000039      0.000548      0.000000
    259 O2    s       0.000116     -0.000071      0.000266      0.000000
    260 O2    s      -0.000129     -0.000168      0.000770      0.000000
    261 O2    s       0.000038     -0.000175      0.000733      0.000000
    262 O2    s      -0.000136      0.000005      0.000396      0.000000
    263 O2    s       0.000078      0.000030      0.000091      0.000000
    264 O2    s       0.000142     -0.000717      0.001561      0.000000
    265 O3    s      -0.000709      0.000110     -0.001712      0.000000
    266 O2    s       0.000115      0.000032     -0.000144      0.000000
    267 O2    s      -0.000099     -0.000049     -0.000171      0.000000
    268 O2    s       0.000155     -0.000115     -0.000460      0.000000
    269 O3    s      -0.000530     -0.000007      0.000606      0.000000
    270 O2    s       0.000124      0.000069     -0.000053      0.000000
    271 O2    s       0.000013      0.000028      0.000188      0.000000
    272 O2    s       0.000209      0.000054     -0.000221      0.000000
    273 O2    s       0.000223      0.000119     -0.000111      0.000000
    274 O2    s      -0.000037      0.000129     -0.000116      0.000000
    275 O2    s       0.000187     -0.000124      0.000204      0.000000
    276 O2    s      -0.000169      0.000173      0.002947      0.000000
    277 O2    s      -0.000017     -0.000167      0.000209      0.000000
    278 O2    s      -0.000102      0.000398      0.000073      0.000000
    279 O2    s       0.000108      0.000159     -0.000488      0.000000
    280 O2    s       0.000166      0.000107     -0.000314      0.000000
    281 O2    s      -0.000198      0.000132      0.000468      0.000000
    282 O2    s       0.000826     -0.000507      0.000168      0.000000
    283 O2    s       0.000102     -0.000080      0.000299      0.000000
    284 O2    s       0.000495      0.000506      0.000373      0.000000
    285 O2    s       0.000211     -0.000264     -0.000112      0.000000
    286 O2    s       0.000647     -0.000146     -0.000156      0.000000
    287 O2    s      -0.000083     -0.000406     -0.000721      0.000000
    288 O2    s      -0.000050      0.000183     -0.000069      0.000000
    289 O2    s       0.000152      0.000179      0.000350      0.000000
    290 O2    s      -0.000109      0.000097      0.000531      0.000000
    291 O2    s       0.000136     -0.000019     -0.000107      0.000000
    292 O2    s      -0.000038     -0.000116      0.000303      0.000000
    293 O2    s       0.000104     -0.000001      0.000412      0.000000
    294 O2    s       0.000141      0.000242      0.001053      0.000000
    295 O2    s      -0.000036      0.000268      0.000095      0.000000
    296 O2    s       0.000152     -0.000974     -0.001218      0.000000
    297 O2    s       0.000060     -0.000237     -0.000399      0.000000
    298 O2    s       0.000166     -0.000160     -0.000234      0.000000
    299 O2    s      -0.000063      0.000103     -0.000266      0.000000
    300 O2    s       0.000450      0.000091      0.000809      0.000000
    301 O2    s       0.000484      0.000160      0.000290      0.000000
    302 O2    s      -0.000085     -0.000047      0.000500      0.000000
    303 O2    s       0.000023     -0.000210     -0.000346      0.000000
    304 O2    s      -0.000170     -0.000228      0.000277      0.000000
    305 O2    s       0.000514      0.000394      0.000050      0.000000
    306 O2    s       0.000033      0.000394      0.000108      0.000000
    307 F     s       0.000291     -0.000048      0.000034      0.000000
    308 F     s      -0.000287      0.000172      0.000173      0.000000
    309 F     s       0.000322     -0.000262      0.000376      0.000000
    310 F     s      -0.000096      0.000138      0.000101      0.000000
    311 F     s      -0.000119     -0.000514     -0.000424      0.000000
    312 F     s       0.000097      0.000028     -0.000041      0.000000
--------------------------------------------------------------------------------
  Maximum abs         0.003903      0.002622      0.007384      0.000000
--------------------------------------------------------------------------------


  Time to end of optimisation =     170.5159 seconds


  Peak dynamic memory used =      19.13 MB 


  Timing analysis for GULP :

--------------------------------------------------------------------------------
  Task / Subroutine                                          Time (Seconds)
--------------------------------------------------------------------------------
  Calculation of reciprocal space energy and derivatives          4.1376
  Calculation of real space energy and derivatives              149.0849
  Calculation of three-body energy and derivatives               15.1974
  Calculation of matrix inversion                                 1.8613
  Global summation overhead                                       0.0004
--------------------------------------------------------------------------------
  Total CPU time                                                170.5159
--------------------------------------------------------------------------------


  Dump file written as out.res                                                 
  CIF file written as out.cif                                                 


  Job Finished at 12:30.40 26th October    2016                               

